
     Program PWSCF v.6.7MaX starts on 26Nov2021 at  1:16:36 

     This program is part of the open-source Quantum ESPRESSO suite
     for quantum simulation of materials; please cite
         "P. Giannozzi et al., J. Phys.:Condens. Matter 21 395502 (2009);
         "P. Giannozzi et al., J. Phys.:Condens. Matter 29 465901 (2017);
          URL http://www.quantum-espresso.org", 
     in publications or presentations arising from this work. More details at
     http://www.quantum-espresso.org/quote

     Parallel version (MPI & OpenMP), running on      72 processor cores
     Number of MPI processes:                72
     Threads/MPI process:                     1

     MPI processes distributed on     1 nodes
     R & G space division:  proc/nbgrp/npool/nimage =      72
     Reading input from sc_3.in
Warning: card &CELL ignored
Warning: card CELL_DYNAMICS = 'BFGS', ignored
Warning: card CELL_FACTOR = 2.0, ignored
Warning: card PRESS = 0.0, ignored
Warning: card / ignored

     Current dimensions of program PWSCF are:
     Max number of different atomic species (ntypx) = 10
     Max number of k-points (npk) =  40000
     Max angular momentum in pseudopotentials (lmaxx) =  3
     file Ru.pbe-spn-kjpaw_psl.1.0.0.UPF: wavefunction(s)  4D renormalized

     Subspace diagonalization in iterative solution of the eigenvalue problem:
     one sub-group per band group will be used
     ELPA distributed-memory algorithm (size of sub-group:  8*  8 procs)

     Found symmetry operation: I + (  0.0000  0.0000  0.5000)
     This is a supercell, fractional translations are disabled
     Message from routine setup:
     using ibrav=0 with symmetry is DISCOURAGED, use correct ibrav instead
 
     Parallelization info
     --------------------
     sticks:   dense  smooth     PW     G-vecs:    dense   smooth      PW
     Min          56      37     10                 2696     1447     214
     Max          57      38     11                 2699     1450     219
     Sum        4049    2693    749               194231   104295   15515
 


     bravais-lattice index     =            0
     lattice parameter (alat)  =       9.0720  a.u.
     unit-cell volume          =    1290.1876 (a.u.)^3
     number of atoms/cell      =            8
     number of atomic types    =            1
     number of electrons       =       128.00
     number of Kohn-Sham states=           77
     kinetic-energy cutoff     =      71.0000  Ry
     charge density cutoff     =     430.0000  Ry
     scf convergence threshold =      1.0E-06
     mixing beta               =       0.1000
     number of iterations used =           10  TF        mixing
     Exchange-correlation= SLA  PW   PBX  PBC
                           (   1   4   3   4   0   0   0)

     celldm(1)=   9.072000  celldm(2)=   0.000000  celldm(3)=   0.000000
     celldm(4)=   0.000000  celldm(5)=   0.000000  celldm(6)=   0.000000

     crystal axes: (cart. coord. in units of alat)
               a(1) = (   1.200000   0.000000   0.000000 )  
               a(2) = (   0.000000   1.200000   0.000000 )  
               a(3) = (   0.000000   0.000000   1.200000 )  

     reciprocal axes: (cart. coord. in units 2 pi/alat)
               b(1) = (  0.833333  0.000000  0.000000 )  
               b(2) = (  0.000000  0.833333  0.000000 )  
               b(3) = (  0.000000  0.000000  0.833333 )  


     PseudoPot. # 1 for Ru read from file:
     /rds/homes/b/bxp912/pp/Ru.pbe-spn-kjpaw_psl.1.0.0.UPF
     MD5 check sum: 0ae1f594dea09af7be8575c3a481d1ae
     Pseudo is Projector augmented-wave + core cor, Zval = 16.0
     Generated using "atomic" code by A. Dal Corso  v.5.1
     Shape of augmentation charge: PSQ
     Using radial grid of 1233 points,  6 beta functions with: 
                l(1) =   0
                l(2) =   0
                l(3) =   1
                l(4) =   1
                l(5) =   2
                l(6) =   2
     Q(r) pseudized with 0 coefficients 


     atomic species   valence    mass     pseudopotential
        Ru            16.00   101.07000     Ru( 1.00)

     48 Sym. Ops., with inversion, found



   Cartesian axes

     site n.     atom                  positions (alat units)
         1           Ru  tau(   1) = (   0.0000000   0.0000000   0.0000000  )
         2           Ru  tau(   2) = (   0.0000000   0.0000000   0.6000000  )
         3           Ru  tau(   3) = (   0.0000000   0.6000000   0.0000000  )
         4           Ru  tau(   4) = (   0.0000000   0.6000000   0.6000000  )
         5           Ru  tau(   5) = (   0.6000000   0.0000000   0.0000000  )
         6           Ru  tau(   6) = (   0.6000000   0.0000000   0.6000000  )
         7           Ru  tau(   7) = (   0.6000000   0.6000000   0.0000000  )
         8           Ru  tau(   8) = (   0.6000000   0.6000000   0.6000000  )

     number of k points=    35  Marzari-Vanderbilt smearing, width (Ry)=  0.0400
                       cart. coord. in units 2pi/alat
        k(    1) = (   0.0462963   0.0462963   0.0462963), wk =   0.0219479
        k(    2) = (   0.0462963   0.0462963   0.1388889), wk =   0.0658436
        k(    3) = (   0.0462963   0.0462963   0.2314815), wk =   0.0658436
        k(    4) = (   0.0462963   0.0462963   0.3240741), wk =   0.0658436
        k(    5) = (   0.0462963   0.0462963  -0.4166667), wk =   0.0329218
        k(    6) = (   0.0462963   0.1388889   0.1388889), wk =   0.0658436
        k(    7) = (   0.0462963   0.1388889   0.2314815), wk =   0.1316872
        k(    8) = (   0.0462963   0.1388889   0.3240741), wk =   0.1316872
        k(    9) = (   0.0462963   0.1388889  -0.4166667), wk =   0.0658436
        k(   10) = (   0.0462963   0.2314815   0.2314815), wk =   0.0658436
        k(   11) = (   0.0462963   0.2314815   0.3240741), wk =   0.1316872
        k(   12) = (   0.0462963   0.2314815  -0.4166667), wk =   0.0658436
        k(   13) = (   0.0462963   0.3240741   0.3240741), wk =   0.0658436
        k(   14) = (   0.0462963   0.3240741  -0.4166667), wk =   0.0658436
        k(   15) = (   0.0462963  -0.4166667  -0.4166667), wk =   0.0164609
        k(   16) = (   0.1388889   0.1388889   0.1388889), wk =   0.0219479
        k(   17) = (   0.1388889   0.1388889   0.2314815), wk =   0.0658436
        k(   18) = (   0.1388889   0.1388889   0.3240741), wk =   0.0658436
        k(   19) = (   0.1388889   0.1388889  -0.4166667), wk =   0.0329218
        k(   20) = (   0.1388889   0.2314815   0.2314815), wk =   0.0658436
        k(   21) = (   0.1388889   0.2314815   0.3240741), wk =   0.1316872
        k(   22) = (   0.1388889   0.2314815  -0.4166667), wk =   0.0658436
        k(   23) = (   0.1388889   0.3240741   0.3240741), wk =   0.0658436
        k(   24) = (   0.1388889   0.3240741  -0.4166667), wk =   0.0658436
        k(   25) = (   0.1388889  -0.4166667  -0.4166667), wk =   0.0164609
        k(   26) = (   0.2314815   0.2314815   0.2314815), wk =   0.0219479
        k(   27) = (   0.2314815   0.2314815   0.3240741), wk =   0.0658436
        k(   28) = (   0.2314815   0.2314815  -0.4166667), wk =   0.0329218
        k(   29) = (   0.2314815   0.3240741   0.3240741), wk =   0.0658436
        k(   30) = (   0.2314815   0.3240741  -0.4166667), wk =   0.0658436
        k(   31) = (   0.2314815  -0.4166667  -0.4166667), wk =   0.0164609
        k(   32) = (   0.3240741   0.3240741   0.3240741), wk =   0.0219479
        k(   33) = (   0.3240741   0.3240741  -0.4166667), wk =   0.0329218
        k(   34) = (   0.3240741  -0.4166667  -0.4166667), wk =   0.0164609
        k(   35) = (  -0.4166667  -0.4166667  -0.4166667), wk =   0.0027435

     Dense  grid:   194231 G-vectors     FFT dimensions: (  72,  72,  72)

     Smooth grid:   104295 G-vectors     FFT dimensions: (  60,  60,  60)

     Estimated max dynamical RAM per process >      19.97 MB

     Estimated total dynamical RAM >       1.40 GB

     Check: negative core charge=   -0.000002

     Initial potential from superposition of free atoms

     starting charge  127.99490, renormalised to  128.00000
     Starting wfcs are   80 randomized atomic wfcs
     Checking if some PAW data can be deallocated... 

     total cpu time spent up to now is        4.7 secs

     Self-consistent Calculation

     iteration #  1     ecut=    71.00 Ry     beta= 0.10
     Davidson diagonalization with overlap
     ethr =  1.00E-02,  avg # of iterations =  3.7

     Threshold (ethr) on eigenvalues was too large:
     Diagonalizing with lowered threshold

     Davidson diagonalization with overlap
     ethr =  9.37E-05,  avg # of iterations =  4.0

     total cpu time spent up to now is       11.6 secs

     total energy              =   -3452.00517951 Ry
     estimated scf accuracy    <       0.05940378 Ry

     iteration #  2     ecut=    71.00 Ry     beta= 0.10
     Davidson diagonalization with overlap
     ethr =  4.64E-05,  avg # of iterations =  1.3

     total cpu time spent up to now is       13.8 secs

     total energy              =   -3451.99611959 Ry
     estimated scf accuracy    <       0.04613307 Ry

     iteration #  3     ecut=    71.00 Ry     beta= 0.10
     Davidson diagonalization with overlap
     ethr =  3.60E-05,  avg # of iterations =  2.0

     total cpu time spent up to now is       16.6 secs

     total energy              =   -3451.99473644 Ry
     estimated scf accuracy    <       0.01416211 Ry

     iteration #  4     ecut=    71.00 Ry     beta= 0.10
     Davidson diagonalization with overlap
     ethr =  1.11E-05,  avg # of iterations =  2.8

     total cpu time spent up to now is       19.7 secs

     total energy              =   -3451.99513514 Ry
     estimated scf accuracy    <       0.00426167 Ry

     iteration #  5     ecut=    71.00 Ry     beta= 0.10
     Davidson diagonalization with overlap
     ethr =  3.33E-06,  avg # of iterations =  2.0

     total cpu time spent up to now is       24.1 secs

     total energy              =   -3451.99547522 Ry
     estimated scf accuracy    <       0.00124539 Ry

     iteration #  6     ecut=    71.00 Ry     beta= 0.10
     Davidson diagonalization with overlap
     ethr =  9.73E-07,  avg # of iterations =  2.0

     total cpu time spent up to now is       27.5 secs

     total energy              =   -3451.99567773 Ry
     estimated scf accuracy    <       0.00034475 Ry

     iteration #  7     ecut=    71.00 Ry     beta= 0.10
     Davidson diagonalization with overlap
     ethr =  2.69E-07,  avg # of iterations =  2.7

     total cpu time spent up to now is       31.7 secs

     total energy              =   -3451.99570465 Ry
     estimated scf accuracy    <       0.00013068 Ry

     iteration #  8     ecut=    71.00 Ry     beta= 0.10
     Davidson diagonalization with overlap
     ethr =  1.02E-07,  avg # of iterations =  2.0

     total cpu time spent up to now is       35.2 secs

     total energy              =   -3451.99573137 Ry
     estimated scf accuracy    <       0.00001089 Ry

     iteration #  9     ecut=    71.00 Ry     beta= 0.10
     Davidson diagonalization with overlap
     ethr =  8.51E-09,  avg # of iterations =  2.3

     total cpu time spent up to now is       38.6 secs

     total energy              =   -3451.99573514 Ry
     estimated scf accuracy    <       0.00001315 Ry

     iteration # 10     ecut=    71.00 Ry     beta= 0.10
     Davidson diagonalization with overlap
     ethr =  8.51E-09,  avg # of iterations =  2.3

     total cpu time spent up to now is       42.3 secs

     End of self-consistent calculation

          k = 0.0463 0.0463 0.0463 ( 13088 PWs)   bands (ev):

   -61.0475 -61.0246 -61.0246 -61.0243 -61.0020 -61.0020 -61.0017 -60.9796
   -31.1274 -31.1274 -31.1274 -31.0991 -31.0991 -31.0990 -31.0990 -31.0989
   -31.0989 -31.0718 -31.0717 -31.0717 -30.8639 -30.8638 -30.8638 -30.8423
   -30.8423 -30.8422 -30.8422 -30.8421 -30.8421 -30.8211 -30.8211 -30.8211
     6.4320   8.1137   8.1137   8.1137   8.3251   8.3251   8.4578   8.4578
     8.4578   8.7215   8.7215   8.7215   8.8114   8.8327   8.8327   9.1399
     9.1399   9.1399  10.6511  10.6511  10.6511  10.7580  10.7580  10.7580
    10.9885  10.9885  10.9885  10.9913  10.9913  10.9914  11.8802  11.8802
    11.8802  12.0415  12.0473  12.0473  12.1677  12.1677  12.1677  12.9632
    12.9633  12.9633  13.0874  13.0874  15.6731

          k = 0.0463 0.0463 0.1389 ( 13037 PWs)   bands (ev):

   -61.0461 -61.0259 -61.0232 -61.0230 -61.0033 -61.0032 -61.0005 -60.9809
   -31.1256 -31.1256 -31.1116 -31.1007 -31.1007 -31.0973 -31.0972 -31.0837
   -31.0836 -31.0734 -31.0732 -31.0567 -30.8801 -30.8626 -30.8624 -30.8579
   -30.8578 -30.8436 -30.8435 -30.8409 -30.8409 -30.8365 -30.8224 -30.8224
     6.5622   8.1521   8.2040   8.2040   8.3446   8.3477   8.4250   8.5661
     8.5661   8.6961   8.7718   8.8293   8.8294   8.9184   8.9264   9.1063
     9.1063   9.3199  10.2843  10.2843  10.6767  10.7590  10.7590  10.7888
    10.7916  10.8260  10.9744  10.9744  11.0522  11.0522  11.4466  11.9534
    11.9572  12.0533  12.0882  12.0882  12.1603  12.2954  12.2955  12.5585
    12.5585  12.7531  12.9769  13.0817  15.2863

          k = 0.0463 0.0463 0.2315 ( 13033 PWs)   bands (ev):

   -61.0435 -61.0285 -61.0206 -61.0205 -61.0059 -61.0057 -60.9980 -60.9834
   -31.1224 -31.1224 -31.1039 -31.1039 -31.0943 -31.0942 -31.0821 -31.0764
   -31.0764 -31.0549 -31.0548 -31.0288 -30.9103 -30.8873 -30.8872 -30.8651
   -30.8602 -30.8600 -30.8460 -30.8459 -30.8385 -30.8385 -30.8247 -30.8247
     6.8064   8.1309   8.2256   8.3818   8.3818   8.3906   8.6297   8.6490
     8.6760   8.6760   8.6850   9.0441   9.0441   9.1011   9.1097   9.1382
     9.1383   9.6697   9.8318   9.8318  10.4599  10.4614  10.5004  10.7850
    10.7850  10.9457  10.9457  10.9565  11.0890  11.1673  11.1673  11.7911
    11.7932  11.8858  11.8858  11.9428  11.9428  12.0669  12.1463  12.1802
    12.8237  12.8237  12.9967  13.0709  14.8684

          k = 0.0463 0.0463 0.3241 ( 13045 PWs)   bands (ev):

   -61.0400 -61.0320 -61.0172 -61.0170 -61.0093 -61.0092 -60.9946 -60.9868
   -31.1181 -31.1181 -31.1082 -31.1082 -31.0901 -31.0900 -31.0806 -31.0805
   -31.0423 -31.0160 -31.0159 -30.9907 -30.9508 -30.9268 -30.9267 -30.9037
   -30.8569 -30.8567 -30.8494 -30.8492 -30.8353 -30.8353 -30.8280 -30.8280
     7.1316   7.8374   8.3273   8.4492   8.5714   8.5867   8.6403   8.6403
     8.7692   8.7692   8.9487   8.9628   8.9628   9.3600   9.3600   9.3650
     9.3742   9.6823   9.6823   9.9419  10.0461  10.0801  10.2051  10.8218
    10.8218  10.9074  10.9074  11.0653  11.0653  11.1384  11.1673  11.3744
    11.3744  11.4949  11.5822  11.5834  11.7543  11.7543  12.0853  12.1276
    13.0176  13.0558  13.3730  13.3730  14.4141

          k = 0.0463 0.0463-0.4167 ( 13004 PWs)   bands (ev):

   -61.0360 -61.0360 -61.0133 -61.0132 -61.0131 -61.0131 -60.9907 -60.9907
   -31.1131 -31.1131 -31.1131 -31.1131 -31.0854 -31.0853 -31.0852 -31.0852
   -30.9966 -30.9966 -30.9716 -30.9715 -30.9714 -30.9714 -30.9473 -30.9472
   -30.8531 -30.8531 -30.8530 -30.8529 -30.8317 -30.8317 -30.8316 -30.8316
     7.4914   7.4915   8.4470   8.4470   8.5172   8.5172   8.8570   8.8570
     8.8570   8.8570   8.9856   8.9856   8.9856   8.9856   9.3901   9.3901
     9.6948   9.6948   9.7054   9.7054  10.3279  10.3279  10.3280  10.3280
    10.8043  10.8043  10.8643  10.8643  10.8644  10.8644  11.3546  11.3546
    11.3629  11.3629  11.5506  11.5506  11.5506  11.5506  12.1064  12.1064
    13.0377  13.0377  13.9108  13.9108  13.9108

          k = 0.0463 0.1389 0.1389 ( 13063 PWs)   bands (ev):

   -61.0447 -61.0246 -61.0244 -61.0217 -61.0046 -61.0020 -61.0018 -60.9823
   -31.1239 -31.1099 -31.1099 -31.0991 -31.0990 -31.0859 -31.0849 -31.0821
   -31.0821 -31.0750 -31.0588 -31.0580 -30.8792 -30.8782 -30.8613 -30.8592
   -30.8592 -30.8570 -30.8561 -30.8423 -30.8422 -30.8378 -30.8378 -30.8237
     6.6927   8.2415   8.2415   8.2883   8.4095   8.4557   8.4558   8.4848
     8.7190   8.7952   8.7952   8.8071   8.8905   8.9334   9.0146   9.0728
     9.2844   9.2844  10.1298  10.3119  10.3119  10.6233  10.7718  10.7718
    10.8259  10.8259  10.8520  10.8521  11.0253  11.0486  11.8210  11.8210
    11.8635  11.9484  11.9792  12.0051  12.0806  12.0806  12.2915  12.5998
    12.5999  12.6091  12.6369  12.8972  14.4903

          k = 0.0463 0.1389 0.2315 ( 13052 PWs)   bands (ev):

   -61.0421 -61.0271 -61.0220 -61.0192 -61.0072 -61.0045 -60.9994 -60.9848
   -31.1207 -31.1068 -31.1023 -31.0959 -31.0886 -31.0805 -31.0790 -31.0781
   -31.0615 -31.0565 -31.0533 -31.0303 -30.9089 -30.8887 -30.8859 -30.8762
   -30.8665 -30.8617 -30.8588 -30.8541 -30.8447 -30.8402 -30.8398 -30.8260
     6.9366   8.2448   8.3130   8.4170   8.4515   8.4668   8.5869   8.6734
     8.7397   8.7517   8.8586   9.0124   9.0578   9.0874   9.1648   9.1924
     9.2197   9.6269   9.7916   9.9124  10.2537  10.4394  10.5319  10.5823
    10.7381  10.8509  10.9521  10.9540  11.0066  11.1542  11.3211  11.6982
    11.7574  11.7986  11.8542  11.9333  11.9732  11.9817  12.0656  12.1147
    12.2360  12.6537  12.8195  13.1207  13.8715

          k = 0.0463 0.1389 0.3241 ( 13043 PWs)   bands (ev):

   -61.0386 -61.0306 -61.0185 -61.0158 -61.0106 -61.0079 -60.9960 -60.9882
   -31.1164 -31.1066 -31.1026 -31.0929 -31.0918 -31.0823 -31.0749 -31.0656
   -31.0407 -31.0175 -31.0144 -30.9922 -30.9494 -30.9283 -30.9254 -30.9051
   -30.8728 -30.8651 -30.8555 -30.8508 -30.8480 -30.8434 -30.8366 -30.8293
     7.2599   7.9555   8.4118   8.5291   8.6468   8.6713   8.6721   8.6726
     8.6921   8.9461   8.9467   8.9854   9.1365   9.2875   9.3459   9.3648
     9.4480   9.7032   9.7719   9.9026   9.9968  10.0760  10.2700  10.6035
    10.6938  10.8867  10.9169  10.9690  11.0130  11.1115  11.1983  11.3572
    11.4226  11.4557  11.4904  11.5916  11.6623  11.7440  12.0007  12.0456
    12.6374  12.7031  12.7822  13.4148  13.6446

          k = 0.0463 0.1389-0.4167 ( 13024 PWs)   bands (ev):

   -61.0347 -61.0346 -61.0146 -61.0145 -61.0119 -61.0118 -60.9921 -60.9920
   -31.1115 -31.1114 -31.0977 -31.0977 -31.0870 -31.0870 -31.0703 -31.0702
   -30.9951 -30.9951 -30.9730 -30.9730 -30.9700 -30.9700 -30.9488 -30.9487
   -30.8690 -30.8689 -30.8518 -30.8517 -30.8472 -30.8471 -30.8330 -30.8329
     7.6152   7.6153   8.5276   8.5277   8.5995   8.5995   8.7723   8.7724
     8.9776   8.9776   9.0472   9.0473   9.0611   9.0611   9.4119   9.4120
     9.6740   9.6740   9.7641   9.7641  10.3105  10.3105  10.3275  10.3275
    10.6458  10.6459  10.7824  10.7824  10.9281  10.9281  11.2804  11.2804
    11.3711  11.3711  11.4690  11.4690  11.5391  11.5391  12.0230  12.0230
    12.7454  12.7454  13.0234  13.0235  14.1649

          k = 0.0463 0.2315 0.2315 ( 13028 PWs)   bands (ev):

   -61.0395 -61.0246 -61.0245 -61.0166 -61.0097 -61.0020 -61.0018 -60.9873
   -31.1175 -31.0992 -31.0991 -31.0812 -31.0774 -31.0774 -31.0607 -31.0584
   -31.0504 -31.0504 -31.0343 -31.0322 -30.9075 -30.9051 -30.8913 -30.8913
   -30.8845 -30.8824 -30.8690 -30.8690 -30.8563 -30.8423 -30.8422 -30.8285
     7.1781   8.4051   8.4051   8.4837   8.4837   8.5762   8.5826   8.8012
     8.8153   8.9560   8.9560   8.9632   9.1269   9.1989   9.2242   9.3587
     9.5549   9.5549   9.6578   9.9745   9.9745  10.3784  10.4011  10.4011
    10.6451  10.6451  10.9742  10.9742  11.0998  11.1443  11.4567  11.5314
    11.5743  11.5743  11.6958  11.7840  11.8531  11.8755  11.9186  11.9186
    12.0708  12.0708  12.4964  13.0271  13.5702

          k = 0.0463 0.2315 0.3241 ( 13031 PWs)   bands (ev):

   -61.0360 -61.0280 -61.0211 -61.0132 -61.0132 -61.0054 -60.9985 -60.9908
   -31.1132 -31.1034 -31.0950 -31.0854 -31.0733 -31.0638 -31.0464 -31.0377
   -31.0373 -31.0204 -31.0116 -30.9951 -30.9467 -30.9310 -30.9228 -30.9077
   -30.9027 -30.8948 -30.8800 -30.8724 -30.8531 -30.8455 -30.8390 -30.8317
     7.4925   8.1443   8.5434   8.5746   8.6806   8.6837   8.7280   8.7735
     8.8594   8.9638   9.0742   9.1959   9.2660   9.3284   9.3709   9.4684
     9.5953   9.7444   9.8403   9.8680   9.9400  10.0419  10.3023  10.3541
    10.3774  10.6889  10.8815  11.0079  11.0871  11.1004  11.2392  11.3279
    11.3299  11.3507  11.4832  11.5025  11.6060  11.7190  11.8384  11.8486
    11.8960  12.1565  12.3263  12.4638  14.0710

          k = 0.0463 0.2315-0.4167 ( 13038 PWs)   bands (ev):

   -61.0321 -61.0320 -61.0172 -61.0171 -61.0093 -61.0092 -60.9947 -60.9946
   -31.1084 -31.1083 -31.0902 -31.0902 -31.0686 -31.0685 -31.0419 -31.0418
   -30.9923 -30.9922 -30.9759 -30.9758 -30.9673 -30.9673 -30.9516 -30.9515
   -30.8988 -30.8987 -30.8762 -30.8762 -30.8493 -30.8493 -30.8354 -30.8353
     7.8296   7.8296   8.6493   8.6494   8.6779   8.6779   8.7687   8.7687
     9.0263   9.0263   9.1137   9.1137   9.3805   9.3806   9.4643   9.4643
     9.6399   9.6399   9.8769   9.8769  10.2695  10.2695  10.3093  10.3093
    10.3200  10.3200  10.7330  10.7330  11.0472  11.0472  11.1558  11.1558
    11.3431  11.3431  11.3909  11.3910  11.5168  11.5168  11.8714  11.8714
    12.1092  12.1092  12.2353  12.2353  14.5721

          k = 0.0463 0.3241 0.3241 ( 13003 PWs)   bands (ev):

   -61.0325 -61.0247 -61.0245 -61.0167 -61.0098 -61.0020 -61.0019 -60.9942
   -31.1089 -31.0993 -31.0991 -31.0896 -31.0336 -31.0336 -31.0262 -31.0228
   -31.0078 -31.0078 -31.0006 -30.9974 -30.9447 -30.9412 -30.9346 -30.9346
   -30.9208 -30.9176 -30.9112 -30.9112 -30.8497 -30.8424 -30.8422 -30.8349
     7.7823   8.3338   8.3339   8.6152   8.7998   8.7998   8.8568   8.8725
     9.0584   9.0995   9.0995   9.2521   9.2682   9.3970   9.7099   9.7998
     9.8508   9.8508   9.8519   9.8794   9.8794   9.9998   9.9998  10.0674
    10.4576  10.4576  10.6012  11.0851  11.1221  11.1221  11.1495  11.2021
    11.3014  11.3014  11.3244  11.3291  11.5576  11.5576  11.5918  11.6871
    11.7040  11.7040  11.7693  11.8965  14.5530

          k = 0.0463 0.3241-0.4167 ( 13028 PWs)   bands (ev):

   -61.0286 -61.0285 -61.0207 -61.0206 -61.0059 -61.0058 -60.9981 -60.9980
   -31.1041 -31.1041 -31.0945 -31.0944 -31.0291 -31.0291 -31.0035 -31.0034
   -30.9885 -30.9884 -30.9796 -30.9796 -30.9637 -30.9637 -30.9553 -30.9552
   -30.9387 -30.9387 -30.9152 -30.9152 -30.8461 -30.8460 -30.8386 -30.8386
     8.0748   8.0748   8.4920   8.4920   8.8650   8.8650   8.9932   8.9932
     9.0513   9.0513   9.1580   9.1580   9.5919   9.5919   9.6292   9.6292
     9.8192   9.8192   9.9831   9.9831  10.0196  10.0197  10.1553  10.1553
    10.2785  10.2785  10.6222  10.6222  11.0388  11.0388  11.1751  11.1751
    11.2466  11.2466  11.4145  11.4146  11.4161  11.4161  11.5118  11.5118
    11.6693  11.6693  11.6785  11.6785  15.0355

          k = 0.0463-0.4167-0.4167 ( 13036 PWs)   bands (ev):

   -61.0247 -61.0247 -61.0246 -61.0244 -61.0021 -61.0021 -61.0020 -61.0018
   -31.0994 -31.0994 -31.0993 -31.0992 -30.9860 -30.9860 -30.9859 -30.9859
   -30.9822 -30.9822 -30.9821 -30.9821 -30.9613 -30.9613 -30.9612 -30.9612
   -30.9577 -30.9577 -30.9576 -30.9576 -30.8424 -30.8424 -30.8423 -30.8422
     8.3005   8.3005   8.3006   8.3006   9.0116   9.0116   9.0116   9.0116
     9.1383   9.1384   9.1384   9.1384   9.7171   9.7171   9.7171   9.7171
     9.8747   9.8747   9.8747   9.8747  10.1424  10.1424  10.1424  10.1424
    10.3492  10.3492  10.3492  10.3492  11.0297  11.0297  11.0297  11.0297
    11.3034  11.3034  11.3034  11.3034  11.4181  11.4182  11.4182  11.4182
    11.5039  11.5039  11.5039  11.5039  15.5013

          k = 0.1389 0.1389 0.1389 ( 13055 PWs)   bands (ev):

   -61.0434 -61.0232 -61.0232 -61.0230 -61.0033 -61.0033 -61.0031 -60.9836
   -31.1083 -31.1083 -31.1083 -31.0843 -31.0843 -31.0842 -31.0833 -31.0832
   -31.0832 -31.0610 -31.0596 -31.0596 -30.8784 -30.8769 -30.8769 -30.8584
   -30.8584 -30.8583 -30.8575 -30.8574 -30.8574 -30.8390 -30.8390 -30.8390
     6.8237   8.3250   8.3250   8.3250   8.5073   8.5073   8.5953   8.5953
     8.5953   8.8426   8.8634   8.8634   8.8634   9.0248   9.0248   9.2486
     9.2486   9.2486  10.1642  10.1642  10.1642  10.6960  10.6960  10.6960
    10.8232  10.8232  10.8232  10.8448  10.8448  10.8448  11.8481  11.8849
    11.8849  11.9910  11.9910  11.9910  12.1150  12.1150  12.1150  12.3427
    12.3427  12.3427  12.5991  12.5991  14.7257

          k = 0.1389 0.1389 0.2315 ( 13034 PWs)   bands (ev):

   -61.0408 -61.0257 -61.0207 -61.0205 -61.0059 -61.0057 -61.0007 -60.9862
   -31.1051 -31.1051 -31.0869 -31.0869 -31.0811 -31.0802 -31.0788 -31.0636
   -31.0626 -31.0550 -31.0549 -31.0319 -30.9075 -30.8874 -30.8873 -30.8753
   -30.8744 -30.8678 -30.8608 -30.8599 -30.8554 -30.8554 -30.8415 -30.8415
     7.0681   8.3733   8.3949   8.4869   8.4869   8.5501   8.7079   8.7561
     8.7561   8.8103   8.8136   9.0900   9.0900   9.1513   9.1846   9.1846
     9.2035   9.5832   9.8778   9.8778  10.1381  10.5052  10.5181  10.6534
    10.6534  10.7993  10.7993  10.8347  10.9370  10.9370  11.5348  11.7002
    11.7132  11.8421  11.8421  11.8442  11.8443  11.8921  11.9835  12.0713
    12.4073  12.4825  12.4826  12.5793  14.0922

          k = 0.1389 0.1389 0.3241 ( 13037 PWs)   bands (ev):

   -61.0372 -61.0293 -61.0172 -61.0171 -61.0094 -61.0092 -60.9973 -60.9896
   -31.1009 -31.1009 -31.0912 -31.0912 -31.0770 -31.0761 -31.0677 -31.0668
   -31.0391 -31.0160 -31.0159 -30.9937 -30.9479 -30.9269 -30.9268 -30.9065
   -30.8720 -30.8710 -30.8642 -30.8634 -30.8522 -30.8522 -30.8447 -30.8447
     7.3904   8.0810   8.4910   8.6090   8.7114   8.7114   8.7161   8.7489
     8.8574   8.8574   9.0187   9.1096   9.1096   9.3077   9.3077   9.3911
     9.4609   9.7865   9.7865   9.8753   9.9272  10.1465  10.2830  10.6713
    10.6713  10.7562  10.7562  10.8841  10.8841  11.0268  11.2768  11.3806
    11.3806  11.4219  11.4925  11.5093  11.6487  11.6487  11.9126  11.9612
    12.4650  12.5503  12.8609  12.8609  13.6254

          k = 0.1389 0.1389-0.4167 ( 13038 PWs)   bands (ev):

   -61.0333 -61.0332 -61.0134 -61.0132 -61.0131 -61.0131 -60.9935 -60.9934
   -31.0961 -31.0961 -31.0960 -31.0960 -31.0724 -31.0724 -31.0714 -31.0714
   -30.9936 -30.9936 -30.9716 -30.9716 -30.9715 -30.9715 -30.9503 -30.9502
   -30.8681 -30.8681 -30.8673 -30.8672 -30.8485 -30.8485 -30.8484 -30.8484
     7.7429   7.7429   8.6028   8.6028   8.6778   8.6778   8.8995   8.8995
     8.8995   8.8995   9.1137   9.1137   9.1137   9.1137   9.4329   9.4329
     9.6954   9.6954   9.7827   9.7827  10.3108  10.3108  10.3109  10.3109
    10.7113  10.7113  10.7113  10.7113  10.7626  10.7626  11.2540  11.2540
    11.3341  11.3341  11.4521  11.4522  11.4522  11.4522  11.9367  11.9367
    12.5124  12.5124  13.2352  13.2352  13.2352

          k = 0.1389 0.2315 0.2315 ( 13035 PWs)   bands (ev):

   -61.0382 -61.0233 -61.0231 -61.0180 -61.0084 -61.0034 -61.0032 -60.9887
   -31.1020 -31.0839 -31.0838 -31.0758 -31.0758 -31.0662 -31.0591 -31.0569
   -31.0520 -31.0520 -31.0358 -31.0338 -30.9061 -30.9038 -30.8900 -30.8900
   -30.8859 -30.8838 -30.8724 -30.8703 -30.8703 -30.8580 -30.8579 -30.8439
     7.3112   8.5529   8.5529   8.5541   8.5542   8.6152   8.6745   8.8231
     8.8650   9.0041   9.0041   9.0236   9.1270   9.1919   9.2134   9.3521
     9.5106   9.5106   9.7788   9.9445   9.9445  10.4613  10.4745  10.4745
    10.6266  10.6266  10.7858  10.7858  10.8878  10.9118  11.5423  11.5589
    11.6812  11.7027  11.7435  11.7435  11.7514  11.8632  11.8656  11.8656
    11.9356  11.9356  12.2697  12.8254  13.2500

          k = 0.1389 0.2315 0.3241 ( 13019 PWs)   bands (ev):

   -61.0347 -61.0267 -61.0197 -61.0146 -61.0118 -61.0067 -60.9999 -60.9921
   -31.0978 -31.0881 -31.0797 -31.0717 -31.0703 -31.0622 -31.0480 -31.0389
   -31.0361 -31.0189 -31.0132 -30.9966 -30.9452 -30.9296 -30.9242 -30.9091
   -30.9014 -30.8935 -30.8814 -30.8737 -30.8690 -30.8613 -30.8547 -30.8471
     7.6264   8.2815   8.6417   8.6947   8.7562   8.7616   8.7726   8.8298
     8.9213   9.0885   9.1000   9.1214   9.2331   9.3797   9.4002   9.4274
     9.5891   9.8119   9.8314   9.8594   9.8765  10.1545  10.3644  10.3865
    10.4301  10.6680  10.7864  10.7929  10.8770  10.9581  11.2988  11.3297
    11.3407  11.3573  11.4206  11.4846  11.5220  11.6158  11.7548  11.8107
    12.0122  12.0481  12.1458  12.6825  13.1895

          k = 0.1389 0.2315-0.4167 ( 13028 PWs)   bands (ev):

   -61.0307 -61.0306 -61.0158 -61.0157 -61.0107 -61.0106 -60.9960 -60.9960
   -31.0930 -31.0929 -31.0751 -31.0750 -31.0670 -31.0669 -31.0435 -31.0434
   -30.9908 -30.9908 -30.9744 -30.9743 -30.9688 -30.9688 -30.9530 -30.9530
   -30.8975 -30.8974 -30.8776 -30.8775 -30.8652 -30.8652 -30.8509 -30.8509
     7.9637   7.9637   8.7408   8.7408   8.7822   8.7822   8.8403   8.8403
     9.0125   9.0125   9.1717   9.1717   9.3616   9.3617   9.4832   9.4832
     9.6824   9.6824   9.8791   9.8792  10.2708  10.2708  10.2990  10.2990
    10.3960  10.3961  10.7180  10.7180  10.8267  10.8267  11.1419  11.1419
    11.3170  11.3170  11.3451  11.3451  11.4169  11.4169  11.7815  11.7815
    12.0784  12.0784  12.3211  12.3211  13.5607

          k = 0.1389 0.3241 0.3241 ( 13029 PWs)   bands (ev):

   -61.0312 -61.0233 -61.0231 -61.0153 -61.0111 -61.0034 -61.0032 -60.9955
   -31.0935 -31.0840 -31.0839 -31.0745 -31.0321 -31.0321 -31.0247 -31.0213
   -31.0093 -31.0093 -31.0021 -30.9989 -30.9433 -30.9398 -30.9332 -30.9332
   -30.9223 -30.9191 -30.9126 -30.9126 -30.8656 -30.8581 -30.8580 -30.8505
     7.9193   8.4761   8.4762   8.7319   8.8445   8.8445   8.9151   8.9343
     9.1346   9.1509   9.1509   9.1874   9.2876   9.4743   9.6553   9.7915
     9.7972   9.7972   9.8572   9.8572   9.8922  10.1234  10.1234  10.1784
    10.4449  10.4449  10.5682  10.9267  10.9267  10.9572  11.0759  11.1579
    11.2469  11.2997  11.4351  11.4351  11.4774  11.4775  11.5318  11.5774
    11.6429  11.6429  11.7573  12.0128  13.5515

          k = 0.1389 0.3241-0.4167 ( 13034 PWs)   bands (ev):

   -61.0272 -61.0272 -61.0193 -61.0192 -61.0073 -61.0072 -60.9995 -60.9994
   -31.0888 -31.0887 -31.0792 -31.0792 -31.0276 -31.0276 -31.0050 -31.0050
   -30.9870 -30.9870 -30.9782 -30.9781 -30.9652 -30.9651 -30.9567 -30.9567
   -30.9374 -30.9373 -30.9166 -30.9166 -30.8619 -30.8618 -30.8543 -30.8542
     8.2136   8.2136   8.6283   8.6284   8.9070   8.9070   9.0552   9.0552
     9.0576   9.0576   9.2123   9.2123   9.6074   9.6074   9.6830   9.6830
     9.7513   9.7513  10.0172  10.0172  10.1005  10.1005  10.1584  10.1584
    10.2762  10.2762  10.6167  10.6167  10.9385  10.9385  11.0160  11.0160
    11.2053  11.2053  11.3617  11.3617  11.3815  11.3815  11.5667  11.5668
    11.5904  11.5904  11.6831  11.6831  13.9328

          k = 0.1389-0.4167-0.4167 ( 12972 PWs)   bands (ev):

   -61.0233 -61.0233 -61.0232 -61.0231 -61.0034 -61.0034 -61.0033 -61.0032
   -31.0840 -31.0840 -31.0839 -31.0838 -30.9845 -30.9845 -30.9844 -30.9844
   -30.9807 -30.9807 -30.9806 -30.9806 -30.9627 -30.9627 -30.9626 -30.9626
   -30.9591 -30.9591 -30.9590 -30.9590 -30.8581 -30.8581 -30.8580 -30.8579
     8.4394   8.4394   8.4394   8.4394   9.0292   9.0292   9.0292   9.0292
     9.1949   9.1949   9.1950   9.1950   9.7673   9.7673   9.7673   9.7673
     9.8853   9.8853   9.8854   9.8854  10.1352  10.1352  10.1353  10.1353
    10.3615  10.3615  10.3615  10.3615  10.9548  10.9548  10.9548  10.9548
    11.2366  11.2366  11.2366  11.2366  11.3910  11.3910  11.3910  11.3910
    11.4727  11.4728  11.4728  11.4728  14.3374

          k = 0.2315 0.2315 0.2315 ( 13028 PWs)   bands (ev):

   -61.0356 -61.0207 -61.0207 -61.0205 -61.0059 -61.0059 -61.0057 -60.9912
   -31.0727 -31.0727 -31.0727 -31.0562 -31.0562 -31.0561 -31.0540 -31.0539
   -31.0539 -31.0399 -31.0368 -31.0368 -30.9046 -30.9012 -30.9012 -30.8885
   -30.8885 -30.8884 -30.8864 -30.8863 -30.8863 -30.8729 -30.8729 -30.8729
     7.5553   8.6816   8.6816   8.6816   8.7820   8.7821   8.7821   8.8650
     8.8650   8.9223   9.1356   9.1356   9.1356   9.3819   9.3819   9.4401
     9.4401   9.4401   9.8762   9.8762   9.8762  10.5835  10.5835  10.5835
    10.5997  10.5997  10.5997  10.6162  10.6162  10.6162  11.5578  11.5667
    11.5667  11.6430  11.6430  11.6430  11.6438  11.6438  11.6438  11.8394
    11.8394  12.0545  12.0546  12.0546  13.5992

          k = 0.2315 0.2315 0.3241 ( 13029 PWs)   bands (ev):

   -61.0321 -61.0241 -61.0172 -61.0171 -61.0094 -61.0092 -61.0024 -60.9947
   -31.0686 -31.0686 -31.0593 -31.0593 -31.0522 -31.0499 -31.0430 -31.0408
   -31.0332 -31.0161 -31.0160 -30.9994 -30.9426 -30.9270 -30.9269 -30.9117
   -30.8999 -30.8978 -30.8920 -30.8899 -30.8839 -30.8839 -30.8763 -30.8763
     7.8672   8.5037   8.7651   8.8412   8.8412   8.9178   8.9232   8.9314
     8.9314   9.0658   9.1602   9.3413   9.3413   9.3713   9.3713   9.5163
     9.6232   9.7866   9.8186   9.8891   9.8891  10.2577  10.3682  10.5390
    10.5390  10.5451  10.5451  10.6315  10.6315  10.8268  11.2722  11.2877
    11.2877  11.3294  11.4035  11.4448  11.4450  11.4450  11.5927  11.6859
    11.7093  11.8053  12.3155  12.3155  13.0047

          k = 0.2315 0.2315-0.4167 ( 13042 PWs)   bands (ev):

   -61.0282 -61.0281 -61.0134 -61.0133 -61.0132 -61.0132 -60.9986 -60.9985
   -31.0640 -31.0639 -31.0639 -31.0639 -31.0476 -31.0476 -31.0454 -31.0453
   -30.9880 -30.9879 -30.9717 -30.9717 -30.9716 -30.9716 -30.9558 -30.9558
   -30.8960 -30.8959 -30.8939 -30.8938 -30.8802 -30.8802 -30.8801 -30.8801
     8.1949   8.1949   8.8520   8.8520   8.9544   8.9544   8.9544   8.9544
     8.9923   8.9924   9.3541   9.3541   9.3541   9.3541   9.5276   9.5276
     9.7323   9.7323   9.9224   9.9224  10.2616  10.2616  10.2616  10.2616
    10.5377  10.5377  10.5377  10.5377  10.6856  10.6856  11.0728  11.0728
    11.2626  11.2626  11.2626  11.2626  11.3134  11.3134  11.6289  11.6289
    11.7621  11.7621  12.6126  12.6126  12.6126

          k = 0.2315 0.3241 0.3241 ( 13025 PWs)   bands (ev):

   -61.0286 -61.0207 -61.0206 -61.0137 -61.0128 -61.0060 -61.0058 -60.9981
   -31.0645 -31.0553 -31.0551 -31.0460 -31.0292 -31.0292 -31.0218 -31.0184
   -31.0123 -31.0122 -31.0050 -31.0018 -30.9407 -30.9371 -30.9306 -30.9306
   -30.9249 -30.9218 -30.9153 -30.9153 -30.8953 -30.8875 -30.8874 -30.8797
     8.1611   8.7074   8.7074   8.8815   8.9175   8.9175   8.9811   9.0679
     9.1023   9.2788   9.2788   9.3248   9.3447   9.5840   9.6226   9.7288
     9.7288   9.7921   9.8693   9.8693   9.9408  10.2610  10.2610  10.3598
    10.4331  10.4331  10.4766  10.6840  10.7369  10.7369  11.0605  11.1360
    11.1602  11.2474  11.3051  11.3051  11.3642  11.3642  11.3791  11.4504
    11.4691  11.7131  11.7131  12.3111  12.6066

          k = 0.2315 0.3241-0.4167 ( 13018 PWs)   bands (ev):

   -61.0247 -61.0246 -61.0168 -61.0167 -61.0098 -61.0098 -61.0020 -61.0020
   -31.0599 -31.0598 -31.0506 -31.0506 -31.0247 -31.0247 -31.0079 -31.0078
   -30.9842 -30.9842 -30.9754 -30.9754 -30.9680 -30.9679 -30.9595 -30.9594
   -30.9347 -30.9347 -30.9193 -30.9192 -30.8914 -30.8914 -30.8836 -30.8836
     8.4501   8.4501   8.8365   8.8365   8.9745   8.9745   9.0433   9.0433
     9.2033   9.2033   9.3597   9.3597   9.6393   9.6393   9.6952   9.6952
     9.7746   9.7746  10.0282  10.0282  10.1570  10.1570  10.1895  10.1895
    10.3361  10.3361  10.6105  10.6105  10.7032  10.7032  10.9525  10.9525
    11.1186  11.1186  11.1881  11.1881  11.2919  11.2919  11.3505  11.3505
    11.5014  11.5014  11.9170  11.9170  12.9408

          k = 0.2315-0.4167-0.4167 ( 13032 PWs)   bands (ev):

   -61.0208 -61.0208 -61.0207 -61.0205 -61.0060 -61.0060 -61.0059 -61.0057
   -31.0553 -31.0553 -31.0552 -31.0551 -30.9818 -30.9818 -30.9817 -30.9817
   -30.9779 -30.9779 -30.9778 -30.9778 -30.9656 -30.9655 -30.9655 -30.9655
   -30.9620 -30.9620 -30.9619 -30.9619 -30.8875 -30.8875 -30.8875 -30.8874
     8.6676   8.6677   8.6677   8.6677   9.0495   9.0495   9.0495   9.0495
     9.3343   9.3343   9.3343   9.3343   9.8452   9.8452   9.8452   9.8452
     9.9036   9.9036   9.9036   9.9036  10.1252  10.1252  10.1252  10.1252
    10.4052  10.4052  10.4052  10.4052  10.8370  10.8370  10.8370  10.8370
    11.0941  11.0941  11.0941  11.0941  11.1915  11.1915  11.1915  11.1915
    11.5771  11.5772  11.5772  11.5772  13.3215

          k = 0.3241 0.3241 0.3241 ( 13013 PWs)   bands (ev):

   -61.0251 -61.0173 -61.0173 -61.0171 -61.0094 -61.0094 -61.0092 -61.0015
   -31.0253 -31.0253 -31.0253 -31.0180 -31.0180 -31.0179 -31.0146 -31.0145
   -31.0145 -31.0105 -31.0057 -31.0057 -30.9386 -30.9336 -30.9336 -30.9286
   -30.9286 -30.9285 -30.9255 -30.9254 -30.9254 -30.9188 -30.9188 -30.9188
     8.4418   8.9031   8.9032   8.9032   8.9822   8.9822   8.9822   9.0326
     9.3771   9.3771   9.5107   9.5107   9.5107   9.6848   9.6848   9.6848
     9.8284   9.8284   9.9171   9.9171   9.9171  10.3012  10.3012  10.3012
    10.4848  10.4848  10.4848  10.5901  10.5901  10.5902  11.0446  11.0446
    11.0622  11.0622  11.0622  11.1259  11.1259  11.1653  11.1653  11.1653
    11.4330  11.9046  11.9047  11.9047  12.6472

          k = 0.3241 0.3241-0.4167 ( 13028 PWs)   bands (ev):

   -61.0212 -61.0211 -61.0134 -61.0133 -61.0132 -61.0132 -61.0055 -61.0054
   -31.0209 -31.0209 -31.0208 -31.0208 -31.0135 -31.0135 -31.0102 -31.0101
   -30.9805 -30.9804 -30.9718 -30.9717 -30.9717 -30.9716 -30.9631 -30.9631
   -30.9327 -30.9326 -30.9296 -30.9295 -30.9229 -30.9229 -30.9229 -30.9229
     8.6956   8.6956   8.9892   8.9892   8.9892   8.9892   9.0341   9.0341
     9.4404   9.4404   9.6549   9.6549   9.6549   9.6549   9.7078   9.7078
     9.8731   9.8731  10.0678  10.0678  10.1327  10.1327  10.1327  10.1327
    10.5245  10.5245  10.5246  10.5246  10.6028  10.6028  10.8530  10.8530
    10.9954  10.9954  10.9954  10.9954  11.0391  11.0391  11.1012  11.1012
    11.5490  11.5490  12.1869  12.1869  12.1869

          k = 0.3241-0.4167-0.4167 ( 13024 PWs)   bands (ev):

   -61.0173 -61.0173 -61.0172 -61.0171 -61.0094 -61.0094 -61.0094 -61.0092
   -31.0164 -31.0164 -31.0164 -31.0163 -30.9781 -30.9781 -30.9780 -30.9780
   -30.9742 -30.9742 -30.9741 -30.9741 -30.9693 -30.9692 -30.9692 -30.9692
   -30.9657 -30.9657 -30.9656 -30.9656 -30.9270 -30.9270 -30.9269 -30.9268
     8.8768   8.8768   8.8768   8.8768   9.0473   9.0474   9.0474   9.0474
     9.6042   9.6042   9.6042   9.6042   9.9087   9.9087   9.9087   9.9087
     9.9229   9.9229   9.9229   9.9229  10.0940  10.0940  10.0940  10.0940
    10.5155  10.5155  10.5155  10.5155  10.7247  10.7247  10.7247  10.7247
    10.8773  10.8773  10.8773  10.8773  10.9476  10.9476  10.9476  10.9476
    11.7473  11.7473  11.7473  11.7473  12.5387

          k =-0.4167-0.4167-0.4167 ( 13096 PWs)   bands (ev):

   -61.0135 -61.0135 -61.0135 -61.0133 -61.0133 -61.0133 -61.0132 -61.0130
   -30.9756 -30.9755 -30.9755 -30.9755 -30.9755 -30.9755 -30.9755 -30.9755
   -30.9701 -30.9701 -30.9701 -30.9700 -30.9700 -30.9700 -30.9700 -30.9700
   -30.9700 -30.9700 -30.9699 -30.9699 -30.9699 -30.9699 -30.9699 -30.9699
     8.9978   8.9978   8.9978   8.9978   8.9978   8.9978   8.9978   8.9978
     9.9309   9.9309   9.9309   9.9309   9.9309   9.9309   9.9309   9.9309
     9.9309   9.9309   9.9309   9.9309   9.9309   9.9309   9.9309   9.9309
    10.7065  10.7065  10.7065  10.7065  10.7065  10.7065  10.7065  10.7065
    10.7065  10.7065  10.7065  10.7065  10.7065  10.7065  10.7065  10.7065
    12.0354  12.0355  12.0355  12.0355  12.0355

     the Fermi energy is    11.2645 ev

!    total energy              =   -3451.99573947 Ry

     total all-electron energy =    -72496.093324 Ry
     estimated scf accuracy    <       0.00000037 Ry
     smearing contrib. (-TS)   =      -0.02401276 Ry
     internal energy E=F+TS    =   -3451.97172671 Ry

     The total energy is F=E-TS. E is the sum of the following terms:
     one-electron contribution =    -618.95611732 Ry
     hartree contribution      =     361.19470492 Ry
     xc contribution           =    -229.42042749 Ry
     ewald contribution        =   -1067.53109163 Ry
     one-center paw contrib.   =   -1897.25879519 Ry

     convergence has been achieved in  10 iterations

     Forces acting on atoms (cartesian axes, Ry/au):

     atom    1 type  1   force =     0.00000000    0.00000000    0.00000000
     atom    2 type  1   force =     0.00000000    0.00000000    0.00000000
     atom    3 type  1   force =     0.00000000    0.00000000    0.00000000
     atom    4 type  1   force =     0.00000000    0.00000000    0.00000000
     atom    5 type  1   force =     0.00000000    0.00000000    0.00000000
     atom    6 type  1   force =     0.00000000    0.00000000    0.00000000
     atom    7 type  1   force =     0.00000000    0.00000000    0.00000000
     atom    8 type  1   force =     0.00000000    0.00000000    0.00000000

     Total force =     0.000000     Total SCF correction =     0.000000


     Computing stress (Cartesian axis) and pressure

          total   stress  (Ry/bohr**3)                   (kbar)     P=     -330.85
  -0.00224910   0.00000000   0.00000000         -330.85        0.00        0.00
   0.00000000  -0.00224910   0.00000000            0.00     -330.85        0.00
   0.00000000   0.00000000  -0.00224910            0.00        0.00     -330.85


     Writing output data file /scratch/BGCEfmbGXtxIoMlh.save/
 
     init_run     :      1.62s CPU      1.82s WALL (       1 calls)
     electrons    :     36.54s CPU     37.59s WALL (       1 calls)
     forces       :      0.34s CPU      0.36s WALL (       1 calls)
     stress       :      0.55s CPU      0.57s WALL (       1 calls)

     Called by init_run:
     wfcinit      :      1.03s CPU      1.18s WALL (       1 calls)
     potinit      :      0.11s CPU      0.12s WALL (       1 calls)
     hinit0       :      0.17s CPU      0.18s WALL (       1 calls)

     Called by electrons:
     c_bands      :     31.87s CPU     32.65s WALL (      11 calls)
     sum_band     :      3.68s CPU      3.84s WALL (      11 calls)
     v_of_rho     :      0.06s CPU      0.07s WALL (      11 calls)
     newd         :      0.15s CPU      0.20s WALL (      11 calls)
     PAW_pot      :      0.64s CPU      0.68s WALL (      11 calls)
     mix_rho      :      0.02s CPU      0.03s WALL (      11 calls)

     Called by c_bands:
     init_us_2    :      0.10s CPU      0.11s WALL (     875 calls)
     cegterg      :     31.22s CPU     31.98s WALL (     385 calls)

     Called by *egterg:
     cdiaghg      :      7.09s CPU      7.37s WALL (    1302 calls)
     h_psi        :     17.11s CPU     17.57s WALL (    1372 calls)
     s_psi        :      0.32s CPU      0.33s WALL (    1372 calls)
     g_psi        :      0.03s CPU      0.03s WALL (     952 calls)

     Called by h_psi:
     h_psi:calbec :      1.53s CPU      1.56s WALL (    1372 calls)
     vloc_psi     :     15.05s CPU     15.49s WALL (    1372 calls)
     add_vuspsi   :      0.46s CPU      0.46s WALL (    1372 calls)

     General routines
     calbec       :      2.36s CPU      2.39s WALL (    1932 calls)
     fft          :      0.11s CPU      0.11s WALL (     167 calls)
     ffts         :      0.03s CPU      0.03s WALL (      22 calls)
     fftw         :     17.31s CPU     17.82s WALL (  179269 calls)
     interpolate  :      0.05s CPU      0.05s WALL (      11 calls)
 
     Parallel routines
     fft_scatt_xy :      1.00s CPU      1.03s WALL (  179458 calls)
     fft_scatt_yz :     14.75s CPU     15.18s WALL (  179458 calls)
 
     PWSCF        :     43.08s CPU     44.83s WALL

 
   This run was terminated on:   1:17:21  26Nov2021            

=------------------------------------------------------------------------------=
   JOB DONE.
=------------------------------------------------------------------------------=
