
     Program PWSCF v.6.7MaX starts on 26Nov2021 at  1:19:46 

     This program is part of the open-source Quantum ESPRESSO suite
     for quantum simulation of materials; please cite
         "P. Giannozzi et al., J. Phys.:Condens. Matter 21 395502 (2009);
         "P. Giannozzi et al., J. Phys.:Condens. Matter 29 465901 (2017);
          URL http://www.quantum-espresso.org", 
     in publications or presentations arising from this work. More details at
     http://www.quantum-espresso.org/quote

     Parallel version (MPI & OpenMP), running on      72 processor cores
     Number of MPI processes:                72
     Threads/MPI process:                     1

     MPI processes distributed on     1 nodes
     R & G space division:  proc/nbgrp/npool/nimage =      72
     Reading input from sc_5.in
Warning: card &CELL ignored
Warning: card CELL_DYNAMICS = 'BFGS', ignored
Warning: card CELL_FACTOR = 2.0, ignored
Warning: card PRESS = 0.0, ignored
Warning: card / ignored

     Current dimensions of program PWSCF are:
     Max number of different atomic species (ntypx) = 10
     Max number of k-points (npk) =  40000
     Max angular momentum in pseudopotentials (lmaxx) =  3
     file Ru.pbe-spn-kjpaw_psl.1.0.0.UPF: wavefunction(s)  4D renormalized

     Subspace diagonalization in iterative solution of the eigenvalue problem:
     one sub-group per band group will be used
     ELPA distributed-memory algorithm (size of sub-group:  8*  8 procs)

     Found symmetry operation: I + (  0.0000  0.0000 -0.5000)
     This is a supercell, fractional translations are disabled
     Message from routine setup:
     using ibrav=0 with symmetry is DISCOURAGED, use correct ibrav instead
 
     Parallelization info
     --------------------
     sticks:   dense  smooth     PW     G-vecs:    dense   smooth      PW
     Min          76      50     13                 4280     2296     327
     Max          77      52     14                 4287     2299     334
     Sum        5513    3657   1005               308371   165381   23871
 


     bravais-lattice index     =            0
     lattice parameter (alat)  =       9.0720  a.u.
     unit-cell volume          =    2048.7701 (a.u.)^3
     number of atoms/cell      =            8
     number of atomic types    =            1
     number of electrons       =       128.00
     number of Kohn-Sham states=           77
     kinetic-energy cutoff     =      71.0000  Ry
     charge density cutoff     =     430.0000  Ry
     scf convergence threshold =      1.0E-06
     mixing beta               =       0.1000
     number of iterations used =           10  TF        mixing
     Exchange-correlation= SLA  PW   PBX  PBC
                           (   1   4   3   4   0   0   0)

     celldm(1)=   9.072000  celldm(2)=   0.000000  celldm(3)=   0.000000
     celldm(4)=   0.000000  celldm(5)=   0.000000  celldm(6)=   0.000000

     crystal axes: (cart. coord. in units of alat)
               a(1) = (   1.400000   0.000000   0.000000 )  
               a(2) = (   0.000000   1.400000   0.000000 )  
               a(3) = (   0.000000   0.000000   1.400000 )  

     reciprocal axes: (cart. coord. in units 2 pi/alat)
               b(1) = (  0.714286  0.000000  0.000000 )  
               b(2) = (  0.000000  0.714286  0.000000 )  
               b(3) = (  0.000000  0.000000  0.714286 )  


     PseudoPot. # 1 for Ru read from file:
     /rds/homes/b/bxp912/pp/Ru.pbe-spn-kjpaw_psl.1.0.0.UPF
     MD5 check sum: 0ae1f594dea09af7be8575c3a481d1ae
     Pseudo is Projector augmented-wave + core cor, Zval = 16.0
     Generated using "atomic" code by A. Dal Corso  v.5.1
     Shape of augmentation charge: PSQ
     Using radial grid of 1233 points,  6 beta functions with: 
                l(1) =   0
                l(2) =   0
                l(3) =   1
                l(4) =   1
                l(5) =   2
                l(6) =   2
     Q(r) pseudized with 0 coefficients 


     atomic species   valence    mass     pseudopotential
        Ru            16.00   101.07000     Ru( 1.00)

     48 Sym. Ops., with inversion, found



   Cartesian axes

     site n.     atom                  positions (alat units)
         1           Ru  tau(   1) = (   0.0000000   0.0000000   0.0000000  )
         2           Ru  tau(   2) = (   0.0000000   0.0000000   0.7000000  )
         3           Ru  tau(   3) = (   0.0000000   0.7000000   0.0000000  )
         4           Ru  tau(   4) = (   0.0000000   0.7000000   0.7000000  )
         5           Ru  tau(   5) = (   0.7000000   0.0000000   0.0000000  )
         6           Ru  tau(   6) = (   0.7000000   0.0000000   0.7000000  )
         7           Ru  tau(   7) = (   0.7000000   0.7000000   0.0000000  )
         8           Ru  tau(   8) = (   0.7000000   0.7000000   0.7000000  )

     number of k points=    35  Marzari-Vanderbilt smearing, width (Ry)=  0.0400
                       cart. coord. in units 2pi/alat
        k(    1) = (   0.0396825   0.0396825   0.0396825), wk =   0.0219479
        k(    2) = (   0.0396825   0.0396825   0.1190476), wk =   0.0658436
        k(    3) = (   0.0396825   0.0396825   0.1984127), wk =   0.0658436
        k(    4) = (   0.0396825   0.0396825   0.2777778), wk =   0.0658436
        k(    5) = (   0.0396825   0.0396825  -0.3571429), wk =   0.0329218
        k(    6) = (   0.0396825   0.1190476   0.1190476), wk =   0.0658436
        k(    7) = (   0.0396825   0.1190476   0.1984127), wk =   0.1316872
        k(    8) = (   0.0396825   0.1190476   0.2777778), wk =   0.1316872
        k(    9) = (   0.0396825   0.1190476  -0.3571429), wk =   0.0658436
        k(   10) = (   0.0396825   0.1984127   0.1984127), wk =   0.0658436
        k(   11) = (   0.0396825   0.1984127   0.2777778), wk =   0.1316872
        k(   12) = (   0.0396825   0.1984127  -0.3571429), wk =   0.0658436
        k(   13) = (   0.0396825   0.2777778   0.2777778), wk =   0.0658436
        k(   14) = (   0.0396825   0.2777778  -0.3571429), wk =   0.0658436
        k(   15) = (   0.0396825  -0.3571429  -0.3571429), wk =   0.0164609
        k(   16) = (   0.1190476   0.1190476   0.1190476), wk =   0.0219479
        k(   17) = (   0.1190476   0.1190476   0.1984127), wk =   0.0658436
        k(   18) = (   0.1190476   0.1190476   0.2777778), wk =   0.0658436
        k(   19) = (   0.1190476   0.1190476  -0.3571429), wk =   0.0329218
        k(   20) = (   0.1190476   0.1984127   0.1984127), wk =   0.0658436
        k(   21) = (   0.1190476   0.1984127   0.2777778), wk =   0.1316872
        k(   22) = (   0.1190476   0.1984127  -0.3571429), wk =   0.0658436
        k(   23) = (   0.1190476   0.2777778   0.2777778), wk =   0.0658436
        k(   24) = (   0.1190476   0.2777778  -0.3571429), wk =   0.0658436
        k(   25) = (   0.1190476  -0.3571429  -0.3571429), wk =   0.0164609
        k(   26) = (   0.1984127   0.1984127   0.1984127), wk =   0.0219479
        k(   27) = (   0.1984127   0.1984127   0.2777778), wk =   0.0658436
        k(   28) = (   0.1984127   0.1984127  -0.3571429), wk =   0.0329218
        k(   29) = (   0.1984127   0.2777778   0.2777778), wk =   0.0658436
        k(   30) = (   0.1984127   0.2777778  -0.3571429), wk =   0.0658436
        k(   31) = (   0.1984127  -0.3571429  -0.3571429), wk =   0.0164609
        k(   32) = (   0.2777778   0.2777778   0.2777778), wk =   0.0219479
        k(   33) = (   0.2777778   0.2777778  -0.3571429), wk =   0.0329218
        k(   34) = (   0.2777778  -0.3571429  -0.3571429), wk =   0.0164609
        k(   35) = (  -0.3571429  -0.3571429  -0.3571429), wk =   0.0027435

     Dense  grid:   308371 G-vectors     FFT dimensions: (  90,  90,  90)

     Smooth grid:   165381 G-vectors     FFT dimensions: (  72,  72,  72)

     Estimated max dynamical RAM per process >      31.25 MB

     Estimated total dynamical RAM >       2.20 GB

     Check: negative core charge=   -0.000002

     Initial potential from superposition of free atoms

     starting charge  127.99490, renormalised to  128.00000
     Starting wfcs are   80 randomized atomic wfcs
     Checking if some PAW data can be deallocated... 

     total cpu time spent up to now is        5.5 secs

     Self-consistent Calculation

     iteration #  1     ecut=    71.00 Ry     beta= 0.10
     Davidson diagonalization with overlap
     ethr =  1.00E-02,  avg # of iterations =  2.5

     Threshold (ethr) on eigenvalues was too large:
     Diagonalizing with lowered threshold

     Davidson diagonalization with overlap
     ethr =  7.62E-04,  avg # of iterations =  2.3

     total cpu time spent up to now is       14.4 secs

     total energy              =   -3450.67435216 Ry
     estimated scf accuracy    <       0.75286577 Ry

     iteration #  2     ecut=    71.00 Ry     beta= 0.10
     Davidson diagonalization with overlap
     ethr =  5.88E-04,  avg # of iterations =  1.3

     total cpu time spent up to now is       18.1 secs

     total energy              =   -3450.56568866 Ry
     estimated scf accuracy    <       0.47928994 Ry

     iteration #  3     ecut=    71.00 Ry     beta= 0.10
     Davidson diagonalization with overlap
     ethr =  3.74E-04,  avg # of iterations =  2.7

     total cpu time spent up to now is       23.0 secs

     total energy              =   -3450.58920213 Ry
     estimated scf accuracy    <       0.17338115 Ry

     iteration #  4     ecut=    71.00 Ry     beta= 0.10
     Davidson diagonalization with overlap
     ethr =  1.35E-04,  avg # of iterations =  2.8

     total cpu time spent up to now is       28.0 secs

     total energy              =   -3450.59908149 Ry
     estimated scf accuracy    <       0.01579924 Ry

     iteration #  5     ecut=    71.00 Ry     beta= 0.10
     Davidson diagonalization with overlap
     ethr =  1.23E-05,  avg # of iterations =  4.0

     total cpu time spent up to now is       33.9 secs

     total energy              =   -3450.59551152 Ry
     estimated scf accuracy    <       0.01208799 Ry

     iteration #  6     ecut=    71.00 Ry     beta= 0.10
     Davidson diagonalization with overlap
     ethr =  9.44E-06,  avg # of iterations =  2.0

     total cpu time spent up to now is       38.2 secs

     total energy              =   -3450.59611399 Ry
     estimated scf accuracy    <       0.01036234 Ry

     iteration #  7     ecut=    71.00 Ry     beta= 0.10
     Davidson diagonalization with overlap
     ethr =  8.10E-06,  avg # of iterations =  1.1

     total cpu time spent up to now is       42.5 secs

     total energy              =   -3450.59625354 Ry
     estimated scf accuracy    <       0.00356069 Ry

     iteration #  8     ecut=    71.00 Ry     beta= 0.10
     Davidson diagonalization with overlap
     ethr =  2.78E-06,  avg # of iterations =  1.5

     total cpu time spent up to now is       47.0 secs

     total energy              =   -3450.59581404 Ry
     estimated scf accuracy    <       0.00350648 Ry

     iteration #  9     ecut=    71.00 Ry     beta= 0.10
     Davidson diagonalization with overlap
     ethr =  2.74E-06,  avg # of iterations =  2.1

     total cpu time spent up to now is       53.1 secs

     total energy              =   -3450.59714234 Ry
     estimated scf accuracy    <       0.00426785 Ry

     iteration # 10     ecut=    71.00 Ry     beta= 0.10
     Davidson diagonalization with overlap
     ethr =  2.74E-06,  avg # of iterations =  2.7

     total cpu time spent up to now is       59.2 secs

     total energy              =   -3450.59651083 Ry
     estimated scf accuracy    <       0.00542236 Ry

     iteration # 11     ecut=    71.00 Ry     beta= 0.10
     Davidson diagonalization with overlap
     ethr =  2.74E-06,  avg # of iterations =  1.2

     total cpu time spent up to now is       63.9 secs

     total energy              =   -3450.59561810 Ry
     estimated scf accuracy    <       0.00222998 Ry

     iteration # 12     ecut=    71.00 Ry     beta= 0.10
     Davidson diagonalization with overlap
     ethr =  1.74E-06,  avg # of iterations =  3.5

     total cpu time spent up to now is       70.4 secs

     total energy              =   -3450.59669504 Ry
     estimated scf accuracy    <       0.00131513 Ry

     iteration # 13     ecut=    71.00 Ry     beta= 0.10
     Davidson diagonalization with overlap
     ethr =  1.03E-06,  avg # of iterations =  1.0

     total cpu time spent up to now is       74.8 secs

     total energy              =   -3450.59670827 Ry
     estimated scf accuracy    <       0.00139045 Ry

     iteration # 14     ecut=    71.00 Ry     beta= 0.10
     Davidson diagonalization with overlap
     ethr =  1.03E-06,  avg # of iterations =  1.0

     total cpu time spent up to now is       79.0 secs

     total energy              =   -3450.59631480 Ry
     estimated scf accuracy    <       0.00153943 Ry

     iteration # 15     ecut=    71.00 Ry     beta= 0.10
     Davidson diagonalization with overlap
     ethr =  1.03E-06,  avg # of iterations =  2.0

     total cpu time spent up to now is       83.8 secs

     total energy              =   -3450.59637349 Ry
     estimated scf accuracy    <       0.00019576 Ry

     iteration # 16     ecut=    71.00 Ry     beta= 0.10
     Davidson diagonalization with overlap
     ethr =  1.53E-07,  avg # of iterations =  3.6

     total cpu time spent up to now is       88.9 secs

     total energy              =   -3450.59638470 Ry
     estimated scf accuracy    <       0.00003312 Ry

     iteration # 17     ecut=    71.00 Ry     beta= 0.10
     Davidson diagonalization with overlap
     ethr =  2.59E-08,  avg # of iterations =  3.3

     total cpu time spent up to now is       95.0 secs

     total energy              =   -3450.59639010 Ry
     estimated scf accuracy    <       0.00000154 Ry

     iteration # 18     ecut=    71.00 Ry     beta= 0.10
     Davidson diagonalization with overlap
     ethr =  1.20E-09,  avg # of iterations =  5.5

     total cpu time spent up to now is      102.7 secs

     total energy              =   -3450.59639047 Ry
     estimated scf accuracy    <       0.00000644 Ry

     iteration # 19     ecut=    71.00 Ry     beta= 0.10
     Davidson diagonalization with overlap
     ethr =  1.20E-09,  avg # of iterations =  3.1

     total cpu time spent up to now is      108.5 secs

     total energy              =   -3450.59639104 Ry
     estimated scf accuracy    <       0.00000124 Ry

     iteration # 20     ecut=    71.00 Ry     beta= 0.10
     Davidson diagonalization with overlap
     ethr =  9.66E-10,  avg # of iterations =  2.0

     total cpu time spent up to now is      114.1 secs

     End of self-consistent calculation

          k = 0.0397 0.0397 0.0397 ( 20614 PWs)   bands (ev):

   -66.6554 -66.6529 -66.6529 -66.6529 -66.6504 -66.6504 -66.6504 -66.6478
   -36.6577 -36.6577 -36.6577 -36.6537 -36.6537 -36.6537 -36.6537 -36.6536
   -36.6536 -36.6497 -36.6496 -36.6496 -36.6117 -36.6116 -36.6116 -36.6083
   -36.6083 -36.6083 -36.6083 -36.6083 -36.6083 -36.6050 -36.6050 -36.6050
     2.2158   3.6038   3.6038   3.6038   3.7004   3.7004   3.7126   3.7126
     3.7126   3.8861   3.8862   3.8862   4.0252   4.0345   4.0345   4.0433
     4.0433   4.0433   4.8979   4.8979   4.8979   4.9200   4.9200   4.9200
     5.0189   5.0189   5.0189   5.0201   5.0201   5.0201   5.4973   5.4994
     5.4994   5.5517   5.5517   5.5517   5.9585   5.9586   5.9586   6.0040
     6.0040   6.3757   6.3757   6.3757   7.6981

          k = 0.0397 0.0397 0.1190 ( 20659 PWs)   bands (ev):

   -66.6552 -66.6531 -66.6528 -66.6527 -66.6505 -66.6505 -66.6502 -66.6480
   -36.6575 -36.6575 -36.6550 -36.6539 -36.6539 -36.6534 -36.6534 -36.6510
   -36.6510 -36.6499 -36.6499 -36.6470 -36.6145 -36.6115 -36.6114 -36.6111
   -36.6111 -36.6085 -36.6085 -36.6081 -36.6081 -36.6077 -36.6052 -36.6052
     2.3056   3.5392   3.6773   3.6773   3.7113   3.7307   3.7516   3.7593
     3.7593   3.8745   3.9361   3.9361   4.0087   4.0271   4.0271   4.0773
     4.0810   4.1408   4.7705   4.7705   4.9217   4.9217   4.9254   4.9392
     4.9403   4.9520   5.0130   5.0130   5.0489   5.0489   5.4596   5.4610
     5.5021   5.5172   5.5172   5.5485   5.7779   5.8044   5.8044   5.8598
     5.9623   6.0017   6.5392   6.5392   7.7383

          k = 0.0397 0.0397 0.1984 ( 20680 PWs)   bands (ev):

   -66.6550 -66.6533 -66.6525 -66.6525 -66.6508 -66.6508 -66.6499 -66.6483
   -36.6570 -36.6570 -36.6544 -36.6544 -36.6530 -36.6530 -36.6504 -36.6503
   -36.6498 -36.6459 -36.6459 -36.6419 -36.6198 -36.6163 -36.6162 -36.6127
   -36.6111 -36.6111 -36.6089 -36.6089 -36.6078 -36.6078 -36.6056 -36.6056
     2.4768   3.4094   3.7317   3.7650   3.7735   3.7735   3.8508   3.8508
     3.8529   3.8577   3.9714   3.9968   3.9968   4.0795   4.0795   4.1675
     4.1714   4.3292   4.5732   4.5732   4.8006   4.8014   4.9331   4.9331
     4.9481   5.0011   5.0011   5.0129   5.1040   5.1040   5.2176   5.3895
     5.3902   5.4534   5.4534   5.5080   5.5117   5.5117   5.5425   5.5998
     5.9685   5.9972   6.7937   6.7937   7.8280

          k = 0.0397 0.0397 0.2778 ( 20674 PWs)   bands (ev):

   -66.6546 -66.6537 -66.6521 -66.6521 -66.6512 -66.6512 -66.6496 -66.6487
   -36.6564 -36.6564 -36.6550 -36.6550 -36.6524 -36.6523 -36.6510 -36.6509
   -36.6428 -36.6390 -36.6389 -36.6352 -36.6269 -36.6232 -36.6231 -36.6196
   -36.6106 -36.6106 -36.6094 -36.6094 -36.6072 -36.6072 -36.6061 -36.6061
     2.7098   3.2156   3.7596   3.8120   3.8240   3.8456   3.8456   3.9217
     3.9483   3.9483   3.9911   3.9911   4.0288   4.2961   4.3003   4.3189
     4.3189   4.3921   4.3921   4.5817   4.6321   4.6423   4.6457   4.9488
     4.9488   4.9850   4.9850   5.0970   5.1074   5.1074   5.1129   5.2012
     5.2012   5.2708   5.2975   5.2980   5.3696   5.3696   5.5160   5.5344
     5.9760   5.9910   7.0737   7.0737   7.6169

          k = 0.0397 0.0397-0.3571 ( 20672 PWs)   bands (ev):

   -66.6541 -66.6541 -66.6517 -66.6516 -66.6516 -66.6516 -66.6491 -66.6491
   -36.6557 -36.6557 -36.6557 -36.6557 -36.6517 -36.6517 -36.6516 -36.6516
   -36.6348 -36.6348 -36.6311 -36.6311 -36.6310 -36.6310 -36.6274 -36.6274
   -36.6100 -36.6100 -36.6100 -36.6100 -36.6067 -36.6067 -36.6067 -36.6067
     2.9708   2.9708   3.7916   3.7916   3.8663   3.8663   3.9024   3.9024
     3.9024   3.9024   4.1567   4.1567   4.1567   4.1567   4.2841   4.2841
     4.4536   4.4536   4.4585   4.4585   4.7175   4.7176   4.7176   4.7176
     4.9236   4.9236   4.9669   4.9669   4.9669   4.9669   5.1956   5.1956
     5.1991   5.1991   5.2775   5.2775   5.2776   5.2776   5.5252   5.5252
     5.9837   5.9837   7.3444   7.3444   7.3444

          k = 0.0397 0.1190 0.1190 ( 20674 PWs)   bands (ev):

   -66.6551 -66.6529 -66.6529 -66.6526 -66.6507 -66.6504 -66.6504 -66.6481
   -36.6572 -36.6547 -36.6547 -36.6537 -36.6537 -36.6513 -36.6512 -36.6507
   -36.6507 -36.6501 -36.6472 -36.6471 -36.6144 -36.6142 -36.6113 -36.6113
   -36.6113 -36.6110 -36.6109 -36.6083 -36.6083 -36.6079 -36.6079 -36.6054
     2.3957   3.6141   3.6141   3.7426   3.7639   3.7770   3.7770   3.7818
     3.8019   3.9225   3.9225   3.9717   4.0114   4.0298   4.0845   4.1239
     4.1239   4.1247   4.7172   4.7940   4.7940   4.8631   4.9323   4.9323
     4.9533   4.9533   4.9696   4.9696   5.0378   5.0474   5.4212   5.4582
     5.4696   5.4813   5.5137   5.5137   5.6871   5.7957   5.8149   5.8149
     5.9130   5.9130   5.9234   6.6862   7.7847

          k = 0.0397 0.1190 0.1984 ( 20703 PWs)   bands (ev):

   -66.6548 -66.6532 -66.6526 -66.6523 -66.6510 -66.6507 -66.6501 -66.6485
   -36.6568 -36.6543 -36.6541 -36.6532 -36.6517 -36.6506 -36.6503 -36.6496
   -36.6477 -36.6461 -36.6456 -36.6422 -36.6196 -36.6164 -36.6160 -36.6139
   -36.6130 -36.6117 -36.6109 -36.6105 -36.6087 -36.6083 -36.6080 -36.6058
     2.5672   3.4874   3.7201   3.7706   3.8103   3.8675   3.8773   3.8793
     3.8800   3.8984   3.9873   4.0071   4.0516   4.0929   4.0949   4.1612
     4.2122   4.3101   4.5599   4.6071   4.7923   4.8027   4.8345   4.8494
     4.9185   4.9643   5.0129   5.0215   5.0301   5.0986   5.3498   5.3566
     5.3928   5.4153   5.4448   5.4496   5.4713   5.5077   5.5375   5.5694
     5.8303   5.8905   6.1061   6.9198   7.2111

          k = 0.0397 0.1190 0.2778 ( 20682 PWs)   bands (ev):

   -66.6544 -66.6536 -66.6522 -66.6519 -66.6514 -66.6511 -66.6497 -66.6488
   -36.6561 -36.6547 -36.6537 -36.6526 -36.6523 -36.6512 -36.6497 -36.6483
   -36.6425 -36.6392 -36.6387 -36.6354 -36.6266 -36.6234 -36.6229 -36.6198
   -36.6134 -36.6122 -36.6104 -36.6100 -36.6092 -36.6088 -36.6075 -36.6063
     2.7998   3.2984   3.8004   3.8047   3.8558   3.8675   3.9135   3.9477
     3.9613   3.9960   4.0331   4.0467   4.0542   4.2500   4.2876   4.3261
     4.3364   4.3986   4.4671   4.5483   4.6137   4.6258   4.6927   4.8611
     4.9002   4.9796   5.0146   5.0297   5.0807   5.0897   5.1360   5.1916
     5.2352   5.2524   5.2583   5.3016   5.3299   5.3653   5.4796   5.4989
     5.8463   5.8754   6.3187   6.8303   7.1789

          k = 0.0397 0.1190-0.3571 ( 20690 PWs)   bands (ev):

   -66.6540 -66.6540 -66.6518 -66.6518 -66.6515 -66.6515 -66.6493 -66.6493
   -36.6554 -36.6554 -36.6530 -36.6530 -36.6519 -36.6519 -36.6490 -36.6490
   -36.6346 -36.6346 -36.6313 -36.6313 -36.6308 -36.6308 -36.6276 -36.6276
   -36.6128 -36.6128 -36.6098 -36.6098 -36.6094 -36.6094 -36.6069 -36.6069
     3.0583   3.0583   3.8336   3.8336   3.8676   3.8677   3.9082   3.9083
     4.0003   4.0003   4.1672   4.1672   4.1754   4.1754   4.2946   4.2946
     4.4446   4.4446   4.4865   4.4865   4.7099   4.7099   4.7195   4.7195
     4.8799   4.8799   4.9140   4.9140   4.9971   4.9971   5.1644   5.1644
     5.2027   5.2027   5.2418   5.2418   5.2727   5.2727   5.4892   5.4892
     5.8614   5.8614   6.5505   6.5506   7.4341

          k = 0.0397 0.1984 0.1984 ( 20683 PWs)   bands (ev):

   -66.6545 -66.6529 -66.6529 -66.6520 -66.6513 -66.6504 -66.6504 -66.6487
   -36.6563 -36.6537 -36.6537 -36.6511 -36.6491 -36.6491 -36.6466 -36.6464
   -36.6452 -36.6452 -36.6428 -36.6425 -36.6193 -36.6190 -36.6168 -36.6168
   -36.6157 -36.6155 -36.6133 -36.6133 -36.6105 -36.6083 -36.6083 -36.6062
     2.7385   3.6095   3.6095   3.8303   3.8986   3.8986   3.8990   3.9436
     4.0066   4.0105   4.0105   4.0452   4.0615   4.1407   4.1795   4.2768
     4.2768   4.2936   4.4988   4.6404   4.6404   4.7577   4.7763   4.7763
     4.8901   4.8901   5.0230   5.0230   5.0758   5.0964   5.2776   5.2921
     5.3462   5.3880   5.4140   5.4411   5.4411   5.4567   5.5118   5.5118
     5.5709   5.5709   5.7496   6.5900   7.1225

          k = 0.0397 0.1984 0.2778 ( 20712 PWs)   bands (ev):

   -66.6542 -66.6533 -66.6525 -66.6517 -66.6516 -66.6508 -66.6500 -66.6491
   -36.6557 -36.6543 -36.6531 -36.6517 -36.6485 -36.6471 -36.6446 -36.6432
   -36.6421 -36.6396 -36.6383 -36.6358 -36.6262 -36.6238 -36.6225 -36.6202
   -36.6186 -36.6174 -36.6151 -36.6139 -36.6100 -36.6089 -36.6079 -36.6067
     2.9677   3.4395   3.7205   3.8636   3.8800   3.9403   3.9666   4.0247
     4.0296   4.0889   4.0941   4.1424   4.1858   4.2357   4.2789   4.3323
     4.4080   4.4100   4.5131   4.5309   4.5634   4.6090   4.7285   4.7560
     4.7561   4.9207   5.0130   5.0375   5.0711   5.0936   5.1706   5.1771
     5.1886   5.2027   5.2596   5.2691   5.3081   5.3570   5.4130   5.4337
     5.6032   5.6733   5.6742   6.1468   7.3506

          k = 0.0397 0.1984-0.3571 ( 20732 PWs)   bands (ev):

   -66.6537 -66.6537 -66.6521 -66.6521 -66.6512 -66.6512 -66.6496 -66.6496
   -36.6550 -36.6550 -36.6524 -36.6524 -36.6479 -36.6478 -36.6439 -36.6439
   -36.6342 -36.6342 -36.6318 -36.6317 -36.6304 -36.6304 -36.6280 -36.6280
   -36.6180 -36.6180 -36.6145 -36.6145 -36.6095 -36.6094 -36.6073 -36.6073
     3.2164   3.2164   3.8024   3.8024   3.9232   3.9233   3.9871   3.9871
     4.1672   4.1672   4.2004   4.2004   4.2040   4.2040   4.3176   4.3176
     4.4290   4.4290   4.5399   4.5399   4.6925   4.6925   4.7190   4.7190
     4.7370   4.7370   4.8924   4.8924   5.0540   5.0540   5.1119   5.1119
     5.1850   5.1850   5.2113   5.2114   5.2636   5.2636   5.4230   5.4230
     5.6351   5.6352   5.8669   5.8669   7.5867

          k = 0.0397 0.2778 0.2778 ( 20732 PWs)   bands (ev):

   -66.6538 -66.6529 -66.6529 -66.6520 -66.6513 -66.6504 -66.6504 -66.6495
   -36.6551 -36.6537 -36.6537 -36.6523 -36.6416 -36.6416 -36.6404 -36.6401
   -36.6377 -36.6377 -36.6365 -36.6362 -36.6258 -36.6255 -36.6244 -36.6244
   -36.6222 -36.6218 -36.6208 -36.6208 -36.6095 -36.6084 -36.6084 -36.6072
     3.1851   3.5887   3.5887   3.7962   3.9801   4.0579   4.0579   4.0868
     4.1247   4.1247   4.1657   4.1836   4.2937   4.3096   4.3873   4.4568
     4.4771   4.4771   4.5064   4.5277   4.5277   4.5904   4.5904   4.6193
     4.8045   4.8045   4.8701   5.0741   5.1078   5.1078   5.1087   5.1305
     5.1764   5.1780   5.2290   5.2290   5.3033   5.3069   5.3069   5.3398
     5.3493   5.3493   5.4729   5.6346   7.5523

          k = 0.0397 0.2778-0.3571 ( 20730 PWs)   bands (ev):

   -66.6533 -66.6533 -66.6525 -66.6525 -66.6508 -66.6508 -66.6499 -66.6499
   -36.6544 -36.6544 -36.6530 -36.6530 -36.6409 -36.6409 -36.6370 -36.6370
   -36.6336 -36.6336 -36.6323 -36.6323 -36.6299 -36.6298 -36.6286 -36.6285
   -36.6250 -36.6250 -36.6214 -36.6214 -36.6089 -36.6089 -36.6078 -36.6078
     3.4059   3.4059   3.7075   3.7075   4.0612   4.0612   4.0873   4.0874
     4.1908   4.1908   4.2125   4.2126   4.3671   4.3671   4.4220   4.4220
     4.4414   4.4414   4.5827   4.5828   4.6063   4.6063   4.6411   4.6411
     4.7071   4.7071   4.8435   4.8435   5.0649   5.0649   5.1262   5.1262
     5.1395   5.1395   5.2226   5.2227   5.2498   5.2498   5.3373   5.3373
     5.3570   5.3570   5.3619   5.3619   7.7800

          k = 0.0397-0.3571-0.3571 ( 20748 PWs)   bands (ev):

   -66.6529 -66.6529 -66.6529 -66.6529 -66.6504 -66.6504 -66.6504 -66.6504
   -36.6537 -36.6537 -36.6537 -36.6537 -36.6332 -36.6332 -36.6332 -36.6332
   -36.6328 -36.6328 -36.6328 -36.6328 -36.6294 -36.6294 -36.6294 -36.6293
   -36.6290 -36.6290 -36.6290 -36.6290 -36.6084 -36.6084 -36.6084 -36.6084
     3.5770   3.5770   3.5770   3.5770   4.1688   4.1688   4.1688   4.1688
     4.1806   4.1806   4.1806   4.1807   4.4599   4.4599   4.4599   4.4599
     4.4966   4.4966   4.4966   4.4966   4.6616   4.6616   4.6616   4.6616
     4.7083   4.7083   4.7083   4.7083   5.0822   5.0822   5.0822   5.0822
     5.1702   5.1702   5.1702   5.1702   5.2273   5.2273   5.2273   5.2273
     5.2568   5.2568   5.2568   5.2568   8.0161

          k = 0.1190 0.1190 0.1190 ( 20726 PWs)   bands (ev):

   -66.6549 -66.6528 -66.6528 -66.6528 -66.6505 -66.6505 -66.6505 -66.6483
   -36.6545 -36.6545 -36.6545 -36.6510 -36.6510 -36.6510 -36.6509 -36.6509
   -36.6509 -36.6476 -36.6474 -36.6474 -36.6143 -36.6140 -36.6140 -36.6112
   -36.6112 -36.6112 -36.6111 -36.6111 -36.6111 -36.6081 -36.6081 -36.6081
     2.4863   3.6988   3.6988   3.6988   3.7926   3.7926   3.8196   3.8196
     3.8196   3.9593   3.9593   3.9593   4.0507   4.1073   4.1073   4.1073
     4.1297   4.1297   4.7386   4.7386   4.7386   4.8971   4.8971   4.8971
     4.9577   4.9577   4.9577   4.9669   4.9669   4.9669   5.4159   5.4296
     5.4296   5.4774   5.4774   5.4774   5.7011   5.7011   5.7011   5.7917
     5.7917   6.0301   6.0301   6.0301   7.8433

          k = 0.1190 0.1190 0.1984 ( 20714 PWs)   bands (ev):

   -66.6547 -66.6530 -66.6525 -66.6525 -66.6508 -66.6508 -66.6503 -66.6486
   -36.6540 -36.6540 -36.6514 -36.6514 -36.6506 -36.6505 -36.6493 -36.6480
   -36.6478 -36.6459 -36.6458 -36.6424 -36.6194 -36.6162 -36.6162 -36.6137
   -36.6136 -36.6132 -36.6115 -36.6114 -36.6107 -36.6107 -36.6085 -36.6085
     2.6585   3.5714   3.8130   3.8196   3.8196   3.8524   3.8963   3.9006
     3.9006   3.9365   4.0391   4.0705   4.0705   4.0785   4.0785   4.1929
     4.2175   4.2907   4.5938   4.5938   4.7431   4.8226   4.8295   4.8827
     4.8827   4.9481   4.9481   4.9615   5.0147   5.0147   5.3512   5.3559
     5.4108   5.4108   5.4330   5.4483   5.4710   5.4710   5.4859   5.5494
     5.7209   5.7838   6.2076   6.2076   7.3125

          k = 0.1190 0.1190 0.2778 ( 20704 PWs)   bands (ev):

   -66.6543 -66.6534 -66.6521 -66.6521 -66.6512 -66.6512 -66.6499 -66.6490
   -36.6534 -36.6534 -36.6520 -36.6520 -36.6500 -36.6499 -36.6486 -36.6484
   -36.6423 -36.6389 -36.6389 -36.6356 -36.6264 -36.6232 -36.6232 -36.6200
   -36.6132 -36.6131 -36.6121 -36.6119 -36.6102 -36.6102 -36.6090 -36.6090
     2.8910   3.3847   3.8410   3.8967   3.9047   3.9047   3.9066   3.9855
     3.9855   3.9979   4.0630   4.0711   4.0711   4.2606   4.2606   4.3104
     4.3425   4.4720   4.4720   4.5153   4.5936   4.6643   4.6955   4.8932
     4.8932   4.9303   4.9303   5.0146   5.0146   5.0498   5.1839   5.2123
     5.2123   5.2366   5.2593   5.2663   5.3246   5.3246   5.4419   5.4630
     5.7405   5.7724   6.4113   6.4113   6.9244

          k = 0.1190 0.1190-0.3571 ( 20678 PWs)   bands (ev):

   -66.6538 -66.6538 -66.6517 -66.6516 -66.6516 -66.6516 -66.6494 -66.6494
   -36.6527 -36.6527 -36.6527 -36.6527 -36.6493 -36.6493 -36.6492 -36.6491
   -36.6344 -36.6343 -36.6311 -36.6310 -36.6310 -36.6310 -36.6278 -36.6278
   -36.6126 -36.6126 -36.6125 -36.6125 -36.6096 -36.6096 -36.6096 -36.6096
     3.1478   3.1478   3.8734   3.8734   3.9474   3.9474   3.9622   3.9622
     3.9622   3.9622   4.1890   4.1890   4.1890   4.1890   4.3048   4.3048
     4.4550   4.4550   4.4958   4.4958   4.7120   4.7121   4.7121   4.7121
     4.9052   4.9052   4.9112   4.9112   4.9112   4.9112   5.1529   5.1529
     5.1879   5.1879   5.2350   5.2350   5.2350   5.2350   5.4523   5.4523
     5.7579   5.7579   6.6409   6.6409   6.6409

          k = 0.1190 0.1984 0.1984 ( 20695 PWs)   bands (ev):

   -66.6544 -66.6528 -66.6527 -66.6522 -66.6511 -66.6505 -66.6505 -66.6489
   -36.6536 -36.6510 -36.6509 -36.6489 -36.6489 -36.6484 -36.6464 -36.6462
   -36.6454 -36.6454 -36.6430 -36.6427 -36.6191 -36.6188 -36.6166 -36.6166
   -36.6160 -36.6157 -36.6136 -36.6136 -36.6133 -36.6111 -36.6111 -36.6089
     2.8309   3.7038   3.7038   3.8769   3.9333   3.9333   3.9490   3.9541
     3.9881   4.0353   4.0353   4.0669   4.0724   4.1263   4.2219   4.2576
     4.2576   4.2904   4.5401   4.6253   4.6253   4.7959   4.8104   4.8104
     4.8824   4.8824   4.9444   4.9444   4.9931   5.0068   5.2823   5.3252
     5.3406   5.3528   5.3711   5.3996   5.3996   5.4515   5.5032   5.5032
     5.6072   5.6072   5.6442   6.3704   6.6929

          k = 0.1190 0.1984 0.2778 ( 20692 PWs)   bands (ev):

   -66.6540 -66.6531 -66.6524 -66.6518 -66.6515 -66.6509 -66.6501 -66.6493
   -36.6530 -36.6516 -36.6504 -36.6490 -36.6483 -36.6469 -36.6448 -36.6435
   -36.6419 -36.6394 -36.6385 -36.6360 -36.6260 -36.6236 -36.6227 -36.6204
   -36.6184 -36.6172 -36.6153 -36.6141 -36.6128 -36.6116 -36.6106 -36.6094
     3.0612   3.5319   3.8178   3.9204   3.9470   3.9748   3.9971   4.0429
     4.0597   4.0891   4.1017   4.1199   4.2014   4.2212   4.2815   4.3138
     4.4050   4.4778   4.4787   4.5337   4.5555   4.6606   4.7489   4.7668
     4.7912   4.9111   4.9514   4.9642   4.9936   5.0240   5.1690   5.1929
     5.1933   5.2362   5.2371   5.2526   5.2719   5.3131   5.3735   5.3992
     5.5327   5.5885   5.7647   6.2464   6.5670

          k = 0.1190 0.1984-0.3571 ( 20716 PWs)   bands (ev):

   -66.6536 -66.6536 -66.6519 -66.6519 -66.6514 -66.6514 -66.6497 -66.6497
   -36.6523 -36.6523 -36.6497 -36.6497 -36.6476 -36.6476 -36.6441 -36.6441
   -36.6340 -36.6339 -36.6315 -36.6315 -36.6307 -36.6307 -36.6283 -36.6282
   -36.6178 -36.6178 -36.6147 -36.6147 -36.6122 -36.6122 -36.6100 -36.6100
     3.3096   3.3096   3.8951   3.8951   3.9585   3.9585   4.0200   4.0200
     4.1205   4.1206   4.2163   4.2163   4.2328   4.2328   4.3268   4.3268
     4.4487   4.4487   4.5416   4.5416   4.6949   4.6949   4.7118   4.7118
     4.7742   4.7742   4.8859   4.8859   4.9676   4.9676   5.1055   5.1055
     5.1743   5.1743   5.1935   5.1935   5.2211   5.2211   5.3851   5.3851
     5.5597   5.5597   5.9605   5.9605   6.7987

          k = 0.1190 0.2778 0.2778 ( 20718 PWs)   bands (ev):

   -66.6536 -66.6528 -66.6528 -66.6519 -66.6514 -66.6505 -66.6505 -66.6497
   -36.6523 -36.6510 -36.6510 -36.6496 -36.6413 -36.6413 -36.6401 -36.6398
   -36.6379 -36.6379 -36.6368 -36.6364 -36.6256 -36.6253 -36.6242 -36.6242
   -36.6224 -36.6221 -36.6210 -36.6210 -36.6123 -36.6111 -36.6111 -36.6099
     3.2808   3.6847   3.6847   3.8851   4.0180   4.0803   4.0803   4.1095
     4.1467   4.1467   4.1860   4.1930   4.2337   4.3472   4.3655   4.4440
     4.4440   4.5005   4.5024   4.5293   4.5293   4.6439   4.6439   4.6678
     4.7980   4.7980   4.8566   5.0179   5.0179   5.0365   5.0699   5.1127
     5.1413   5.1682   5.2670   5.2670   5.2701   5.2701   5.2775   5.2938
     5.3541   5.3541   5.4043   5.7424   6.7645

          k = 0.1190 0.2778-0.3571 ( 20702 PWs)   bands (ev):

   -66.6532 -66.6532 -66.6523 -66.6523 -66.6510 -66.6510 -66.6501 -66.6501
   -36.6517 -36.6516 -36.6503 -36.6503 -36.6407 -36.6406 -36.6373 -36.6372
   -36.6334 -36.6334 -36.6321 -36.6321 -36.6301 -36.6300 -36.6288 -36.6288
   -36.6248 -36.6248 -36.6216 -36.6216 -36.6117 -36.6117 -36.6105 -36.6105
     3.5023   3.5023   3.8008   3.8009   4.0907   4.0907   4.1094   4.1094
     4.1879   4.1879   4.2306   4.2306   4.3747   4.3747   4.4175   4.4175
     4.4465   4.4465   4.6056   4.6056   4.6334   4.6334   4.6437   4.6437
     4.7045   4.7045   4.8413   4.8413   5.0292   5.0292   5.0538   5.0538
     5.1216   5.1216   5.2000   5.2000   5.2109   5.2109   5.3018   5.3018
     5.3111   5.3111   5.4645   5.4645   7.0065

          k = 0.1190-0.3571-0.3571 ( 20724 PWs)   bands (ev):

   -66.6528 -66.6528 -66.6528 -66.6528 -66.6505 -66.6505 -66.6505 -66.6505
   -36.6510 -36.6510 -36.6510 -36.6510 -36.6330 -36.6329 -36.6329 -36.6329
   -36.6326 -36.6325 -36.6325 -36.6325 -36.6296 -36.6296 -36.6296 -36.6296
   -36.6293 -36.6292 -36.6292 -36.6292 -36.6111 -36.6111 -36.6111 -36.6111
     3.6727   3.6728   3.6728   3.6728   4.1768   4.1768   4.1768   4.1768
     4.2031   4.2031   4.2031   4.2031   4.4816   4.4817   4.4817   4.4817
     4.5022   4.5022   4.5022   4.5022   4.6576   4.6576   4.6576   4.6576
     4.7164   4.7164   4.7164   4.7164   5.0379   5.0380   5.0380   5.0380
     5.1386   5.1386   5.1386   5.1386   5.2092   5.2092   5.2092   5.2092
     5.2700   5.2700   5.2700   5.2700   7.2673

          k = 0.1984 0.1984 0.1984 ( 20717 PWs)   bands (ev):

   -66.6541 -66.6525 -66.6525 -66.6525 -66.6508 -66.6508 -66.6508 -66.6492
   -36.6484 -36.6484 -36.6484 -36.6460 -36.6460 -36.6459 -36.6457 -36.6457
   -36.6457 -36.6435 -36.6432 -36.6432 -36.6188 -36.6184 -36.6184 -36.6164
   -36.6164 -36.6164 -36.6161 -36.6161 -36.6161 -36.6140 -36.6140 -36.6140
     3.0051   3.8622   3.8622   3.8622   3.9742   3.9742   3.9959   3.9959
     3.9959   4.1008   4.1008   4.1008   4.1059   4.2278   4.2278   4.2278
     4.3042   4.3042   4.5802   4.5802   4.5802   4.8621   4.8621   4.8621
     4.8672   4.8672   4.8672   4.8727   4.8727   4.8727   5.2896   5.2923
     5.2923   5.3279   5.3279   5.3279   5.3583   5.3583   5.3583   5.4413
     5.4413   5.7432   5.7432   5.7432   6.8755

          k = 0.1984 0.1984 0.2778 ( 20716 PWs)   bands (ev):

   -66.6537 -66.6529 -66.6521 -66.6521 -66.6512 -66.6512 -66.6504 -66.6496
   -36.6478 -36.6478 -36.6464 -36.6464 -36.6453 -36.6451 -36.6440 -36.6438
   -36.6415 -36.6389 -36.6389 -36.6364 -36.6256 -36.6232 -36.6232 -36.6208
   -36.6182 -36.6179 -36.6169 -36.6167 -36.6157 -36.6157 -36.6145 -36.6145
     3.2352   3.6925   3.9913   3.9913   4.0018   4.0382   4.0578   4.0578
     4.0687   4.1082   4.1309   4.2136   4.2136   4.2381   4.2381   4.3697
     4.4208   4.4413   4.5352   4.5352   4.5380   4.7187   4.7462   4.8366
     4.8366   4.8476   4.8476   4.8920   4.8920   4.9636   5.1657   5.1700
     5.1700   5.1889   5.2200   5.2375   5.2375   5.2731   5.3039   5.3692
     5.3856   5.4267   5.9062   5.9062   6.4178

          k = 0.1984 0.1984-0.3571 ( 20684 PWs)   bands (ev):

   -66.6533 -66.6533 -66.6517 -66.6516 -66.6516 -66.6516 -66.6500 -66.6500
   -36.6471 -36.6471 -36.6471 -36.6471 -36.6447 -36.6446 -36.6444 -36.6444
   -36.6335 -36.6335 -36.6311 -36.6311 -36.6311 -36.6311 -36.6286 -36.6286
   -36.6175 -36.6175 -36.6173 -36.6172 -36.6151 -36.6151 -36.6151 -36.6151
     3.4783   3.4784   4.0345   4.0345   4.0540   4.0540   4.0540   4.0540
     4.0789   4.0789   4.2599   4.2599   4.2599   4.2599   4.3466   4.3466
     4.4704   4.4704   4.5630   4.5630   4.6951   4.6951   4.6951   4.6951
     4.8398   4.8398   4.8398   4.8399   4.8720   4.8720   5.0748   5.0748
     5.1522   5.1522   5.1522   5.1522   5.1832   5.1832   5.3205   5.3205
     5.4081   5.4081   6.1147   6.1147   6.1147

          k = 0.1984 0.2778 0.2778 ( 20707 PWs)   bands (ev):

   -66.6533 -66.6525 -66.6525 -66.6517 -66.6516 -66.6508 -66.6508 -66.6499
   -36.6472 -36.6458 -36.6458 -36.6445 -36.6409 -36.6409 -36.6397 -36.6393
   -36.6383 -36.6383 -36.6372 -36.6369 -36.6252 -36.6248 -36.6238 -36.6238
   -36.6228 -36.6224 -36.6214 -36.6214 -36.6174 -36.6163 -36.6162 -36.6150
     3.4576   3.8555   3.8555   4.0319   4.0991   4.1152   4.1152   4.1444
     4.1455   4.1972   4.1972   4.2111   4.2432   4.3339   4.4111   4.4111
     4.4188   4.5018   4.5307   4.5307   4.5446   4.7142   4.7142   4.7508
     4.7888   4.7888   4.8173   4.9123   4.9268   4.9268   5.0629   5.0933
     5.1144   5.1475   5.1819   5.1819   5.2083   5.2083   5.2092   5.2426
     5.2637   5.4438   5.4438   5.9083   6.0838

          k = 0.1984 0.2778-0.3571 ( 20712 PWs)   bands (ev):

   -66.6529 -66.6529 -66.6520 -66.6520 -66.6513 -66.6513 -66.6504 -66.6504
   -36.6465 -36.6465 -36.6452 -36.6451 -36.6402 -36.6402 -36.6377 -36.6377
   -36.6329 -36.6329 -36.6317 -36.6317 -36.6305 -36.6305 -36.6292 -36.6292
   -36.6244 -36.6244 -36.6220 -36.6220 -36.6168 -36.6168 -36.6157 -36.6157
     3.6770   3.6770   3.9649   3.9649   4.1450   4.1450   4.1551   4.1551
     4.1687   4.1688   4.2748   4.2748   4.3901   4.3901   4.3977   4.3977
     4.4868   4.4868   4.6119   4.6119   4.6457   4.6457   4.6734   4.6734
     4.7338   4.7338   4.8396   4.8396   4.9174   4.9174   5.0232   5.0232
     5.0845   5.0845   5.1214   5.1214   5.1730   5.1731   5.2052   5.2052
     5.2738   5.2738   5.6032   5.6032   6.3154

          k = 0.1984-0.3571-0.3571 ( 20720 PWs)   bands (ev):

   -66.6525 -66.6525 -66.6525 -66.6525 -66.6508 -66.6508 -66.6508 -66.6508
   -36.6459 -36.6459 -36.6459 -36.6458 -36.6325 -36.6325 -36.6325 -36.6325
   -36.6321 -36.6321 -36.6321 -36.6321 -36.6301 -36.6300 -36.6300 -36.6300
   -36.6297 -36.6297 -36.6297 -36.6297 -36.6163 -36.6163 -36.6163 -36.6162
     3.8444   3.8444   3.8444   3.8445   4.1846   4.1846   4.1846   4.1846
     4.2546   4.2546   4.2546   4.2546   4.5122   4.5122   4.5122   4.5122
     4.5122   4.5122   4.5122   4.5123   4.6512   4.6512   4.6512   4.6513
     4.7436   4.7436   4.7436   4.7436   4.9765   4.9765   4.9765   4.9765
     5.0723   5.0723   5.0723   5.0723   5.1231   5.1231   5.1231   5.1231
     5.3423   5.3423   5.3423   5.3424   6.5771

          k = 0.2778 0.2778 0.2778 ( 20708 PWs)   bands (ev):

   -66.6530 -66.6521 -66.6521 -66.6521 -66.6512 -66.6512 -66.6512 -66.6503
   -36.6403 -36.6403 -36.6403 -36.6391 -36.6391 -36.6391 -36.6388 -36.6388
   -36.6388 -36.6380 -36.6375 -36.6375 -36.6248 -36.6242 -36.6242 -36.6234
   -36.6234 -36.6234 -36.6230 -36.6230 -36.6230 -36.6219 -36.6219 -36.6219
     3.6770   4.0295   4.0295   4.0295   4.1387   4.1387   4.1387   4.1748
     4.2362   4.2362   4.2998   4.2998   4.2998   4.3940   4.3940   4.3940
     4.5173   4.5173   4.5412   4.5412   4.5412   4.7384   4.7384   4.7384
     4.8082   4.8082   4.8082   4.8569   4.8569   4.8569   5.0554   5.0554
     5.0615   5.0615   5.0615   5.0987   5.0987   5.1148   5.1148   5.1148
     5.2402   5.5762   5.5762   5.5762   6.1216

          k = 0.2778 0.2778-0.3571 ( 20726 PWs)   bands (ev):

   -66.6525 -66.6525 -66.6517 -66.6517 -66.6516 -66.6516 -66.6508 -66.6508
   -36.6396 -36.6396 -36.6396 -36.6396 -36.6385 -36.6384 -36.6381 -36.6381
   -36.6324 -36.6324 -36.6311 -36.6311 -36.6311 -36.6311 -36.6297 -36.6297
   -36.6241 -36.6240 -36.6236 -36.6236 -36.6226 -36.6226 -36.6226 -36.6226
     3.8778   3.8778   4.1188   4.1188   4.1189   4.1189   4.1760   4.1760
     4.2665   4.2665   4.3863   4.3863   4.3864   4.3864   4.4204   4.4204
     4.5276   4.5276   4.6303   4.6303   4.6398   4.6398   4.6398   4.6398
     4.8259   4.8259   4.8259   4.8260   4.8393   4.8393   4.9767   4.9767
     5.0323   5.0323   5.0323   5.0323   5.0522   5.0522   5.0870   5.0870
     5.3177   5.3177   5.7797   5.7797   5.7797

          k = 0.2778-0.3571-0.3571 ( 20684 PWs)   bands (ev):

   -66.6521 -66.6521 -66.6521 -66.6521 -66.6512 -66.6512 -66.6512 -66.6512
   -36.6389 -36.6389 -36.6389 -36.6389 -36.6319 -36.6319 -36.6319 -36.6319
   -36.6315 -36.6315 -36.6315 -36.6315 -36.6306 -36.6306 -36.6306 -36.6306
   -36.6302 -36.6302 -36.6302 -36.6302 -36.6232 -36.6232 -36.6232 -36.6232
     4.0287   4.0287   4.0287   4.0287   4.1776   4.1776   4.1776   4.1776
     4.3628   4.3628   4.3628   4.3629   4.5239   4.5239   4.5239   4.5239
     4.5315   4.5315   4.5315   4.5315   4.6312   4.6312   4.6312   4.6312
     4.8054   4.8054   4.8054   4.8054   4.9189   4.9189   4.9189   4.9189
     4.9732   4.9732   4.9732   4.9732   5.0142   5.0142   5.0142   5.0142
     5.4587   5.4587   5.4587   5.4587   6.0290

          k =-0.3571-0.3571-0.3571 ( 20672 PWs)   bands (ev):

   -66.6516 -66.6516 -66.6516 -66.6516 -66.6516 -66.6516 -66.6516 -66.6516
   -36.6315 -36.6315 -36.6315 -36.6315 -36.6314 -36.6314 -36.6314 -36.6314
   -36.6309 -36.6309 -36.6309 -36.6309 -36.6309 -36.6309 -36.6309 -36.6309
   -36.6309 -36.6309 -36.6309 -36.6308 -36.6308 -36.6308 -36.6308 -36.6308
     4.1367   4.1367   4.1367   4.1367   4.1367   4.1367   4.1367   4.1367
     4.5329   4.5329   4.5329   4.5329   4.5329   4.5329   4.5329   4.5329
     4.5329   4.5329   4.5329   4.5329   4.5329   4.5329   4.5329   4.5329
     4.9015   4.9015   4.9015   4.9015   4.9015   4.9015   4.9015   4.9015
     4.9015   4.9015   4.9015   4.9015   4.9015   4.9015   4.9015   4.9015
     5.6643   5.6643   5.6643   5.6643   5.6644

     the Fermi energy is     5.1776 ev

!    total energy              =   -3450.59639087 Ry

     total all-electron energy =    -72494.693976 Ry
     estimated scf accuracy    <       0.00000062 Ry
     smearing contrib. (-TS)   =      -0.01091902 Ry
     internal energy E=F+TS    =   -3450.58547185 Ry

     The total energy is F=E-TS. E is the sum of the following terms:
     one-electron contribution =    -870.31156700 Ry
     hartree contribution      =     460.50246249 Ry
     xc contribution           =    -228.51852450 Ry
     ewald contribution        =    -915.02664997 Ry
     one-center paw contrib.   =   -1897.23119287 Ry

     convergence has been achieved in  20 iterations

     Forces acting on atoms (cartesian axes, Ry/au):

     atom    1 type  1   force =     0.00000000    0.00000000    0.00000000
     atom    2 type  1   force =     0.00000000    0.00000000    0.00000000
     atom    3 type  1   force =     0.00000000    0.00000000    0.00000000
     atom    4 type  1   force =     0.00000000    0.00000000    0.00000000
     atom    5 type  1   force =     0.00000000    0.00000000    0.00000000
     atom    6 type  1   force =     0.00000000    0.00000000    0.00000000
     atom    7 type  1   force =     0.00000000    0.00000000    0.00000000
     atom    8 type  1   force =     0.00000000    0.00000000    0.00000000

     Total force =     0.000000     Total SCF correction =     0.000000


     Computing stress (Cartesian axis) and pressure

          total   stress  (Ry/bohr**3)                   (kbar)     P=     -209.03
  -0.00142096   0.00000000   0.00000000         -209.03        0.00        0.00
   0.00000000  -0.00142096   0.00000000            0.00     -209.03        0.00
   0.00000000   0.00000000  -0.00142096            0.00        0.00     -209.03


     Writing output data file /scratch/XsrvAVhKXXsVKdib.save/
 
     init_run     :      2.42s CPU      2.54s WALL (       1 calls)
     electrons    :    106.41s CPU    108.59s WALL (       1 calls)
     forces       :      0.40s CPU      0.41s WALL (       1 calls)
     stress       :      0.90s CPU      0.92s WALL (       1 calls)

     Called by init_run:
     wfcinit      :      1.63s CPU      1.66s WALL (       1 calls)
     potinit      :      0.12s CPU      0.13s WALL (       1 calls)
     hinit0       :      0.44s CPU      0.49s WALL (       1 calls)

     Called by electrons:
     c_bands      :     91.24s CPU     92.85s WALL (      21 calls)
     sum_band     :     13.43s CPU     13.82s WALL (      21 calls)
     v_of_rho     :      0.20s CPU      0.22s WALL (      21 calls)
     newd         :      0.31s CPU      0.39s WALL (      21 calls)
     PAW_pot      :      1.17s CPU      1.22s WALL (      21 calls)
     mix_rho      :      0.06s CPU      0.07s WALL (      21 calls)

     Called by c_bands:
     init_us_2    :      0.30s CPU      0.32s WALL (    1575 calls)
     cegterg      :     89.19s CPU     90.75s WALL (     735 calls)

     Called by *egterg:
     cdiaghg      :     10.97s CPU     11.05s WALL (    2489 calls)
     h_psi        :     60.42s CPU     61.80s WALL (    2559 calls)
     s_psi        :      0.88s CPU      0.89s WALL (    2559 calls)
     g_psi        :      0.08s CPU      0.08s WALL (    1789 calls)

     Called by h_psi:
     h_psi:calbec :      3.60s CPU      3.64s WALL (    2559 calls)
     vloc_psi     :     55.53s CPU     56.86s WALL (    2559 calls)
     add_vuspsi   :      1.12s CPU      1.14s WALL (    2559 calls)

     General routines
     calbec       :      5.18s CPU      5.23s WALL (    3469 calls)
     fft          :      0.22s CPU      0.23s WALL (     297 calls)
     ffts         :      0.02s CPU      0.02s WALL (      42 calls)
     fftw         :     65.51s CPU     67.03s WALL (  318377 calls)
     interpolate  :      0.03s CPU      0.03s WALL (      21 calls)
 
     Parallel routines
     fft_scatt_xy :      2.44s CPU      2.48s WALL (  318716 calls)
     fft_scatt_yz :     58.65s CPU     60.07s WALL (  318716 calls)
 
     PWSCF        :   1m54.30s CPU   1m57.25s WALL

 
   This run was terminated on:   1:21:43  26Nov2021            

=------------------------------------------------------------------------------=
   JOB DONE.
=------------------------------------------------------------------------------=
