
     Program PWSCF v.6.7MaX starts on 26Nov2021 at  1:24:58 

     This program is part of the open-source Quantum ESPRESSO suite
     for quantum simulation of materials; please cite
         "P. Giannozzi et al., J. Phys.:Condens. Matter 21 395502 (2009);
         "P. Giannozzi et al., J. Phys.:Condens. Matter 29 465901 (2017);
          URL http://www.quantum-espresso.org", 
     in publications or presentations arising from this work. More details at
     http://www.quantum-espresso.org/quote

     Parallel version (MPI & OpenMP), running on      72 processor cores
     Number of MPI processes:                72
     Threads/MPI process:                     1

     MPI processes distributed on     1 nodes
     R & G space division:  proc/nbgrp/npool/nimage =      72
     Reading input from sc_7.in
Warning: card &CELL ignored
Warning: card CELL_DYNAMICS = 'BFGS', ignored
Warning: card CELL_FACTOR = 2.0, ignored
Warning: card PRESS = 0.0, ignored
Warning: card / ignored

     Current dimensions of program PWSCF are:
     Max number of different atomic species (ntypx) = 10
     Max number of k-points (npk) =  40000
     Max angular momentum in pseudopotentials (lmaxx) =  3
     file Ru.pbe-spn-kjpaw_psl.1.0.0.UPF: wavefunction(s)  4D renormalized

     Subspace diagonalization in iterative solution of the eigenvalue problem:
     one sub-group per band group will be used
     ELPA distributed-memory algorithm (size of sub-group:  8*  8 procs)

     Found symmetry operation: I + (  0.0000  0.0000 -0.5000)
     This is a supercell, fractional translations are disabled
     Message from routine setup:
     using ibrav=0 with symmetry is DISCOURAGED, use correct ibrav instead
 
     Parallelization info
     --------------------
     sticks:   dense  smooth     PW     G-vecs:    dense   smooth      PW
     Min         100      65     18                 6394     3427     488
     Max         101      66     19                 6402     3436     492
     Sum        7201    4749   1305               460663   247113   35273
 


     bravais-lattice index     =            0
     lattice parameter (alat)  =       9.0720  a.u.
     unit-cell volume          =    3058.2225 (a.u.)^3
     number of atoms/cell      =            8
     number of atomic types    =            1
     number of electrons       =       128.00
     number of Kohn-Sham states=           77
     kinetic-energy cutoff     =      71.0000  Ry
     charge density cutoff     =     430.0000  Ry
     scf convergence threshold =      1.0E-06
     mixing beta               =       0.1000
     number of iterations used =           10  TF        mixing
     Exchange-correlation= SLA  PW   PBX  PBC
                           (   1   4   3   4   0   0   0)

     celldm(1)=   9.072000  celldm(2)=   0.000000  celldm(3)=   0.000000
     celldm(4)=   0.000000  celldm(5)=   0.000000  celldm(6)=   0.000000

     crystal axes: (cart. coord. in units of alat)
               a(1) = (   1.600000   0.000000   0.000000 )  
               a(2) = (   0.000000   1.600000   0.000000 )  
               a(3) = (   0.000000   0.000000   1.600000 )  

     reciprocal axes: (cart. coord. in units 2 pi/alat)
               b(1) = (  0.625000  0.000000  0.000000 )  
               b(2) = (  0.000000  0.625000  0.000000 )  
               b(3) = (  0.000000  0.000000  0.625000 )  


     PseudoPot. # 1 for Ru read from file:
     /rds/homes/b/bxp912/pp/Ru.pbe-spn-kjpaw_psl.1.0.0.UPF
     MD5 check sum: 0ae1f594dea09af7be8575c3a481d1ae
     Pseudo is Projector augmented-wave + core cor, Zval = 16.0
     Generated using "atomic" code by A. Dal Corso  v.5.1
     Shape of augmentation charge: PSQ
     Using radial grid of 1233 points,  6 beta functions with: 
                l(1) =   0
                l(2) =   0
                l(3) =   1
                l(4) =   1
                l(5) =   2
                l(6) =   2
     Q(r) pseudized with 0 coefficients 


     atomic species   valence    mass     pseudopotential
        Ru            16.00   101.07000     Ru( 1.00)

     48 Sym. Ops., with inversion, found



   Cartesian axes

     site n.     atom                  positions (alat units)
         1           Ru  tau(   1) = (   0.0000000   0.0000000   0.0000000  )
         2           Ru  tau(   2) = (   0.0000000   0.0000000   0.8000000  )
         3           Ru  tau(   3) = (   0.0000000   0.8000000   0.0000000  )
         4           Ru  tau(   4) = (   0.0000000   0.8000000   0.8000000  )
         5           Ru  tau(   5) = (   0.8000000   0.0000000   0.0000000  )
         6           Ru  tau(   6) = (   0.8000000   0.0000000   0.8000000  )
         7           Ru  tau(   7) = (   0.8000000   0.8000000   0.0000000  )
         8           Ru  tau(   8) = (   0.8000000   0.8000000   0.8000000  )

     number of k points=    35  Marzari-Vanderbilt smearing, width (Ry)=  0.0400
                       cart. coord. in units 2pi/alat
        k(    1) = (   0.0347222   0.0347222   0.0347222), wk =   0.0219479
        k(    2) = (   0.0347222   0.0347222   0.1041667), wk =   0.0658436
        k(    3) = (   0.0347222   0.0347222   0.1736111), wk =   0.0658436
        k(    4) = (   0.0347222   0.0347222   0.2430556), wk =   0.0658436
        k(    5) = (   0.0347222   0.0347222  -0.3125000), wk =   0.0329218
        k(    6) = (   0.0347222   0.1041667   0.1041667), wk =   0.0658436
        k(    7) = (   0.0347222   0.1041667   0.1736111), wk =   0.1316872
        k(    8) = (   0.0347222   0.1041667   0.2430556), wk =   0.1316872
        k(    9) = (   0.0347222   0.1041667  -0.3125000), wk =   0.0658436
        k(   10) = (   0.0347222   0.1736111   0.1736111), wk =   0.0658436
        k(   11) = (   0.0347222   0.1736111   0.2430556), wk =   0.1316872
        k(   12) = (   0.0347222   0.1736111  -0.3125000), wk =   0.0658436
        k(   13) = (   0.0347222   0.2430556   0.2430556), wk =   0.0658436
        k(   14) = (   0.0347222   0.2430556  -0.3125000), wk =   0.0658436
        k(   15) = (   0.0347222  -0.3125000  -0.3125000), wk =   0.0164609
        k(   16) = (   0.1041667   0.1041667   0.1041667), wk =   0.0219479
        k(   17) = (   0.1041667   0.1041667   0.1736111), wk =   0.0658436
        k(   18) = (   0.1041667   0.1041667   0.2430556), wk =   0.0658436
        k(   19) = (   0.1041667   0.1041667  -0.3125000), wk =   0.0329218
        k(   20) = (   0.1041667   0.1736111   0.1736111), wk =   0.0658436
        k(   21) = (   0.1041667   0.1736111   0.2430556), wk =   0.1316872
        k(   22) = (   0.1041667   0.1736111  -0.3125000), wk =   0.0658436
        k(   23) = (   0.1041667   0.2430556   0.2430556), wk =   0.0658436
        k(   24) = (   0.1041667   0.2430556  -0.3125000), wk =   0.0658436
        k(   25) = (   0.1041667  -0.3125000  -0.3125000), wk =   0.0164609
        k(   26) = (   0.1736111   0.1736111   0.1736111), wk =   0.0219479
        k(   27) = (   0.1736111   0.1736111   0.2430556), wk =   0.0658436
        k(   28) = (   0.1736111   0.1736111  -0.3125000), wk =   0.0329218
        k(   29) = (   0.1736111   0.2430556   0.2430556), wk =   0.0658436
        k(   30) = (   0.1736111   0.2430556  -0.3125000), wk =   0.0658436
        k(   31) = (   0.1736111  -0.3125000  -0.3125000), wk =   0.0164609
        k(   32) = (   0.2430556   0.2430556   0.2430556), wk =   0.0219479
        k(   33) = (   0.2430556   0.2430556  -0.3125000), wk =   0.0329218
        k(   34) = (   0.2430556  -0.3125000  -0.3125000), wk =   0.0164609
        k(   35) = (  -0.3125000  -0.3125000  -0.3125000), wk =   0.0027435

     Dense  grid:   460663 G-vectors     FFT dimensions: (  96,  96,  96)

     Smooth grid:   247113 G-vectors     FFT dimensions: (  80,  80,  80)

     Estimated max dynamical RAM per process >      45.42 MB

     Estimated total dynamical RAM >       3.19 GB

     Check: negative core charge=   -0.000001

     Initial potential from superposition of free atoms

     starting charge  127.99490, renormalised to  128.00000
     Starting wfcs are   80 randomized atomic wfcs
     Checking if some PAW data can be deallocated... 

     total cpu time spent up to now is        5.8 secs

     Self-consistent Calculation

     iteration #  1     ecut=    71.00 Ry     beta= 0.10
     Davidson diagonalization with overlap
     ethr =  1.00E-02,  avg # of iterations =  2.0

     total cpu time spent up to now is       11.8 secs

     total energy              =   -3449.84217357 Ry
     estimated scf accuracy    <       2.96392077 Ry

     iteration #  2     ecut=    71.00 Ry     beta= 0.10
     Davidson diagonalization with overlap
     ethr =  2.32E-03,  avg # of iterations =  1.1

     total cpu time spent up to now is       16.6 secs

     total energy              =   -3449.53853035 Ry
     estimated scf accuracy    <       1.71366489 Ry

     iteration #  3     ecut=    71.00 Ry     beta= 0.10
     Davidson diagonalization with overlap
     ethr =  1.34E-03,  avg # of iterations =  1.1

     total cpu time spent up to now is       21.1 secs

     total energy              =   -3449.55481008 Ry
     estimated scf accuracy    <       2.69278067 Ry

     iteration #  4     ecut=    71.00 Ry     beta= 0.10
     Davidson diagonalization with overlap
     ethr =  1.34E-03,  avg # of iterations =  1.1

     total cpu time spent up to now is       25.9 secs

     total energy              =   -3449.61055180 Ry
     estimated scf accuracy    <       0.08733359 Ry

     iteration #  5     ecut=    71.00 Ry     beta= 0.10
     Davidson diagonalization with overlap
     ethr =  6.82E-05,  avg # of iterations =  4.3

     total cpu time spent up to now is       32.7 secs

     total energy              =   -3449.61043507 Ry
     estimated scf accuracy    <       0.03428655 Ry

     iteration #  6     ecut=    71.00 Ry     beta= 0.10
     Davidson diagonalization with overlap
     ethr =  2.68E-05,  avg # of iterations =  1.9

     total cpu time spent up to now is       37.7 secs

     total energy              =   -3449.61096180 Ry
     estimated scf accuracy    <       0.14073814 Ry

     iteration #  7     ecut=    71.00 Ry     beta= 0.10
     Davidson diagonalization with overlap
     ethr =  2.68E-05,  avg # of iterations =  1.0

     total cpu time spent up to now is       43.2 secs

     total energy              =   -3449.61090832 Ry
     estimated scf accuracy    <       0.09152188 Ry

     iteration #  8     ecut=    71.00 Ry     beta= 0.10
     Davidson diagonalization with overlap
     ethr =  2.68E-05,  avg # of iterations =  1.0

     total cpu time spent up to now is       48.1 secs

     total energy              =   -3449.60770743 Ry
     estimated scf accuracy    <       0.05865779 Ry

     iteration #  9     ecut=    71.00 Ry     beta= 0.10
     Davidson diagonalization with overlap
     ethr =  2.68E-05,  avg # of iterations =  2.0

     total cpu time spent up to now is       53.3 secs

     total energy              =   -3449.61237081 Ry
     estimated scf accuracy    <       0.02517664 Ry

     iteration # 10     ecut=    71.00 Ry     beta= 0.10
     Davidson diagonalization with overlap
     ethr =  1.97E-05,  avg # of iterations =  1.0

     total cpu time spent up to now is       58.8 secs

     total energy              =   -3449.60669260 Ry
     estimated scf accuracy    <       0.02028007 Ry

     iteration # 11     ecut=    71.00 Ry     beta= 0.10
     Davidson diagonalization with overlap
     ethr =  1.58E-05,  avg # of iterations =  2.0

     total cpu time spent up to now is       65.2 secs

     total energy              =   -3449.61014118 Ry
     estimated scf accuracy    <       0.00299892 Ry

     iteration # 12     ecut=    71.00 Ry     beta= 0.10
     Davidson diagonalization with overlap
     ethr =  2.34E-06,  avg # of iterations =  3.1

     total cpu time spent up to now is       71.5 secs

     total energy              =   -3449.60984694 Ry
     estimated scf accuracy    <       0.00201792 Ry

     iteration # 13     ecut=    71.00 Ry     beta= 0.10
     Davidson diagonalization with overlap
     ethr =  1.58E-06,  avg # of iterations =  2.3

     total cpu time spent up to now is       77.5 secs

     total energy              =   -3449.61001321 Ry
     estimated scf accuracy    <       0.00010572 Ry

     iteration # 14     ecut=    71.00 Ry     beta= 0.10
     Davidson diagonalization with overlap
     ethr =  8.26E-08,  avg # of iterations =  4.3

     total cpu time spent up to now is       83.9 secs

     total energy              =   -3449.61004292 Ry
     estimated scf accuracy    <       0.00008614 Ry

     iteration # 15     ecut=    71.00 Ry     beta= 0.10
     Davidson diagonalization with overlap
     ethr =  6.73E-08,  avg # of iterations =  4.8

     total cpu time spent up to now is       92.5 secs

     total energy              =   -3449.61004323 Ry
     estimated scf accuracy    <       0.00015805 Ry

     iteration # 16     ecut=    71.00 Ry     beta= 0.10
     Davidson diagonalization with overlap
     ethr =  6.73E-08,  avg # of iterations =  4.6

     total cpu time spent up to now is      100.0 secs

     total energy              =   -3449.61009292 Ry
     estimated scf accuracy    <       0.00002826 Ry

     iteration # 17     ecut=    71.00 Ry     beta= 0.10
     Davidson diagonalization with overlap
     ethr =  2.21E-08,  avg # of iterations =  1.5

     total cpu time spent up to now is      105.9 secs

     total energy              =   -3449.61009099 Ry
     estimated scf accuracy    <       0.00003587 Ry

     iteration # 18     ecut=    71.00 Ry     beta= 0.10
     Davidson diagonalization with overlap
     ethr =  2.21E-08,  avg # of iterations =  1.0

     total cpu time spent up to now is      110.6 secs

     total energy              =   -3449.61008679 Ry
     estimated scf accuracy    <       0.00001775 Ry

     iteration # 19     ecut=    71.00 Ry     beta= 0.10
     Davidson diagonalization with overlap
     ethr =  1.39E-08,  avg # of iterations =  2.8

     total cpu time spent up to now is      117.0 secs

     End of self-consistent calculation

          k = 0.0347 0.0347 0.0347 ( 31019 PWs)   bands (ev):

   -69.5132 -69.5129 -69.5127 -69.5127 -69.5125 -69.5124 -69.5124 -69.5122
   -39.5402 -39.5402 -39.5402 -39.5397 -39.5397 -39.5397 -39.5396 -39.5396
   -39.5396 -39.5390 -39.5390 -39.5390 -39.5320 -39.5320 -39.5319 -39.5314
   -39.5314 -39.5314 -39.5314 -39.5314 -39.5314 -39.5308 -39.5308 -39.5308
     0.1082   1.0542   1.0542   1.0542   1.1693   1.1693   1.2326   1.2326
     1.2326   1.2605   1.2605   1.2605   1.3247   1.3247   1.3247   1.3753
     1.3793   1.3793   1.8052   1.8052   1.8052   1.8112   1.8112   1.8112
     1.8577   1.8577   1.8577   1.8582   1.8582   1.8582   2.0954   2.0963
     2.0963   2.1215   2.1215   2.1215   2.3437   2.3438   2.3438   2.3638
     2.3638   3.1760   3.1760   3.1761   3.9141

          k = 0.0347 0.0347 0.1042 ( 30927 PWs)   bands (ev):

   -69.5131 -69.5128 -69.5127 -69.5127 -69.5125 -69.5124 -69.5124 -69.5122
   -39.5402 -39.5402 -39.5397 -39.5397 -39.5397 -39.5396 -39.5396 -39.5391
   -39.5391 -39.5390 -39.5390 -39.5385 -39.5324 -39.5319 -39.5319 -39.5319
   -39.5319 -39.5314 -39.5314 -39.5313 -39.5313 -39.5313 -39.5308 -39.5308
     0.1734   1.0181   1.1027   1.1027   1.1747   1.1985   1.2411   1.2549
     1.2581   1.2581   1.2879   1.2879   1.3165   1.3165   1.3680   1.3813
     1.4018   1.4035   1.7568   1.7568   1.8124   1.8125   1.8208   1.8225
     1.8230   1.8273   1.8549   1.8550   1.8729   1.8729   2.0774   2.0779
     2.0976   2.1048   2.1048   2.1200   2.2778   2.2778   2.2961   2.3452
     2.3627   2.6450   3.2127   3.2127   3.9947

          k = 0.0347 0.0347 0.1736 ( 30907 PWs)   bands (ev):

   -69.5131 -69.5128 -69.5127 -69.5127 -69.5125 -69.5125 -69.5124 -69.5122
   -39.5401 -39.5401 -39.5397 -39.5397 -39.5395 -39.5395 -39.5391 -39.5391
   -39.5388 -39.5382 -39.5381 -39.5376 -39.5333 -39.5328 -39.5328 -39.5322
   -39.5318 -39.5318 -39.5315 -39.5315 -39.5313 -39.5313 -39.5309 -39.5309
     0.2979   0.9422   1.1690   1.1690   1.1849   1.2444   1.2571   1.2604
     1.2982   1.2982   1.3106   1.3106   1.3514   1.3676   1.3676   1.4485
     1.4503   1.4896   1.6722   1.6722   1.7594   1.7599   1.8178   1.8178
     1.8480   1.8494   1.8494   1.8580   1.9011   1.9011   2.0436   2.0439
     2.0738   2.0738   2.1005   2.1171   2.1452   2.1452   2.1700   2.1788
     2.3477   2.3606   3.2787   3.2787   4.0030

          k = 0.0347 0.0347 0.2431 ( 30887 PWs)   bands (ev):

   -69.5131 -69.5128 -69.5127 -69.5126 -69.5126 -69.5125 -69.5124 -69.5122
   -39.5400 -39.5400 -39.5398 -39.5398 -39.5394 -39.5394 -39.5392 -39.5392
   -39.5375 -39.5369 -39.5369 -39.5363 -39.5346 -39.5341 -39.5340 -39.5335
   -39.5318 -39.5318 -39.5316 -39.5316 -39.5312 -39.5312 -39.5310 -39.5310
     0.4673   0.8204   1.1986   1.2171   1.2171   1.2303   1.2780   1.2780
     1.2789   1.3290   1.3649   1.3806   1.3806   1.5143   1.5162   1.5198
     1.5199   1.5762   1.5762   1.6369   1.6800   1.6828   1.7826   1.8252
     1.8252   1.8420   1.8420   1.9001   1.9148   1.9310   1.9310   1.9637
     1.9638   1.9990   1.9992   2.0034   2.0327   2.0327   2.1043   2.1132
     2.3509   2.3577   3.3730   3.3731   3.7083

          k = 0.0347 0.0347-0.3125 ( 30864 PWs)   bands (ev):

   -69.5131 -69.5128 -69.5127 -69.5126 -69.5126 -69.5125 -69.5123 -69.5123
   -39.5399 -39.5399 -39.5399 -39.5399 -39.5393 -39.5393 -39.5392 -39.5392
   -39.5362 -39.5360 -39.5355 -39.5355 -39.5354 -39.5354 -39.5349 -39.5348
   -39.5317 -39.5317 -39.5316 -39.5316 -39.5311 -39.5311 -39.5311 -39.5311
     0.6539   0.6540   1.2144   1.2144   1.2508   1.2508   1.2508   1.2508
     1.3038   1.3039   1.4696   1.4696   1.4696   1.4696   1.5326   1.5326
     1.5932   1.5932   1.5954   1.5954   1.7339   1.7339   1.7339   1.7339
     1.8195   1.8195   1.8335   1.8336   1.8336   1.8336   1.9490   1.9490
     1.9508   1.9508   1.9871   1.9871   1.9871   1.9871   2.1088   2.1088
     2.3544   2.3544   3.5080   3.5080   3.5080

          k = 0.0347 0.1042 0.1042 ( 30910 PWs)   bands (ev):

   -69.5131 -69.5128 -69.5127 -69.5127 -69.5125 -69.5124 -69.5124 -69.5122
   -39.5402 -39.5397 -39.5397 -39.5396 -39.5396 -39.5391 -39.5391 -39.5391
   -39.5391 -39.5391 -39.5386 -39.5385 -39.5324 -39.5324 -39.5319 -39.5319
   -39.5319 -39.5319 -39.5318 -39.5314 -39.5314 -39.5313 -39.5313 -39.5309
     0.2389   1.0682   1.0682   1.1577   1.1923   1.2150   1.2664   1.2664
     1.2798   1.2815   1.2815   1.3077   1.3104   1.3729   1.3729   1.3814
     1.4047   1.4264   1.7401   1.7720   1.7720   1.7846   1.8194   1.8194
     1.8285   1.8285   1.8382   1.8382   1.8679   1.8721   2.0590   2.0770
     2.0817   2.0875   2.1032   2.1032   2.2237   2.2654   2.2811   2.2811
     2.3264   2.6920   2.6920   3.2475   3.9867

          k = 0.0347 0.1042 0.1736 ( 30915 PWs)   bands (ev):

   -69.5131 -69.5128 -69.5127 -69.5127 -69.5125 -69.5125 -69.5124 -69.5122
   -39.5401 -39.5397 -39.5396 -39.5395 -39.5392 -39.5391 -39.5390 -39.5387
   -39.5386 -39.5382 -39.5381 -39.5376 -39.5333 -39.5329 -39.5328 -39.5323
   -39.5323 -39.5320 -39.5318 -39.5318 -39.5315 -39.5314 -39.5313 -39.5309
     0.3640   0.9961   1.1409   1.2070   1.2335   1.2700   1.2714   1.2819
     1.2862   1.3154   1.3346   1.3558   1.3576   1.3718   1.3758   1.4451
     1.4717   1.4806   1.6694   1.6901   1.7557   1.7767   1.7801   1.7945
     1.8132   1.8337   1.8588   1.8643   1.8660   1.8986   2.0247   2.0453
     2.0555   2.0720   2.0828   2.1000   2.1101   2.1533   2.1549   2.2305
     2.2864   2.3111   2.7749   3.3121   3.5775

          k = 0.0347 0.1042 0.2431 ( 30899 PWs)   bands (ev):

   -69.5131 -69.5128 -69.5127 -69.5126 -69.5126 -69.5125 -69.5124 -69.5123
   -39.5400 -39.5398 -39.5396 -39.5394 -39.5393 -39.5392 -39.5389 -39.5387
   -39.5375 -39.5369 -39.5368 -39.5363 -39.5346 -39.5341 -39.5340 -39.5335
   -39.5323 -39.5321 -39.5317 -39.5317 -39.5315 -39.5315 -39.5312 -39.5310
     0.5334   0.8796   1.1970   1.2219   1.2550   1.2644   1.2798   1.3030
     1.3350   1.3511   1.3734   1.3875   1.4003   1.4908   1.5101   1.5255
     1.5352   1.5785   1.6096   1.6225   1.6766   1.7059   1.7496   1.7865
     1.8048   1.8408   1.8571   1.8874   1.8988   1.9227   1.9443   1.9518
     1.9803   1.9863   1.9940   2.0009   2.0136   2.0307   2.0868   2.0961
     2.2924   2.3045   2.8884   3.2628   3.4075

          k = 0.0347 0.1042-0.3125 ( 30870 PWs)   bands (ev):

   -69.5131 -69.5128 -69.5127 -69.5126 -69.5126 -69.5125 -69.5123 -69.5123
   -39.5399 -39.5398 -39.5395 -39.5394 -39.5394 -39.5393 -39.5388 -39.5388
   -39.5361 -39.5360 -39.5355 -39.5355 -39.5354 -39.5354 -39.5349 -39.5349
   -39.5322 -39.5321 -39.5317 -39.5316 -39.5316 -39.5315 -39.5312 -39.5311
     0.7179   0.7180   1.2350   1.2351   1.2383   1.2383   1.3099   1.3100
     1.3270   1.3271   1.4745   1.4745   1.4803   1.4804   1.5369   1.5369
     1.5890   1.5890   1.6105   1.6105   1.7284   1.7284   1.7353   1.7353
     1.7955   1.7955   1.8145   1.8145   1.8490   1.8490   1.9350   1.9350
     1.9525   1.9526   1.9699   1.9699   1.9848   1.9848   2.0914   2.0914
     2.2985   2.2985   3.0425   3.0425   3.5460

          k = 0.0347 0.1736 0.1736 ( 30915 PWs)   bands (ev):

   -69.5131 -69.5128 -69.5127 -69.5126 -69.5126 -69.5125 -69.5124 -69.5122
   -39.5400 -39.5396 -39.5396 -39.5392 -39.5387 -39.5387 -39.5383 -39.5382
   -39.5381 -39.5381 -39.5377 -39.5376 -39.5333 -39.5333 -39.5329 -39.5329
   -39.5327 -39.5327 -39.5323 -39.5323 -39.5317 -39.5314 -39.5314 -39.5310
     0.4894   1.0806   1.0806   1.2421   1.2669   1.3057   1.3301   1.3301
     1.3368   1.3368   1.3476   1.3771   1.3962   1.4007   1.4527   1.4646
     1.4647   1.5139   1.6453   1.7154   1.7154   1.7349   1.7485   1.7485
     1.8063   1.8063   1.8636   1.8636   1.8882   1.8979   1.9901   2.0220
     2.0316   2.0436   2.0545   2.0685   2.0685   2.0985   2.1652   2.1652
     2.2451   2.3107   2.3107   3.1393   3.3770

          k = 0.0347 0.1736 0.2431 ( 30905 PWs)   bands (ev):

   -69.5131 -69.5128 -69.5127 -69.5126 -69.5126 -69.5125 -69.5124 -69.5123
   -39.5399 -39.5397 -39.5395 -39.5393 -39.5386 -39.5384 -39.5380 -39.5377
   -39.5374 -39.5370 -39.5368 -39.5364 -39.5346 -39.5342 -39.5339 -39.5336
   -39.5332 -39.5330 -39.5326 -39.5324 -39.5317 -39.5315 -39.5313 -39.5311
     0.6572   0.9804   1.1542   1.2396   1.2702   1.3151   1.3494   1.3904
     1.3929   1.3980   1.3982   1.4354   1.4448   1.4590   1.5046   1.5361
     1.5727   1.5799   1.6051   1.6451   1.6686   1.7007   1.7237   1.7391
     1.7396   1.8315   1.8704   1.8841   1.8924   1.9029   1.9384   1.9470
     1.9686   1.9794   1.9870   2.0042   2.0054   2.0269   2.0545   2.0647
     2.1780   2.2095   2.4152   2.7945   3.4762

          k = 0.0347 0.1736-0.3125 ( 30852 PWs)   bands (ev):

   -69.5130 -69.5128 -69.5127 -69.5126 -69.5126 -69.5125 -69.5124 -69.5123
   -39.5398 -39.5397 -39.5394 -39.5394 -39.5385 -39.5384 -39.5379 -39.5378
   -39.5360 -39.5359 -39.5356 -39.5355 -39.5354 -39.5353 -39.5350 -39.5350
   -39.5331 -39.5330 -39.5325 -39.5324 -39.5316 -39.5315 -39.5312 -39.5311
     0.8339   0.8340   1.2038   1.2038   1.2929   1.2930   1.3709   1.3709
     1.4209   1.4209   1.4829   1.4829   1.4970   1.4971   1.5449   1.5449
     1.5811   1.5811   1.6394   1.6394   1.7170   1.7170   1.7295   1.7295
     1.7360   1.7360   1.8033   1.8033   1.8781   1.8781   1.9124   1.9124
     1.9426   1.9426   1.9568   1.9568   1.9806   1.9806   2.0593   2.0593
     2.1917   2.1917   2.5633   2.5633   3.6227

          k = 0.0347 0.2431 0.2431 ( 30868 PWs)   bands (ev):

   -69.5130 -69.5128 -69.5127 -69.5126 -69.5126 -69.5125 -69.5124 -69.5123
   -39.5398 -39.5396 -39.5396 -39.5394 -39.5373 -39.5373 -39.5371 -39.5370
   -39.5367 -39.5367 -39.5365 -39.5365 -39.5345 -39.5344 -39.5342 -39.5342
   -39.5339 -39.5338 -39.5336 -39.5336 -39.5316 -39.5314 -39.5314 -39.5312
     0.8164   1.0824   1.0824   1.2042   1.3393   1.4140   1.4141   1.4259
     1.4271   1.4271   1.4397   1.4797   1.5178   1.5357   1.5420   1.5867
     1.5867   1.5916   1.6241   1.6548   1.6548   1.6593   1.6593   1.6688
     1.7703   1.7704   1.8144   1.9021   1.9094   1.9094   1.9094   1.9178
     1.9366   1.9390   2.0026   2.0180   2.0199   2.0199   2.0255   2.0256
     2.0541   2.0541   2.1108   2.4127   3.5838

          k = 0.0347 0.2431-0.3125 ( 30862 PWs)   bands (ev):

   -69.5130 -69.5127 -69.5127 -69.5126 -69.5126 -69.5125 -69.5124 -69.5124
   -39.5398 -39.5397 -39.5395 -39.5394 -39.5372 -39.5371 -39.5367 -39.5366
   -39.5359 -39.5358 -39.5357 -39.5356 -39.5353 -39.5352 -39.5351 -39.5351
   -39.5344 -39.5343 -39.5338 -39.5337 -39.5315 -39.5314 -39.5313 -39.5312
     0.9698   0.9698   1.1550   1.1550   1.3923   1.3923   1.4279   1.4280
     1.4877   1.4877   1.5101   1.5101   1.5587   1.5587   1.5677   1.5677
     1.5758   1.5758   1.6537   1.6538   1.6758   1.6758   1.6902   1.6902
     1.7301   1.7301   1.7790   1.7790   1.8976   1.8976   1.9167   1.9167
     1.9220   1.9220   1.9626   1.9626   1.9750   1.9750   2.0174   2.0174
     2.0541   2.0541   2.1716   2.1717   3.7425

          k = 0.0347-0.3125-0.3125 ( 30816 PWs)   bands (ev):

   -69.5130 -69.5127 -69.5127 -69.5127 -69.5125 -69.5124 -69.5124 -69.5124
   -39.5397 -39.5396 -39.5396 -39.5395 -39.5359 -39.5359 -39.5357 -39.5357
   -39.5357 -39.5357 -39.5357 -39.5357 -39.5353 -39.5353 -39.5351 -39.5351
   -39.5351 -39.5351 -39.5351 -39.5351 -39.5315 -39.5314 -39.5314 -39.5313
     1.0810   1.0810   1.0810   1.0811   1.4760   1.4760   1.4760   1.4760
     1.4954   1.4954   1.4954   1.4955   1.5918   1.5918   1.5918   1.5918
     1.6125   1.6125   1.6125   1.6125   1.7084   1.7085   1.7085   1.7085
     1.7099   1.7099   1.7100   1.7100   1.9300   1.9300   1.9300   1.9300
     1.9457   1.9457   1.9457   1.9458   1.9749   1.9749   1.9749   1.9749
     1.9767   1.9768   1.9768   1.9768   3.9166

          k = 0.1042 0.1042 0.1042 ( 30920 PWs)   bands (ev):

   -69.5131 -69.5128 -69.5127 -69.5127 -69.5125 -69.5124 -69.5124 -69.5122
   -39.5397 -39.5397 -39.5397 -39.5391 -39.5391 -39.5391 -39.5391 -39.5391
   -39.5391 -39.5386 -39.5386 -39.5386 -39.5324 -39.5324 -39.5323 -39.5319
   -39.5319 -39.5319 -39.5319 -39.5319 -39.5319 -39.5314 -39.5314 -39.5314
     0.3049   1.1237   1.1237   1.1237   1.2204   1.2204   1.2896   1.2896
     1.2896   1.3018   1.3018   1.3018   1.3650   1.3650   1.3650   1.3947
     1.4283   1.4283   1.7544   1.7544   1.7544   1.8017   1.8017   1.8017
     1.8328   1.8328   1.8328   1.8370   1.8370   1.8370   2.0570   2.0627
     2.0627   2.0857   2.0857   2.0857   2.2281   2.2281   2.2281   2.2636
     2.2636   2.7370   2.7370   2.7371   4.0428

          k = 0.1042 0.1042 0.1736 ( 30916 PWs)   bands (ev):

   -69.5131 -69.5128 -69.5127 -69.5127 -69.5125 -69.5125 -69.5124 -69.5122
   -39.5396 -39.5396 -39.5392 -39.5392 -39.5391 -39.5390 -39.5387 -39.5386
   -39.5386 -39.5382 -39.5382 -39.5376 -39.5333 -39.5328 -39.5328 -39.5323
   -39.5323 -39.5323 -39.5319 -39.5319 -39.5318 -39.5318 -39.5314 -39.5314
     0.4307   1.0535   1.2047   1.2047   1.2305   1.2801   1.2908   1.3052
     1.3279   1.3279   1.3570   1.3570   1.3652   1.3653   1.3906   1.4619
     1.4715   1.4737   1.6870   1.6870   1.7711   1.7729   1.7747   1.7969
     1.7969   1.8285   1.8285   1.8339   1.8631   1.8631   2.0256   2.0274
     2.0534   2.0534   2.0645   2.0821   2.1184   2.1184   2.1452   2.2349
     2.2602   2.2777   2.8183   2.8183   3.6324

          k = 0.1042 0.1042 0.2431 ( 30914 PWs)   bands (ev):

   -69.5131 -69.5128 -69.5127 -69.5126 -69.5126 -69.5125 -69.5124 -69.5123
   -39.5395 -39.5395 -39.5393 -39.5393 -39.5390 -39.5390 -39.5387 -39.5387
   -39.5375 -39.5369 -39.5369 -39.5364 -39.5346 -39.5341 -39.5340 -39.5335
   -39.5322 -39.5322 -39.5320 -39.5320 -39.5317 -39.5317 -39.5315 -39.5315
     0.6005   0.9412   1.2443   1.2599   1.2599   1.2763   1.3206   1.3206
     1.3257   1.3719   1.3813   1.4080   1.4080   1.4964   1.4965   1.5229
     1.5376   1.6081   1.6121   1.6121   1.6967   1.7054   1.7310   1.8029
     1.8029   1.8204   1.8205   1.8779   1.8816   1.8816   1.9710   1.9710
     1.9797   1.9808   1.9842   1.9860   2.0112   2.0112   2.0688   2.0793
     2.2423   2.2553   2.9321   2.9321   3.3139

          k = 0.1042 0.1042-0.3125 ( 30876 PWs)   bands (ev):

   -69.5131 -69.5128 -69.5127 -69.5126 -69.5126 -69.5125 -69.5124 -69.5123
   -39.5394 -39.5394 -39.5393 -39.5393 -39.5389 -39.5388 -39.5388 -39.5388
   -39.5361 -39.5360 -39.5355 -39.5355 -39.5354 -39.5354 -39.5350 -39.5349
   -39.5322 -39.5322 -39.5321 -39.5321 -39.5316 -39.5316 -39.5316 -39.5316
     0.7836   0.7837   1.2601   1.2602   1.2942   1.2942   1.2942   1.2943
     1.3490   1.3490   1.4855   1.4855   1.4855   1.4855   1.5411   1.5411
     1.5961   1.5961   1.6144   1.6144   1.7299   1.7299   1.7299   1.7299
     1.8099   1.8099   1.8115   1.8115   1.8115   1.8115   1.9288   1.9288
     1.9473   1.9473   1.9668   1.9668   1.9668   1.9668   2.0738   2.0738
     2.2492   2.2493   3.0890   3.0890   3.0891

          k = 0.1042 0.1736 0.1736 ( 30893 PWs)   bands (ev):

   -69.5131 -69.5128 -69.5127 -69.5126 -69.5125 -69.5125 -69.5124 -69.5123
   -39.5395 -39.5391 -39.5391 -39.5387 -39.5386 -39.5386 -39.5383 -39.5382
   -39.5381 -39.5381 -39.5377 -39.5377 -39.5333 -39.5332 -39.5329 -39.5329
   -39.5327 -39.5327 -39.5324 -39.5324 -39.5323 -39.5319 -39.5319 -39.5315
     0.5576   1.1445   1.1445   1.2671   1.3109   1.3152   1.3204   1.3487
     1.3487   1.3498   1.3498   1.3874   1.3940   1.4126   1.4558   1.4558
     1.4748   1.5117   1.6641   1.7106   1.7107   1.7539   1.7657   1.7657
     1.8029   1.8029   1.8280   1.8280   1.8527   1.8606   1.9923   2.0195
     2.0266   2.0342   2.0422   2.0492   2.0492   2.0961   2.1300   2.1300
     2.1930   2.3553   2.3553   2.8990   3.1958

          k = 0.1042 0.1736 0.2431 ( 30873 PWs)   bands (ev):

   -69.5130 -69.5128 -69.5127 -69.5126 -69.5126 -69.5125 -69.5124 -69.5123
   -39.5394 -39.5392 -39.5390 -39.5388 -39.5386 -39.5383 -39.5380 -39.5378
   -39.5374 -39.5370 -39.5368 -39.5365 -39.5345 -39.5341 -39.5340 -39.5336
   -39.5332 -39.5329 -39.5326 -39.5324 -39.5322 -39.5320 -39.5318 -39.5316
     0.7266   1.0464   1.2185   1.2909   1.2964   1.3298   1.3693   1.3780
     1.3993   1.4051   1.4083   1.4429   1.4433   1.4657   1.5066   1.5231
     1.5706   1.5903   1.6144   1.6467   1.6930   1.6944   1.7359   1.7426
     1.7568   1.8271   1.8330   1.8472   1.8664   1.8683   1.9417   1.9493
     1.9637   1.9763   1.9870   1.9870   2.0064   2.0181   2.0358   2.0554
     2.1418   2.1664   2.4607   2.8489   3.0157

          k = 0.1042 0.1736-0.3125 ( 30906 PWs)   bands (ev):

   -69.5130 -69.5128 -69.5127 -69.5126 -69.5126 -69.5125 -69.5124 -69.5123
   -39.5394 -39.5393 -39.5390 -39.5389 -39.5385 -39.5384 -39.5380 -39.5379
   -39.5360 -39.5359 -39.5356 -39.5355 -39.5354 -39.5354 -39.5351 -39.5350
   -39.5331 -39.5330 -39.5326 -39.5325 -39.5321 -39.5320 -39.5317 -39.5316
     0.9028   0.9028   1.2638   1.2639   1.3103   1.3103   1.3901   1.3901
     1.4035   1.4035   1.4958   1.4958   1.5025   1.5025   1.5489   1.5489
     1.5928   1.5928   1.6392   1.6392   1.7186   1.7186   1.7307   1.7307
     1.7480   1.7480   1.7998   1.7998   1.8410   1.8410   1.9079   1.9079
     1.9375   1.9375   1.9511   1.9511   1.9606   1.9606   2.0416   2.0416
     2.1533   2.1533   2.6129   2.6129   3.1796

          k = 0.1042 0.2431 0.2431 ( 30885 PWs)   bands (ev):

   -69.5130 -69.5127 -69.5127 -69.5126 -69.5126 -69.5125 -69.5124 -69.5124
   -39.5393 -39.5391 -39.5391 -39.5389 -39.5373 -39.5373 -39.5371 -39.5370
   -39.5367 -39.5367 -39.5366 -39.5366 -39.5345 -39.5344 -39.5342 -39.5342
   -39.5339 -39.5339 -39.5337 -39.5337 -39.5321 -39.5319 -39.5319 -39.5316
     0.8881   1.1495   1.1496   1.2631   1.3569   1.4287   1.4287   1.4357
     1.4357   1.4404   1.4443   1.4862   1.5085   1.5262   1.5374   1.5723
     1.5723   1.6193   1.6215   1.6550   1.6550   1.6843   1.6843   1.6920
     1.7669   1.7669   1.8073   1.8697   1.8697   1.8792   1.9000   1.9113
     1.9208   1.9346   1.9907   1.9963   1.9965   1.9965   2.0036   2.0036
     2.0748   2.1024   2.1024   2.4689   3.1398

          k = 0.1042 0.2431-0.3125 ( 30886 PWs)   bands (ev):

   -69.5130 -69.5127 -69.5127 -69.5126 -69.5126 -69.5125 -69.5124 -69.5124
   -39.5393 -39.5392 -39.5390 -39.5390 -39.5372 -39.5371 -39.5367 -39.5366
   -39.5359 -39.5358 -39.5357 -39.5356 -39.5354 -39.5353 -39.5351 -39.5351
   -39.5344 -39.5343 -39.5338 -39.5338 -39.5320 -39.5319 -39.5318 -39.5317
     1.0408   1.0408   1.2178   1.2179   1.4042   1.4042   1.4425   1.4426
     1.4902   1.4902   1.5159   1.5159   1.5577   1.5578   1.5623   1.5623
     1.5893   1.5893   1.6745   1.6745   1.6786   1.6786   1.6917   1.6917
     1.7262   1.7262   1.7775   1.7775   1.8770   1.8770   1.8885   1.8885
     1.9130   1.9130   1.9516   1.9516   1.9617   1.9617   2.0028   2.0028
     2.0269   2.0269   2.2253   2.2253   3.3152

          k = 0.1042-0.3125-0.3125 ( 30860 PWs)   bands (ev):

   -69.5130 -69.5127 -69.5127 -69.5127 -69.5126 -69.5124 -69.5124 -69.5124
   -39.5392 -39.5391 -39.5391 -39.5390 -39.5359 -39.5359 -39.5357 -39.5357
   -39.5357 -39.5357 -39.5357 -39.5357 -39.5353 -39.5353 -39.5352 -39.5352
   -39.5352 -39.5352 -39.5352 -39.5352 -39.5320 -39.5319 -39.5319 -39.5318
     1.1487   1.1487   1.1487   1.1488   1.4843   1.4843   1.4843   1.4843
     1.5030   1.5030   1.5030   1.5030   1.6037   1.6037   1.6037   1.6037
     1.6153   1.6153   1.6153   1.6153   1.7066   1.7066   1.7066   1.7066
     1.7120   1.7120   1.7120   1.7120   1.8910   1.8910   1.8910   1.8910
     1.9286   1.9286   1.9286   1.9286   1.9543   1.9543   1.9543   1.9543
     2.0197   2.0197   2.0197   2.0197   3.5052

          k = 0.1736 0.1736 0.1736 ( 30913 PWs)   bands (ev):

   -69.5131 -69.5128 -69.5127 -69.5127 -69.5125 -69.5125 -69.5125 -69.5123
   -39.5386 -39.5386 -39.5386 -39.5382 -39.5382 -39.5382 -39.5382 -39.5382
   -39.5382 -39.5378 -39.5378 -39.5377 -39.5333 -39.5332 -39.5332 -39.5328
   -39.5328 -39.5328 -39.5328 -39.5328 -39.5328 -39.5324 -39.5324 -39.5324
     0.6867   1.2542   1.2542   1.2542   1.3208   1.3208   1.3819   1.3820
     1.3820   1.3835   1.3835   1.3835   1.4347   1.4441   1.4441   1.4441
     1.5174   1.5174   1.6879   1.6880   1.6880   1.7892   1.7892   1.7892
     1.7926   1.7926   1.7926   1.7994   1.7994   1.7994   1.9964   1.9967
     1.9967   2.0143   2.0143   2.0143   2.0549   2.0549   2.0549   2.0914
     2.0914   2.4333   2.4333   2.4333   3.3049

          k = 0.1736 0.1736 0.2431 ( 30881 PWs)   bands (ev):

   -69.5130 -69.5128 -69.5127 -69.5126 -69.5126 -69.5125 -69.5124 -69.5123
   -39.5385 -39.5385 -39.5383 -39.5383 -39.5381 -39.5381 -39.5378 -39.5378
   -39.5373 -39.5369 -39.5369 -39.5365 -39.5345 -39.5341 -39.5340 -39.5337
   -39.5331 -39.5331 -39.5329 -39.5329 -39.5327 -39.5327 -39.5325 -39.5325
     0.8570   1.1624   1.3343   1.3374   1.3375   1.3667   1.3959   1.3960
     1.4065   1.4135   1.4388   1.4630   1.4630   1.4788   1.4788   1.5522
     1.5722   1.5771   1.6472   1.6472   1.6773   1.7257   1.7322   1.7770
     1.7770   1.7871   1.7871   1.8179   1.8179   1.8369   1.9470   1.9482
     1.9482   1.9498   1.9625   1.9699   1.9699   2.0018   2.0028   2.0664
     2.0848   2.0935   2.5443   2.5444   2.9533

          k = 0.1736 0.1736-0.3125 ( 30888 PWs)   bands (ev):

   -69.5130 -69.5127 -69.5127 -69.5126 -69.5126 -69.5125 -69.5124 -69.5124
   -39.5384 -39.5384 -39.5383 -39.5383 -39.5380 -39.5380 -39.5379 -39.5379
   -39.5360 -39.5358 -39.5356 -39.5355 -39.5355 -39.5354 -39.5351 -39.5350
   -39.5330 -39.5330 -39.5330 -39.5330 -39.5326 -39.5326 -39.5326 -39.5326
     1.0289   1.0289   1.3501   1.3502   1.3739   1.3740   1.3740   1.3740
     1.4255   1.4255   1.5137   1.5137   1.5137   1.5137   1.5563   1.5563
     1.6056   1.6056   1.6488   1.6489   1.7197   1.7197   1.7197   1.7197
     1.7810   1.7810   1.7810   1.7810   1.7924   1.7924   1.8915   1.8915
     1.9273   1.9273   1.9273   1.9273   1.9508   1.9508   2.0123   2.0123
     2.0764   2.0764   2.7067   2.7067   2.7068

          k = 0.1736 0.2431 0.2431 ( 30890 PWs)   bands (ev):

   -69.5130 -69.5127 -69.5127 -69.5126 -69.5126 -69.5125 -69.5125 -69.5124
   -39.5384 -39.5382 -39.5382 -39.5380 -39.5372 -39.5372 -39.5370 -39.5370
   -39.5368 -39.5368 -39.5366 -39.5366 -39.5344 -39.5343 -39.5341 -39.5341
   -39.5340 -39.5339 -39.5338 -39.5338 -39.5330 -39.5328 -39.5328 -39.5326
     1.0232   1.2734   1.2734   1.3699   1.3949   1.4531   1.4532   1.4533
     1.4538   1.4538   1.4649   1.4650   1.5007   1.5118   1.5563   1.5564
     1.5749   1.6198   1.6457   1.6533   1.6533   1.7210   1.7210   1.7325
     1.7610   1.7611   1.7857   1.8205   1.8217   1.8217   1.8962   1.9006
     1.9117   1.9255   1.9561   1.9573   1.9573   1.9586   1.9586   1.9762
     2.0013   2.1738   2.1738   2.5719   2.6671

          k = 0.1736 0.2431-0.3125 ( 30884 PWs)   bands (ev):

   -69.5130 -69.5127 -69.5127 -69.5126 -69.5126 -69.5125 -69.5125 -69.5124
   -39.5383 -39.5382 -39.5381 -39.5380 -39.5371 -39.5371 -39.5368 -39.5367
   -39.5359 -39.5357 -39.5356 -39.5355 -39.5354 -39.5354 -39.5352 -39.5351
   -39.5343 -39.5342 -39.5339 -39.5338 -39.5330 -39.5329 -39.5327 -39.5327
     1.1732   1.1733   1.3331   1.3331   1.4295   1.4295   1.4679   1.4679
     1.4847   1.4847   1.5276   1.5276   1.5530   1.5530   1.5690   1.5690
     1.6113   1.6113   1.6760   1.6760   1.6934   1.6934   1.7089   1.7089
     1.7272   1.7272   1.7758   1.7758   1.8213   1.8213   1.8687   1.8687
     1.8946   1.8946   1.9131   1.9131   1.9423   1.9423   1.9706   1.9706
     2.0043   2.0043   2.3157   2.3157   2.8458

          k = 0.1736-0.3125-0.3125 ( 30892 PWs)   bands (ev):

   -69.5130 -69.5127 -69.5127 -69.5126 -69.5126 -69.5125 -69.5125 -69.5124
   -39.5383 -39.5382 -39.5382 -39.5381 -39.5358 -39.5358 -39.5357 -39.5356
   -39.5356 -39.5356 -39.5356 -39.5356 -39.5354 -39.5354 -39.5352 -39.5352
   -39.5352 -39.5352 -39.5352 -39.5352 -39.5329 -39.5328 -39.5328 -39.5328
     1.2741   1.2741   1.2741   1.2742   1.4968   1.4969   1.4969   1.4969
     1.5180   1.5180   1.5180   1.5180   1.6203   1.6203   1.6203   1.6203
     1.6204   1.6205   1.6205   1.6205   1.7009   1.7009   1.7009   1.7009
     1.7250   1.7250   1.7250   1.7250   1.8511   1.8511   1.8511   1.8511
     1.8932   1.8932   1.8932   1.8932   1.9132   1.9132   1.9132   1.9132
     2.0811   2.0811   2.0811   2.0812   3.0433

          k = 0.2431 0.2431 0.2431 ( 30877 PWs)   bands (ev):

   -69.5130 -69.5127 -69.5126 -69.5126 -69.5126 -69.5125 -69.5125 -69.5124
   -39.5372 -39.5372 -39.5372 -39.5369 -39.5369 -39.5369 -39.5369 -39.5369
   -39.5369 -39.5367 -39.5367 -39.5367 -39.5343 -39.5342 -39.5342 -39.5341
   -39.5340 -39.5340 -39.5340 -39.5340 -39.5340 -39.5339 -39.5339 -39.5339
     1.1927   1.4097   1.4097   1.4098   1.4653   1.4653   1.4717   1.4717
     1.4717   1.4880   1.4958   1.4958   1.4958   1.5513   1.5513   1.5513
     1.6262   1.6262   1.6496   1.6496   1.6496   1.7425   1.7425   1.7425
     1.7645   1.7645   1.7645   1.7849   1.7849   1.7849   1.8897   1.8897
     1.8897   1.8918   1.8918   1.9030   1.9030   1.9113   1.9113   1.9113
     1.9830   2.2781   2.2781   2.2781   2.7223

          k = 0.2431 0.2431-0.3125 ( 30872 PWs)   bands (ev):

   -69.5130 -69.5127 -69.5126 -69.5126 -69.5126 -69.5125 -69.5125 -69.5125
   -39.5371 -39.5371 -39.5370 -39.5370 -39.5369 -39.5368 -39.5368 -39.5368
   -39.5358 -39.5356 -39.5355 -39.5355 -39.5354 -39.5354 -39.5353 -39.5352
   -39.5342 -39.5342 -39.5341 -39.5341 -39.5340 -39.5340 -39.5339 -39.5339
     1.3294   1.3295   1.4625   1.4625   1.4626   1.4626   1.4799   1.4799
     1.4944   1.4944   1.5563   1.5563   1.5563   1.5563   1.5799   1.5799
     1.6319   1.6319   1.6852   1.6852   1.6914   1.6914   1.6914   1.6914
     1.7711   1.7711   1.7711   1.7711   1.7743   1.7743   1.8437   1.8437
     1.8692   1.8692   1.8692   1.8693   1.8885   1.8885   1.8980   1.8980
     2.0523   2.0523   2.4476   2.4476   2.4477

          k = 0.2431-0.3125-0.3125 ( 30876 PWs)   bands (ev):

   -69.5130 -69.5126 -69.5126 -69.5126 -69.5126 -69.5125 -69.5125 -69.5125
   -39.5370 -39.5369 -39.5369 -39.5369 -39.5358 -39.5358 -39.5356 -39.5356
   -39.5355 -39.5355 -39.5355 -39.5355 -39.5354 -39.5354 -39.5353 -39.5353
   -39.5353 -39.5353 -39.5353 -39.5353 -39.5341 -39.5340 -39.5340 -39.5340
     1.4220   1.4220   1.4220   1.4221   1.5054   1.5054   1.5054   1.5054
     1.5482   1.5482   1.5482   1.5482   1.6263   1.6263   1.6263   1.6263
     1.6306   1.6306   1.6306   1.6306   1.6878   1.6878   1.6878   1.6878
     1.7561   1.7561   1.7562   1.7562   1.8168   1.8168   1.8168   1.8168
     1.8411   1.8411   1.8411   1.8411   1.8603   1.8603   1.8603   1.8603
     2.1794   2.1794   2.1794   2.1795   2.6449

          k =-0.3125-0.3125-0.3125 ( 30976 PWs)   bands (ev):

   -69.5130 -69.5126 -69.5126 -69.5126 -69.5125 -69.5125 -69.5125 -69.5125
   -39.5358 -39.5358 -39.5358 -39.5355 -39.5355 -39.5355 -39.5355 -39.5355
   -39.5355 -39.5355 -39.5355 -39.5355 -39.5355 -39.5355 -39.5355 -39.5355
   -39.5355 -39.5355 -39.5355 -39.5355 -39.5354 -39.5354 -39.5354 -39.5354
     1.4963   1.4963   1.4963   1.4963   1.4964   1.4964   1.4964   1.4964
     1.6310   1.6310   1.6310   1.6310   1.6310   1.6310   1.6310   1.6310
     1.6310   1.6310   1.6310   1.6310   1.6310   1.6310   1.6310   1.6310
     1.8046   1.8046   1.8046   1.8046   1.8046   1.8046   1.8046   1.8046
     1.8046   1.8046   1.8046   1.8046   1.8046   1.8046   1.8046   1.8046
     2.3544   2.3545   2.3545   2.3545   2.3545

     the Fermi energy is     2.0117 ev

!    total energy              =   -3449.61009068 Ry

     total all-electron energy =    -72493.707675 Ry
     estimated scf accuracy    <       0.00000022 Ry
     smearing contrib. (-TS)   =      -0.07471992 Ry
     internal energy E=F+TS    =   -3449.53537077 Ry

     The total energy is F=E-TS. E is the sum of the following terms:
     one-electron contribution =   -1069.87978654 Ry
     hartree contribution      =     546.81613979 Ry
     xc contribution           =    -228.60019783 Ry
     ewald contribution        =    -800.64831872 Ry
     one-center paw contrib.   =   -1897.22320746 Ry

     convergence has been achieved in  19 iterations

     Forces acting on atoms (cartesian axes, Ry/au):

     atom    1 type  1   force =     0.00000000    0.00000000    0.00000000
     atom    2 type  1   force =     0.00000000    0.00000000    0.00000000
     atom    3 type  1   force =     0.00000000    0.00000000    0.00000000
     atom    4 type  1   force =     0.00000000    0.00000000    0.00000000
     atom    5 type  1   force =     0.00000000    0.00000000    0.00000000
     atom    6 type  1   force =     0.00000000    0.00000000    0.00000000
     atom    7 type  1   force =     0.00000000    0.00000000    0.00000000
     atom    8 type  1   force =     0.00000000    0.00000000    0.00000000

     Total force =     0.000000     Total SCF correction =     0.000000


     Computing stress (Cartesian axis) and pressure

          total   stress  (Ry/bohr**3)                   (kbar)     P=      -96.07
  -0.00065305   0.00000000   0.00000000          -96.07        0.00        0.00
   0.00000000  -0.00065305   0.00000000            0.00      -96.07        0.00
   0.00000000   0.00000000  -0.00065305            0.00        0.00      -96.07


     Writing output data file /scratch/ZVTtDDUVBYxGnEBK.save/
 
     init_run     :      2.86s CPU      3.05s WALL (       1 calls)
     electrons    :    109.15s CPU    111.20s WALL (       1 calls)
     forces       :      0.62s CPU      0.64s WALL (       1 calls)
     stress       :      1.20s CPU      1.22s WALL (       1 calls)

     Called by init_run:
     wfcinit      :      2.21s CPU      2.29s WALL (       1 calls)
     potinit      :      0.11s CPU      0.14s WALL (       1 calls)
     hinit0       :      0.09s CPU      0.10s WALL (       1 calls)

     Called by electrons:
     c_bands      :     93.46s CPU     94.81s WALL (      19 calls)
     sum_band     :     13.91s CPU     14.32s WALL (      19 calls)
     v_of_rho     :      0.26s CPU      0.28s WALL (      20 calls)
     newd         :      0.41s CPU      0.55s WALL (      20 calls)
     PAW_pot      :      1.02s CPU      1.15s WALL (      20 calls)
     mix_rho      :      0.10s CPU      0.12s WALL (      19 calls)

     Called by c_bands:
     init_us_2    :      0.53s CPU      0.55s WALL (    1435 calls)
     cegterg      :     90.94s CPU     92.24s WALL (     665 calls)

     Called by *egterg:
     cdiaghg      :     11.64s CPU     11.76s WALL (    2171 calls)
     h_psi        :     63.82s CPU     64.91s WALL (    2206 calls)
     s_psi        :      1.13s CPU      1.15s WALL (    2206 calls)
     g_psi        :      0.10s CPU      0.10s WALL (    1506 calls)

     Called by h_psi:
     h_psi:calbec :      3.30s CPU      3.34s WALL (    2206 calls)
     vloc_psi     :     58.93s CPU     59.96s WALL (    2206 calls)
     add_vuspsi   :      1.36s CPU      1.38s WALL (    2206 calls)

     General routines
     calbec       :      4.94s CPU      4.99s WALL (    3046 calls)
     fft          :      0.40s CPU      0.42s WALL (     283 calls)
     ffts         :      0.02s CPU      0.02s WALL (      39 calls)
     fftw         :     68.06s CPU     69.25s WALL (  284651 calls)
     interpolate  :      0.03s CPU      0.04s WALL (      20 calls)
 
     Parallel routines
     fft_scatt_xy :      5.04s CPU      5.13s WALL (  284973 calls)
     fft_scatt_yz :     54.85s CPU     55.84s WALL (  284973 calls)
 
     PWSCF        :   1m58.03s CPU   2m 1.04s WALL

 
   This run was terminated on:   1:26:59  26Nov2021            

=------------------------------------------------------------------------------=
   JOB DONE.
=------------------------------------------------------------------------------=
