
     Program PWSCF v.6.7MaX starts on 26Nov2021 at  1:27:20 

     This program is part of the open-source Quantum ESPRESSO suite
     for quantum simulation of materials; please cite
         "P. Giannozzi et al., J. Phys.:Condens. Matter 21 395502 (2009);
         "P. Giannozzi et al., J. Phys.:Condens. Matter 29 465901 (2017);
          URL http://www.quantum-espresso.org", 
     in publications or presentations arising from this work. More details at
     http://www.quantum-espresso.org/quote

     Parallel version (MPI & OpenMP), running on      72 processor cores
     Number of MPI processes:                72
     Threads/MPI process:                     1

     MPI processes distributed on     1 nodes
     R & G space division:  proc/nbgrp/npool/nimage =      72
     Reading input from sc_8.in
Warning: card &CELL ignored
Warning: card CELL_DYNAMICS = 'BFGS', ignored
Warning: card CELL_FACTOR = 2.0, ignored
Warning: card PRESS = 0.0, ignored
Warning: card / ignored

     Current dimensions of program PWSCF are:
     Max number of different atomic species (ntypx) = 10
     Max number of k-points (npk) =  40000
     Max angular momentum in pseudopotentials (lmaxx) =  3
     file Ru.pbe-spn-kjpaw_psl.1.0.0.UPF: wavefunction(s)  4D renormalized

     Subspace diagonalization in iterative solution of the eigenvalue problem:
     one sub-group per band group will be used
     ELPA distributed-memory algorithm (size of sub-group:  8*  8 procs)

     Found symmetry operation: I + (  0.0000  0.0000 -0.5000)
     This is a supercell, fractional translations are disabled
     Message from routine setup:
     using ibrav=0 with symmetry is DISCOURAGED, use correct ibrav instead
 
     Parallelization info
     --------------------
     sticks:   dense  smooth     PW     G-vecs:    dense   smooth      PW
     Min         112      74     20                 7666     4116     580
     Max         113      75     21                 7675     4123     585
     Sum        8109    5385   1465               552233   296699   41923
 


     bravais-lattice index     =            0
     lattice parameter (alat)  =       9.0720  a.u.
     unit-cell volume          =    3668.2243 (a.u.)^3
     number of atoms/cell      =            8
     number of atomic types    =            1
     number of electrons       =       128.00
     number of Kohn-Sham states=           77
     kinetic-energy cutoff     =      71.0000  Ry
     charge density cutoff     =     430.0000  Ry
     scf convergence threshold =      1.0E-06
     mixing beta               =       0.1000
     number of iterations used =           10  TF        mixing
     Exchange-correlation= SLA  PW   PBX  PBC
                           (   1   4   3   4   0   0   0)

     celldm(1)=   9.072000  celldm(2)=   0.000000  celldm(3)=   0.000000
     celldm(4)=   0.000000  celldm(5)=   0.000000  celldm(6)=   0.000000

     crystal axes: (cart. coord. in units of alat)
               a(1) = (   1.700000   0.000000   0.000000 )  
               a(2) = (   0.000000   1.700000   0.000000 )  
               a(3) = (   0.000000   0.000000   1.700000 )  

     reciprocal axes: (cart. coord. in units 2 pi/alat)
               b(1) = (  0.588235  0.000000  0.000000 )  
               b(2) = (  0.000000  0.588235  0.000000 )  
               b(3) = (  0.000000  0.000000  0.588235 )  


     PseudoPot. # 1 for Ru read from file:
     /rds/homes/b/bxp912/pp/Ru.pbe-spn-kjpaw_psl.1.0.0.UPF
     MD5 check sum: 0ae1f594dea09af7be8575c3a481d1ae
     Pseudo is Projector augmented-wave + core cor, Zval = 16.0
     Generated using "atomic" code by A. Dal Corso  v.5.1
     Shape of augmentation charge: PSQ
     Using radial grid of 1233 points,  6 beta functions with: 
                l(1) =   0
                l(2) =   0
                l(3) =   1
                l(4) =   1
                l(5) =   2
                l(6) =   2
     Q(r) pseudized with 0 coefficients 


     atomic species   valence    mass     pseudopotential
        Ru            16.00   101.07000     Ru( 1.00)

     48 Sym. Ops., with inversion, found



   Cartesian axes

     site n.     atom                  positions (alat units)
         1           Ru  tau(   1) = (   0.0000000   0.0000000   0.0000000  )
         2           Ru  tau(   2) = (   0.0000000   0.0000000   0.8500000  )
         3           Ru  tau(   3) = (   0.0000000   0.8500000   0.0000000  )
         4           Ru  tau(   4) = (   0.0000000   0.8500000   0.8500000  )
         5           Ru  tau(   5) = (   0.8500000   0.0000000   0.0000000  )
         6           Ru  tau(   6) = (   0.8500000   0.0000000   0.8500000  )
         7           Ru  tau(   7) = (   0.8500000   0.8500000   0.0000000  )
         8           Ru  tau(   8) = (   0.8500000   0.8500000   0.8500000  )

     number of k points=    35  Marzari-Vanderbilt smearing, width (Ry)=  0.0400
                       cart. coord. in units 2pi/alat
        k(    1) = (   0.0326797   0.0326797   0.0326797), wk =   0.0219479
        k(    2) = (   0.0326797   0.0326797   0.0980392), wk =   0.0658436
        k(    3) = (   0.0326797   0.0326797   0.1633987), wk =   0.0658436
        k(    4) = (   0.0326797   0.0326797   0.2287582), wk =   0.0658436
        k(    5) = (   0.0326797   0.0326797  -0.2941176), wk =   0.0329218
        k(    6) = (   0.0326797   0.0980392   0.0980392), wk =   0.0658436
        k(    7) = (   0.0326797   0.0980392   0.1633987), wk =   0.1316872
        k(    8) = (   0.0326797   0.0980392   0.2287582), wk =   0.1316872
        k(    9) = (   0.0326797   0.0980392  -0.2941176), wk =   0.0658436
        k(   10) = (   0.0326797   0.1633987   0.1633987), wk =   0.0658436
        k(   11) = (   0.0326797   0.1633987   0.2287582), wk =   0.1316872
        k(   12) = (   0.0326797   0.1633987  -0.2941176), wk =   0.0658436
        k(   13) = (   0.0326797   0.2287582   0.2287582), wk =   0.0658436
        k(   14) = (   0.0326797   0.2287582  -0.2941176), wk =   0.0658436
        k(   15) = (   0.0326797  -0.2941176  -0.2941176), wk =   0.0164609
        k(   16) = (   0.0980392   0.0980392   0.0980392), wk =   0.0219479
        k(   17) = (   0.0980392   0.0980392   0.1633987), wk =   0.0658436
        k(   18) = (   0.0980392   0.0980392   0.2287582), wk =   0.0658436
        k(   19) = (   0.0980392   0.0980392  -0.2941176), wk =   0.0329218
        k(   20) = (   0.0980392   0.1633987   0.1633987), wk =   0.0658436
        k(   21) = (   0.0980392   0.1633987   0.2287582), wk =   0.1316872
        k(   22) = (   0.0980392   0.1633987  -0.2941176), wk =   0.0658436
        k(   23) = (   0.0980392   0.2287582   0.2287582), wk =   0.0658436
        k(   24) = (   0.0980392   0.2287582  -0.2941176), wk =   0.0658436
        k(   25) = (   0.0980392  -0.2941176  -0.2941176), wk =   0.0164609
        k(   26) = (   0.1633987   0.1633987   0.1633987), wk =   0.0219479
        k(   27) = (   0.1633987   0.1633987   0.2287582), wk =   0.0658436
        k(   28) = (   0.1633987   0.1633987  -0.2941176), wk =   0.0329218
        k(   29) = (   0.1633987   0.2287582   0.2287582), wk =   0.0658436
        k(   30) = (   0.1633987   0.2287582  -0.2941176), wk =   0.0658436
        k(   31) = (   0.1633987  -0.2941176  -0.2941176), wk =   0.0164609
        k(   32) = (   0.2287582   0.2287582   0.2287582), wk =   0.0219479
        k(   33) = (   0.2287582   0.2287582  -0.2941176), wk =   0.0329218
        k(   34) = (   0.2287582  -0.2941176  -0.2941176), wk =   0.0164609
        k(   35) = (  -0.2941176  -0.2941176  -0.2941176), wk =   0.0027435

     Dense  grid:   552233 G-vectors     FFT dimensions: ( 108, 108, 108)

     Smooth grid:   296699 G-vectors     FFT dimensions: (  90,  90,  90)

     Estimated max dynamical RAM per process >      54.21 MB

     Estimated total dynamical RAM >       3.81 GB

     Check: negative core charge=   -0.000001

     Initial potential from superposition of free atoms

     starting charge  127.99490, renormalised to  128.00000
     Starting wfcs are   80 randomized atomic wfcs
     Checking if some PAW data can be deallocated... 

     total cpu time spent up to now is        6.1 secs

     Self-consistent Calculation

     iteration #  1     ecut=    71.00 Ry     beta= 0.10
     Davidson diagonalization with overlap
     ethr =  1.00E-02,  avg # of iterations =  2.0

     total cpu time spent up to now is       12.0 secs

     total energy              =   -3449.68085864 Ry
     estimated scf accuracy    <       3.99530820 Ry

     iteration #  2     ecut=    71.00 Ry     beta= 0.10
     Davidson diagonalization with overlap
     ethr =  3.12E-03,  avg # of iterations =  1.0

     total cpu time spent up to now is       17.6 secs

     total energy              =   -3449.19065864 Ry
     estimated scf accuracy    <       2.56171466 Ry

     iteration #  3     ecut=    71.00 Ry     beta= 0.10
     Davidson diagonalization with overlap
     ethr =  2.00E-03,  avg # of iterations =  1.1

     total cpu time spent up to now is       24.5 secs

     total energy              =   -3449.19004799 Ry
     estimated scf accuracy    <       5.16623054 Ry

     iteration #  4     ecut=    71.00 Ry     beta= 0.10
     Davidson diagonalization with overlap
     ethr =  2.00E-03,  avg # of iterations =  1.1

     total cpu time spent up to now is       30.3 secs

     total energy              =   -3449.30564970 Ry
     estimated scf accuracy    <       0.21344169 Ry

     iteration #  5     ecut=    71.00 Ry     beta= 0.10
     Davidson diagonalization with overlap
     ethr =  1.67E-04,  avg # of iterations =  4.2

     total cpu time spent up to now is       37.5 secs

     total energy              =   -3449.28626100 Ry
     estimated scf accuracy    <       0.07095019 Ry

     iteration #  6     ecut=    71.00 Ry     beta= 0.10
     Davidson diagonalization with overlap
     ethr =  5.54E-05,  avg # of iterations =  4.7

     total cpu time spent up to now is       48.0 secs

     total energy              =   -3449.32241801 Ry
     estimated scf accuracy    <       0.40729346 Ry

     iteration #  7     ecut=    71.00 Ry     beta= 0.10
     Davidson diagonalization with overlap
     ethr =  5.54E-05,  avg # of iterations =  1.0

     total cpu time spent up to now is       54.5 secs

     total energy              =   -3449.30244375 Ry
     estimated scf accuracy    <       0.29310549 Ry

     iteration #  8     ecut=    71.00 Ry     beta= 0.10
     Davidson diagonalization with overlap
     ethr =  5.54E-05,  avg # of iterations =  1.0

     total cpu time spent up to now is       59.8 secs

     total energy              =   -3449.30101770 Ry
     estimated scf accuracy    <       0.10895134 Ry

     iteration #  9     ecut=    71.00 Ry     beta= 0.10
     Davidson diagonalization with overlap
     ethr =  5.54E-05,  avg # of iterations =  1.0

     total cpu time spent up to now is       65.2 secs

     total energy              =   -3449.29505828 Ry
     estimated scf accuracy    <       0.08594007 Ry

     iteration # 10     ecut=    71.00 Ry     beta= 0.10
     Davidson diagonalization with overlap
     ethr =  5.54E-05,  avg # of iterations =  1.2

     total cpu time spent up to now is       72.1 secs

     total energy              =   -3449.29711491 Ry
     estimated scf accuracy    <       0.03105961 Ry

     iteration # 11     ecut=    71.00 Ry     beta= 0.10
     Davidson diagonalization with overlap
     ethr =  2.43E-05,  avg # of iterations =  1.2

     total cpu time spent up to now is       78.4 secs

     total energy              =   -3449.29712103 Ry
     estimated scf accuracy    <       0.03963614 Ry

     iteration # 12     ecut=    71.00 Ry     beta= 0.10
     Davidson diagonalization with overlap
     ethr =  2.43E-05,  avg # of iterations =  1.0

     total cpu time spent up to now is       85.0 secs

     total energy              =   -3449.29740958 Ry
     estimated scf accuracy    <       0.03836455 Ry

     iteration # 13     ecut=    71.00 Ry     beta= 0.10
     Davidson diagonalization with overlap
     ethr =  2.43E-05,  avg # of iterations =  1.0

     total cpu time spent up to now is       90.5 secs

     total energy              =   -3449.29478937 Ry
     estimated scf accuracy    <       0.00957663 Ry

     iteration # 14     ecut=    71.00 Ry     beta= 0.10
     Davidson diagonalization with overlap
     ethr =  7.48E-06,  avg # of iterations =  4.4

     total cpu time spent up to now is       98.3 secs

     total energy              =   -3449.29704876 Ry
     estimated scf accuracy    <       0.00162804 Ry

     iteration # 15     ecut=    71.00 Ry     beta= 0.10
     Davidson diagonalization with overlap
     ethr =  1.27E-06,  avg # of iterations =  5.1

     total cpu time spent up to now is      107.8 secs

     total energy              =   -3449.29898400 Ry
     estimated scf accuracy    <       0.00618596 Ry

     iteration # 16     ecut=    71.00 Ry     beta= 0.10
     Davidson diagonalization with overlap
     ethr =  1.27E-06,  avg # of iterations =  2.8

     total cpu time spent up to now is      115.6 secs

     total energy              =   -3449.29642129 Ry
     estimated scf accuracy    <       0.01456946 Ry

     iteration # 17     ecut=    71.00 Ry     beta= 0.10
     Davidson diagonalization with overlap
     ethr =  1.27E-06,  avg # of iterations =  3.0

     total cpu time spent up to now is      122.7 secs

     total energy              =   -3449.29705101 Ry
     estimated scf accuracy    <       0.00272132 Ry

     iteration # 18     ecut=    71.00 Ry     beta= 0.10
     Davidson diagonalization with overlap
     ethr =  1.27E-06,  avg # of iterations =  1.0

     total cpu time spent up to now is      128.8 secs

     total energy              =   -3449.29664252 Ry
     estimated scf accuracy    <       0.00195396 Ry

     iteration # 19     ecut=    71.00 Ry     beta= 0.10
     Davidson diagonalization with overlap
     ethr =  1.27E-06,  avg # of iterations =  3.3

     total cpu time spent up to now is      135.8 secs

     total energy              =   -3449.29687119 Ry
     estimated scf accuracy    <       0.00017221 Ry

     iteration # 20     ecut=    71.00 Ry     beta= 0.10
     Davidson diagonalization with overlap
     ethr =  1.35E-07,  avg # of iterations =  3.0

     total cpu time spent up to now is      143.7 secs

     total energy              =   -3449.29677505 Ry
     estimated scf accuracy    <       0.00039731 Ry

     iteration # 21     ecut=    71.00 Ry     beta= 0.10
     Davidson diagonalization with overlap
     ethr =  1.35E-07,  avg # of iterations =  3.6

     total cpu time spent up to now is      151.0 secs

     total energy              =   -3449.29681329 Ry
     estimated scf accuracy    <       0.00002055 Ry

     iteration # 22     ecut=    71.00 Ry     beta= 0.10
     Davidson diagonalization with overlap
     ethr =  1.61E-08,  avg # of iterations =  5.2

     total cpu time spent up to now is      160.2 secs

     total energy              =   -3449.29682533 Ry
     estimated scf accuracy    <       0.00002155 Ry

     iteration # 23     ecut=    71.00 Ry     beta= 0.10
     Davidson diagonalization with overlap
     ethr =  1.61E-08,  avg # of iterations =  1.0

     total cpu time spent up to now is      165.8 secs

     total energy              =   -3449.29682406 Ry
     estimated scf accuracy    <       0.00001125 Ry

     iteration # 24     ecut=    71.00 Ry     beta= 0.10
     Davidson diagonalization with overlap
     ethr =  8.79E-09,  avg # of iterations =  1.2

     total cpu time spent up to now is      172.0 secs

     total energy              =   -3449.29682376 Ry
     estimated scf accuracy    <       0.00000317 Ry

     iteration # 25     ecut=    71.00 Ry     beta= 0.10
     Davidson diagonalization with overlap
     ethr =  2.47E-09,  avg # of iterations =  5.2

     total cpu time spent up to now is      180.4 secs

     total energy              =   -3449.29682466 Ry
     estimated scf accuracy    <       0.00000166 Ry

     iteration # 26     ecut=    71.00 Ry     beta= 0.10
     Davidson diagonalization with overlap
     ethr =  1.30E-09,  avg # of iterations =  2.8

     total cpu time spent up to now is      187.3 secs

     End of self-consistent calculation

          k = 0.0327 0.0327 0.0327 ( 37094 PWs)   bands (ev):

   -70.3873 -70.3872 -70.3872 -70.3872 -70.3871 -70.3871 -70.3871 -70.3870
   -40.4314 -40.4314 -40.4314 -40.4312 -40.4312 -40.4312 -40.4311 -40.4311
   -40.4311 -40.4310 -40.4310 -40.4310 -40.4279 -40.4279 -40.4279 -40.4277
   -40.4277 -40.4277 -40.4276 -40.4276 -40.4276 -40.4274 -40.4274 -40.4274
    -0.5337   0.2452   0.2452   0.2452   0.3502   0.3502   0.4149   0.4149
     0.4150   0.4169   0.4169   0.4169   0.4565   0.4566   0.4566   0.5139
     0.5165   0.5165   0.8205   0.8205   0.8206   0.8238   0.8239   0.8239
     0.8566   0.8566   0.8566   0.8569   0.8569   0.8569   1.0285   1.0291
     1.0291   1.0472   1.0472   1.0472   1.2138   1.2138   1.2138   1.2278
     1.2278   1.9485   1.9485   1.9485   2.9435

          k = 0.0327 0.0327 0.0980 ( 37052 PWs)   bands (ev):

   -70.3873 -70.3872 -70.3872 -70.3872 -70.3871 -70.3871 -70.3871 -70.3870
   -40.4313 -40.4313 -40.4312 -40.4312 -40.4312 -40.4311 -40.4311 -40.4310
   -40.4310 -40.4310 -40.4309 -40.4308 -40.4281 -40.4279 -40.4279 -40.4279
   -40.4278 -40.4277 -40.4277 -40.4276 -40.4276 -40.4276 -40.4274 -40.4274
    -0.4777   0.2184   0.2848   0.2848   0.3541   0.3728   0.4110   0.4227
     0.4357   0.4357   0.4358   0.4358   0.4508   0.4508   0.5004   0.5091
     0.5331   0.5343   0.7891   0.7891   0.8249   0.8249   0.8320   0.8324
     0.8328   0.8356   0.8546   0.8547   0.8677   0.8677   1.0157   1.0160
     1.0300   1.0352   1.0352   1.0461   1.1690   1.1690   1.1801   1.2148
     1.2270   1.5730   1.9716   1.9716   3.0154

          k = 0.0327 0.0327 0.1634 ( 37063 PWs)   bands (ev):

   -70.3873 -70.3872 -70.3872 -70.3872 -70.3871 -70.3871 -70.3871 -70.3870
   -40.4313 -40.4313 -40.4312 -40.4312 -40.4311 -40.4311 -40.4310 -40.4310
   -40.4308 -40.4306 -40.4305 -40.4303 -40.4285 -40.4283 -40.4282 -40.4280
   -40.4278 -40.4278 -40.4277 -40.4277 -40.4276 -40.4276 -40.4274 -40.4274
    -0.3709   0.1611   0.3388   0.3388   0.3613   0.4035   0.4213   0.4337
     0.4387   0.4388   0.4734   0.4734   0.4973   0.4974   0.4978   0.5672
     0.5684   0.5839   0.7325   0.7325   0.7888   0.7891   0.8287   0.8287
     0.8508   0.8508   0.8530   0.8579   0.8883   0.8883   0.9916   0.9918
     1.0129   1.0129   1.0321   1.0440   1.0774   1.0774   1.0903   1.1889
     1.2165   1.2255   2.0192   2.0192   2.6689

          k = 0.0327 0.0327 0.2288 ( 37089 PWs)   bands (ev):

   -70.3873 -70.3873 -70.3872 -70.3872 -70.3871 -70.3871 -70.3871 -70.3870
   -40.4313 -40.4313 -40.4312 -40.4312 -40.4311 -40.4311 -40.4310 -40.4310
   -40.4303 -40.4300 -40.4300 -40.4298 -40.4290 -40.4288 -40.4287 -40.4285
   -40.4278 -40.4278 -40.4277 -40.4277 -40.4275 -40.4275 -40.4275 -40.4275
    -0.2262   0.0661   0.3711   0.3770   0.3771   0.3936   0.4228   0.4228
     0.4486   0.4827   0.5051   0.5261   0.5261   0.6148   0.6161   0.6169
     0.6169   0.6652   0.6652   0.6970   0.7331   0.7345   0.8338   0.8338
     0.8456   0.8456   0.8475   0.8884   0.9097   0.9135   0.9135   0.9450
     0.9450   0.9595   0.9597   0.9694   0.9833   0.9833   1.0349   1.0412
     1.2187   1.2235   2.0972   2.0972   2.4035

          k = 0.0327 0.0327-0.2941 ( 37064 PWs)   bands (ev):

   -70.3873 -70.3873 -70.3872 -70.3872 -70.3872 -70.3871 -70.3870 -70.3870
   -40.4313 -40.4313 -40.4313 -40.4313 -40.4310 -40.4310 -40.4310 -40.4310
   -40.4297 -40.4296 -40.4294 -40.4294 -40.4294 -40.4293 -40.4291 -40.4291
   -40.4278 -40.4278 -40.4277 -40.4277 -40.4275 -40.4275 -40.4275 -40.4275
    -0.0692  -0.0692   0.3823   0.3823   0.4026   0.4026   0.4026   0.4026
     0.4656   0.4656   0.5907   0.5907   0.5907   0.5907   0.6443   0.6443
     0.6715   0.6715   0.6730   0.6730   0.7789   0.7790   0.7790   0.7790
     0.8335   0.8335   0.8397   0.8397   0.8397   0.8397   0.9236   0.9236
     0.9250   0.9250   0.9504   0.9504   0.9504   0.9504   1.0380   1.0380
     1.2211   1.2211   2.2187   2.2187   2.2187

          k = 0.0327 0.0980 0.0980 ( 37053 PWs)   bands (ev):

   -70.3873 -70.3872 -70.3872 -70.3872 -70.3871 -70.3871 -70.3871 -70.3870
   -40.4313 -40.4312 -40.4311 -40.4311 -40.4311 -40.4310 -40.4310 -40.4310
   -40.4309 -40.4309 -40.4308 -40.4307 -40.4281 -40.4281 -40.4279 -40.4279
   -40.4278 -40.4278 -40.4278 -40.4277 -40.4276 -40.4276 -40.4276 -40.4274
    -0.4214   0.2595   0.2595   0.3293   0.3676   0.3852   0.4313   0.4314
     0.4416   0.4416   0.4416   0.4508   0.4569   0.4944   0.4944   0.5197
     0.5349   0.5510   0.7797   0.8006   0.8007   0.8052   0.8303   0.8303
     0.8366   0.8366   0.8439   0.8439   0.8642   0.8671   1.0026   1.0155
     1.0186   1.0228   1.0340   1.0340   1.1313   1.1583   1.1709   1.1710
     1.2015   1.6039   1.6039   1.9953   2.7001

          k = 0.0327 0.0980 0.1634 ( 37060 PWs)   bands (ev):

   -70.3873 -70.3872 -70.3872 -70.3872 -70.3871 -70.3871 -70.3871 -70.3870
   -40.4313 -40.4312 -40.4311 -40.4311 -40.4310 -40.4310 -40.4309 -40.4308
   -40.4308 -40.4306 -40.4305 -40.4303 -40.4285 -40.4283 -40.4282 -40.4280
   -40.4280 -40.4279 -40.4278 -40.4278 -40.4277 -40.4276 -40.4276 -40.4274
    -0.3140   0.2058   0.3187   0.3784   0.3905   0.4232   0.4292   0.4306
     0.4522   0.4769   0.4845   0.4893   0.4910   0.5032   0.5133   0.5645
     0.5776   0.5840   0.7315   0.7458   0.7862   0.8013   0.8027   0.8199
     0.8260   0.8402   0.8586   0.8617   0.8645   0.8865   0.9781   0.9927
     0.9998   1.0116   1.0195   1.0318   1.0518   1.0794   1.0822   1.1742
     1.1908   1.2223   1.6634   2.0443   2.3596

          k = 0.0327 0.0980 0.2288 ( 37066 PWs)   bands (ev):

   -70.3873 -70.3873 -70.3872 -70.3872 -70.3871 -70.3871 -70.3871 -70.3870
   -40.4313 -40.4312 -40.4311 -40.4311 -40.4310 -40.4310 -40.4308 -40.4308
   -40.4302 -40.4300 -40.4299 -40.4298 -40.4290 -40.4288 -40.4287 -40.4285
   -40.4280 -40.4279 -40.4278 -40.4278 -40.4277 -40.4277 -40.4275 -40.4275
    -0.1692   0.1162   0.3630   0.3891   0.4126   0.4137   0.4267   0.4666
     0.4675   0.4993   0.5110   0.5307   0.5407   0.5986   0.6118   0.6212
     0.6301   0.6671   0.6874   0.6874   0.7306   0.7508   0.8074   0.8120
     0.8202   0.8452   0.8567   0.8843   0.8880   0.9102   0.9330   0.9434
     0.9463   0.9593   0.9610   0.9626   0.9697   0.9819   1.0223   1.0290
     1.1781   1.1862   1.7536   2.0834   2.1250

          k = 0.0327 0.0980-0.2941 ( 37038 PWs)   bands (ev):

   -70.3873 -70.3873 -70.3872 -70.3872 -70.3871 -70.3871 -70.3870 -70.3870
   -40.4313 -40.4313 -40.4310 -40.4310 -40.4310 -40.4310 -40.4308 -40.4308
   -40.4296 -40.4296 -40.4294 -40.4294 -40.4294 -40.4293 -40.4291 -40.4291
   -40.4280 -40.4280 -40.4277 -40.4277 -40.4277 -40.4277 -40.4275 -40.4275
    -0.0143  -0.0143   0.3919   0.3919   0.4008   0.4008   0.4491   0.4491
     0.4830   0.4830   0.5941   0.5941   0.5997   0.5997   0.6469   0.6470
     0.6686   0.6686   0.6843   0.6843   0.7742   0.7742   0.7801   0.7801
     0.8137   0.8137   0.8297   0.8298   0.8510   0.8510   0.9141   0.9141
     0.9263   0.9263   0.9381   0.9381   0.9488   0.9488   1.0256   1.0256
     1.1822   1.1822   1.8866   1.8866   2.2504

          k = 0.0327 0.1634 0.1634 ( 37057 PWs)   bands (ev):

   -70.3873 -70.3872 -70.3872 -70.3872 -70.3871 -70.3871 -70.3871 -70.3870
   -40.4313 -40.4312 -40.4311 -40.4310 -40.4307 -40.4307 -40.4306 -40.4306
   -40.4305 -40.4305 -40.4304 -40.4303 -40.4285 -40.4284 -40.4283 -40.4283
   -40.4282 -40.4282 -40.4280 -40.4280 -40.4278 -40.4277 -40.4276 -40.4275
    -0.2060   0.2751   0.2751   0.4062   0.4164   0.4546   0.4761   0.4761
     0.4819   0.4880   0.4880   0.5211   0.5233   0.5328   0.5664   0.5664
     0.5694   0.6149   0.7167   0.7663   0.7663   0.7702   0.7812   0.7812
     0.8232   0.8233   0.8621   0.8621   0.8794   0.8860   0.9534   0.9758
     0.9918   0.9951   0.9990   1.0092   1.0092   1.0386   1.0895   1.0896
     1.1444   1.2814   1.2814   2.0036   2.0967

          k = 0.0327 0.1634 0.2288 ( 37060 PWs)   bands (ev):

   -70.3873 -70.3872 -70.3872 -70.3872 -70.3871 -70.3871 -70.3871 -70.3870
   -40.4313 -40.4312 -40.4311 -40.4310 -40.4307 -40.4306 -40.4304 -40.4304
   -40.4302 -40.4300 -40.4299 -40.4298 -40.4290 -40.4288 -40.4287 -40.4286
   -40.4284 -40.4283 -40.4282 -40.4281 -40.4278 -40.4277 -40.4276 -40.4275
    -0.0626   0.2003   0.3331   0.3965   0.4279   0.4607   0.5012   0.5194
     0.5240   0.5292   0.5379   0.5528   0.5676   0.5771   0.6075   0.6299
     0.6577   0.6684   0.6753   0.7138   0.7250   0.7632   0.7680   0.7747
     0.7756   0.8444   0.8668   0.8772   0.8911   0.8932   0.9163   0.9226
     0.9441   0.9452   0.9633   0.9728   0.9792   0.9852   0.9992   1.0071
     1.0978   1.1193   1.3678   1.7069   2.1830

          k = 0.0327 0.1634-0.2941 ( 37064 PWs)   bands (ev):

   -70.3873 -70.3873 -70.3872 -70.3872 -70.3871 -70.3871 -70.3871 -70.3870
   -40.4312 -40.4312 -40.4311 -40.4311 -40.4306 -40.4306 -40.4304 -40.4304
   -40.4296 -40.4296 -40.4295 -40.4295 -40.4294 -40.4293 -40.4292 -40.4291
   -40.4284 -40.4284 -40.4281 -40.4281 -40.4277 -40.4277 -40.4275 -40.4275
     0.0847   0.0847   0.3702   0.3702   0.4447   0.4447   0.5158   0.5158
     0.5358   0.5358   0.5999   0.6000   0.6145   0.6145   0.6514   0.6514
     0.6629   0.6629   0.7060   0.7060   0.7646   0.7646   0.7679   0.7679
     0.7808   0.7808   0.8214   0.8215   0.8722   0.8722   0.8995   0.8995
     0.9186   0.9186   0.9293   0.9293   0.9458   0.9458   1.0027   1.0027
     1.1070   1.1070   1.4995   1.4995   2.3160

          k = 0.0327 0.2288 0.2288 ( 37055 PWs)   bands (ev):

   -70.3873 -70.3872 -70.3872 -70.3872 -70.3871 -70.3871 -70.3871 -70.3871
   -40.4312 -40.4312 -40.4311 -40.4311 -40.4302 -40.4302 -40.4301 -40.4301
   -40.4299 -40.4299 -40.4299 -40.4298 -40.4290 -40.4289 -40.4289 -40.4289
   -40.4287 -40.4287 -40.4286 -40.4286 -40.4277 -40.4277 -40.4276 -40.4275
     0.0727   0.2818   0.2818   0.3715   0.4881   0.5493   0.5493   0.5549
     0.5550   0.5564   0.5571   0.6025   0.6160   0.6229   0.6440   0.6622
     0.6622   0.6734   0.6955   0.7183   0.7183   0.7234   0.7264   0.7264
     0.7999   0.7999   0.8371   0.8954   0.8956   0.8956   0.8962   0.9013
     0.9138   0.9159   0.9624   0.9727   0.9753   0.9753   0.9872   0.9873
     1.0489   1.0489   1.0490   1.3828   2.2779

          k = 0.0327 0.2288-0.2941 ( 37054 PWs)   bands (ev):

   -70.3872 -70.3872 -70.3872 -70.3872 -70.3871 -70.3871 -70.3871 -70.3871
   -40.4312 -40.4312 -40.4311 -40.4311 -40.4301 -40.4301 -40.4299 -40.4299
   -40.4296 -40.4295 -40.4295 -40.4295 -40.4293 -40.4293 -40.4292 -40.4292
   -40.4289 -40.4289 -40.4286 -40.4286 -40.4277 -40.4277 -40.4276 -40.4276
     0.1972   0.1972   0.3361   0.3361   0.5306   0.5306   0.5590   0.5590
     0.6041   0.6041   0.6289   0.6289   0.6482   0.6482   0.6569   0.6570
     0.6585   0.6585   0.7138   0.7138   0.7337   0.7337   0.7442   0.7442
     0.7764   0.7764   0.8037   0.8037   0.8937   0.8937   0.9005   0.9005
     0.9048   0.9048   0.9339   0.9339   0.9419   0.9420   0.9725   0.9725
     1.0080   1.0080   1.1635   1.1635   2.4215

          k = 0.0327-0.2941-0.2941 ( 37056 PWs)   bands (ev):

   -70.3872 -70.3872 -70.3872 -70.3872 -70.3871 -70.3871 -70.3871 -70.3871
   -40.4312 -40.4312 -40.4311 -40.4311 -40.4295 -40.4295 -40.4295 -40.4295
   -40.4295 -40.4295 -40.4295 -40.4295 -40.4293 -40.4293 -40.4293 -40.4292
   -40.4292 -40.4292 -40.4292 -40.4292 -40.4277 -40.4277 -40.4276 -40.4276
     0.2828   0.2828   0.2828   0.2828   0.5959   0.5959   0.5959   0.5959
     0.6254   0.6254   0.6254   0.6254   0.6688   0.6688   0.6689   0.6689
     0.6868   0.6868   0.6868   0.6868   0.7520   0.7520   0.7520   0.7520
     0.7612   0.7612   0.7612   0.7613   0.9216   0.9216   0.9216   0.9216
     0.9257   0.9257   0.9257   0.9257   0.9429   0.9429   0.9429   0.9429
     0.9598   0.9598   0.9598   0.9598   2.5773

          k = 0.0980 0.0980 0.0980 ( 37050 PWs)   bands (ev):

   -70.3873 -70.3872 -70.3872 -70.3872 -70.3871 -70.3871 -70.3871 -70.3870
   -40.4311 -40.4311 -40.4311 -40.4310 -40.4310 -40.4310 -40.4309 -40.4309
   -40.4309 -40.4308 -40.4308 -40.4307 -40.4281 -40.4281 -40.4280 -40.4279
   -40.4279 -40.4279 -40.4278 -40.4278 -40.4278 -40.4276 -40.4276 -40.4276
    -0.3645   0.3048   0.3048   0.3048   0.3890   0.3890   0.4466   0.4466
     0.4466   0.4587   0.4587   0.4587   0.4891   0.4891   0.4891   0.5302
     0.5521   0.5521   0.7908   0.7908   0.7908   0.8175   0.8176   0.8176
     0.8402   0.8402   0.8402   0.8431   0.8431   0.8431   1.0013   1.0051
     1.0051   1.0215   1.0215   1.0215   1.1339   1.1339   1.1340   1.1571
     1.1571   1.6347   1.6347   1.6348   2.7432

          k = 0.0980 0.0980 0.1634 ( 37077 PWs)   bands (ev):

   -70.3873 -70.3872 -70.3872 -70.3872 -70.3871 -70.3871 -70.3871 -70.3870
   -40.4311 -40.4311 -40.4310 -40.4310 -40.4309 -40.4309 -40.4308 -40.4308
   -40.4308 -40.4306 -40.4305 -40.4303 -40.4284 -40.4283 -40.4282 -40.4280
   -40.4280 -40.4280 -40.4279 -40.4279 -40.4278 -40.4278 -40.4277 -40.4277
    -0.2563   0.2534   0.3704   0.3704   0.3962   0.4354   0.4389   0.4697
     0.4727   0.4727   0.4959   0.4960   0.4981   0.4981   0.5278   0.5713
     0.5770   0.5852   0.7446   0.7446   0.7974   0.8000   0.8077   0.8148
     0.8148   0.8372   0.8373   0.8409   0.8625   0.8625   0.9788   0.9800
     0.9984   0.9984   1.0064   1.0191   1.0567   1.0567   1.0724   1.1381
     1.1548   1.2547   1.6948   1.6948   2.4027

          k = 0.0980 0.0980 0.2288 ( 37066 PWs)   bands (ev):

   -70.3873 -70.3872 -70.3872 -70.3872 -70.3871 -70.3871 -70.3871 -70.3870
   -40.4311 -40.4311 -40.4310 -40.4310 -40.4309 -40.4309 -40.4308 -40.4308
   -40.4302 -40.4300 -40.4300 -40.4298 -40.4290 -40.4288 -40.4287 -40.4285
   -40.4280 -40.4280 -40.4279 -40.4279 -40.4278 -40.4278 -40.4277 -40.4277
    -0.1111   0.1682   0.4060   0.4132   0.4132   0.4287   0.4583   0.4584
     0.4837   0.5151   0.5164   0.5455   0.5455   0.6028   0.6028   0.6217
     0.6315   0.6778   0.6893   0.6893   0.7453   0.7500   0.7961   0.8193
     0.8193   0.8316   0.8317   0.8727   0.8808   0.8808   0.9466   0.9469
     0.9469   0.9491   0.9568   0.9680   0.9680   0.9724   1.0095   1.0176
     1.1428   1.1515   1.7868   1.7868   2.1238

          k = 0.0980 0.0980-0.2941 ( 37084 PWs)   bands (ev):

   -70.3873 -70.3873 -70.3872 -70.3872 -70.3872 -70.3871 -70.3871 -70.3870
   -40.4310 -40.4310 -40.4310 -40.4310 -40.4308 -40.4308 -40.4308 -40.4308
   -40.4296 -40.4296 -40.4294 -40.4294 -40.4294 -40.4293 -40.4291 -40.4291
   -40.4280 -40.4280 -40.4280 -40.4280 -40.4277 -40.4277 -40.4277 -40.4277
     0.0422   0.0422   0.4172   0.4172   0.4387   0.4387   0.4387   0.4387
     0.4995   0.4995   0.6032   0.6032   0.6032   0.6032   0.6496   0.6496
     0.6746   0.6746   0.6868   0.6868   0.7754   0.7754   0.7754   0.7754
     0.8254   0.8254   0.8254   0.8254   0.8263   0.8263   0.9093   0.9093
     0.9234   0.9234   0.9359   0.9359   0.9359   0.9359   1.0131   1.0131
     1.1474   1.1474   1.9232   1.9232   1.9232

          k = 0.0980 0.1634 0.1634 ( 37051 PWs)   bands (ev):

   -70.3873 -70.3872 -70.3872 -70.3872 -70.3871 -70.3871 -70.3871 -70.3870
   -40.4311 -40.4310 -40.4309 -40.4308 -40.4307 -40.4307 -40.4306 -40.4305
   -40.4305 -40.4305 -40.4304 -40.4304 -40.4284 -40.4284 -40.4283 -40.4283
   -40.4282 -40.4282 -40.4280 -40.4280 -40.4280 -40.4279 -40.4278 -40.4277
    -0.1470   0.3278   0.3278   0.4247   0.4582   0.4601   0.4602   0.4843
     0.4843   0.5030   0.5030   0.5165   0.5290   0.5456   0.5604   0.5604
     0.5856   0.6131   0.7302   0.7641   0.7641   0.7838   0.7938   0.7938
     0.8209   0.8209   0.8375   0.8375   0.8552   0.8611   0.9549   0.9741
     0.9796   0.9847   0.9956   0.9956   1.0013   1.0370   1.0639   1.0639
     1.1070   1.3139   1.3139   1.7569   2.0480

          k = 0.0980 0.1634 0.2288 ( 37055 PWs)   bands (ev):

   -70.3873 -70.3872 -70.3872 -70.3872 -70.3871 -70.3871 -70.3871 -70.3870
   -40.4311 -40.4310 -40.4309 -40.4308 -40.4307 -40.4306 -40.4304 -40.4304
   -40.4302 -40.4300 -40.4299 -40.4298 -40.4290 -40.4288 -40.4287 -40.4286
   -40.4284 -40.4283 -40.4282 -40.4281 -40.4280 -40.4279 -40.4278 -40.4277
    -0.0023   0.2560   0.3851   0.4419   0.4427   0.4708   0.5069   0.5164
     0.5286   0.5369   0.5431   0.5592   0.5722   0.5817   0.6105   0.6213
     0.6560   0.6655   0.6913   0.7152   0.7422   0.7635   0.7730   0.7768
     0.7875   0.8414   0.8415   0.8520   0.8669   0.8714   0.9222   0.9243
     0.9405   0.9430   0.9511   0.9586   0.9647   0.9859   0.9872   1.0222
     1.0715   1.0882   1.4025   1.7498   1.8536

          k = 0.0980 0.1634-0.2941 ( 37070 PWs)   bands (ev):

   -70.3873 -70.3872 -70.3872 -70.3872 -70.3871 -70.3871 -70.3871 -70.3871
   -40.4310 -40.4310 -40.4309 -40.4309 -40.4306 -40.4306 -40.4304 -40.4304
   -40.4296 -40.4296 -40.4294 -40.4294 -40.4294 -40.4293 -40.4292 -40.4292
   -40.4284 -40.4284 -40.4281 -40.4281 -40.4279 -40.4279 -40.4278 -40.4278
     0.1441   0.1441   0.4182   0.4182   0.4568   0.4568   0.5253   0.5253
     0.5306   0.5306   0.6095   0.6095   0.6180   0.6181   0.6540   0.6540
     0.6722   0.6722   0.7055   0.7055   0.7658   0.7658   0.7761   0.7761
     0.7812   0.7812   0.8188   0.8188   0.8471   0.8471   0.8953   0.8953
     0.9150   0.9150   0.9270   0.9270   0.9316   0.9316   0.9902   0.9902
     1.0792   1.0792   1.5384   1.5384   1.9970

          k = 0.0980 0.2288 0.2288 ( 37047 PWs)   bands (ev):

   -70.3872 -70.3872 -70.3872 -70.3872 -70.3871 -70.3871 -70.3871 -70.3871
   -40.4310 -40.4310 -40.4309 -40.4309 -40.4302 -40.4301 -40.4301 -40.4301
   -40.4299 -40.4299 -40.4299 -40.4298 -40.4289 -40.4289 -40.4289 -40.4289
   -40.4287 -40.4287 -40.4286 -40.4286 -40.4279 -40.4279 -40.4278 -40.4277
     0.1353   0.3375   0.3375   0.4187   0.4998   0.5597   0.5604   0.5604
     0.5612   0.5612   0.5688   0.6066   0.6166   0.6212   0.6305   0.6525
     0.6525   0.6935   0.6936   0.7267   0.7267   0.7359   0.7359   0.7398
     0.7975   0.7975   0.8317   0.8690   0.8690   0.8757   0.8938   0.8976
     0.9030   0.9129   0.9542   0.9573   0.9588   0.9588   0.9707   0.9708
     1.0225   1.0845   1.0845   1.4263   1.9583

          k = 0.0980 0.2288-0.2941 ( 37050 PWs)   bands (ev):

   -70.3872 -70.3872 -70.3872 -70.3872 -70.3871 -70.3871 -70.3871 -70.3871
   -40.4310 -40.4310 -40.4309 -40.4309 -40.4301 -40.4301 -40.4299 -40.4299
   -40.4296 -40.4295 -40.4295 -40.4295 -40.4294 -40.4293 -40.4292 -40.4292
   -40.4289 -40.4289 -40.4287 -40.4287 -40.4279 -40.4279 -40.4278 -40.4278
     0.2579   0.2579   0.3869   0.3870   0.5379   0.5379   0.5708   0.5708
     0.6079   0.6079   0.6324   0.6324   0.6417   0.6417   0.6594   0.6594
     0.6689   0.6689   0.7314   0.7314   0.7324   0.7325   0.7454   0.7454
     0.7727   0.7728   0.8025   0.8025   0.8744   0.8744   0.8844   0.8845
     0.8981   0.8981   0.9255   0.9255   0.9360   0.9360   0.9639   0.9639
     0.9877   0.9877   1.2041   1.2041   2.1121

          k = 0.0980-0.2941-0.2941 ( 37024 PWs)   bands (ev):

   -70.3872 -70.3872 -70.3872 -70.3872 -70.3871 -70.3871 -70.3871 -70.3871
   -40.4310 -40.4310 -40.4309 -40.4309 -40.4295 -40.4295 -40.4295 -40.4295
   -40.4295 -40.4295 -40.4295 -40.4295 -40.4293 -40.4293 -40.4293 -40.4293
   -40.4292 -40.4292 -40.4292 -40.4292 -40.4279 -40.4279 -40.4278 -40.4278
     0.3389   0.3389   0.3389   0.3389   0.6037   0.6037   0.6037   0.6038
     0.6297   0.6297   0.6297   0.6297   0.6780   0.6780   0.6780   0.6781
     0.6888   0.6888   0.6888   0.6888   0.7542   0.7542   0.7542   0.7542
     0.7585   0.7585   0.7585   0.7585   0.8892   0.8892   0.8892   0.8892
     0.9127   0.9127   0.9127   0.9127   0.9269   0.9269   0.9269   0.9270
     1.0000   1.0000   1.0000   1.0000   2.2778

          k = 0.1634 0.1634 0.1634 ( 37065 PWs)   bands (ev):

   -70.3873 -70.3872 -70.3872 -70.3872 -70.3871 -70.3871 -70.3871 -70.3871
   -40.4307 -40.4307 -40.4307 -40.4306 -40.4306 -40.4306 -40.4305 -40.4305
   -40.4305 -40.4304 -40.4304 -40.4304 -40.4284 -40.4284 -40.4284 -40.4283
   -40.4283 -40.4283 -40.4282 -40.4282 -40.4282 -40.4281 -40.4281 -40.4281
    -0.0352   0.4185   0.4185   0.4185   0.4652   0.4652   0.5081   0.5081
     0.5082   0.5265   0.5265   0.5265   0.5547   0.5548   0.5548   0.5635
     0.6167   0.6167   0.7493   0.7493   0.7493   0.8093   0.8093   0.8093
     0.8135   0.8135   0.8135   0.8188   0.8188   0.8188   0.9580   0.9580
     0.9580   0.9706   0.9706   0.9706   1.0092   1.0092   1.0093   1.0338
     1.0338   1.3755   1.3755   1.3755   2.1362

          k = 0.1634 0.1634 0.2288 ( 37040 PWs)   bands (ev):

   -70.3872 -70.3872 -70.3872 -70.3872 -70.3871 -70.3871 -70.3871 -70.3871
   -40.4307 -40.4307 -40.4306 -40.4306 -40.4305 -40.4305 -40.4304 -40.4304
   -40.4302 -40.4300 -40.4299 -40.4298 -40.4289 -40.4288 -40.4287 -40.4286
   -40.4284 -40.4284 -40.4283 -40.4283 -40.4282 -40.4282 -40.4281 -40.4281
     0.1113   0.3537   0.4747   0.4815   0.4815   0.4975   0.5242   0.5242
     0.5385   0.5451   0.5673   0.5824   0.5824   0.5902   0.5902   0.6427
     0.6528   0.6601   0.7159   0.7159   0.7493   0.7668   0.7696   0.8016
     0.8016   0.8099   0.8100   0.8354   0.8354   0.8436   0.9225   0.9287
     0.9287   0.9304   0.9339   0.9387   0.9387   0.9625   0.9636   1.0168
     1.0292   1.0695   1.4702   1.4702   1.8349

          k = 0.1634 0.1634-0.2941 ( 37046 PWs)   bands (ev):

   -70.3872 -70.3872 -70.3872 -70.3872 -70.3872 -70.3871 -70.3871 -70.3871
   -40.4306 -40.4306 -40.4306 -40.4306 -40.4305 -40.4305 -40.4304 -40.4304
   -40.4296 -40.4295 -40.4294 -40.4294 -40.4294 -40.4293 -40.4292 -40.4292
   -40.4283 -40.4283 -40.4283 -40.4283 -40.4281 -40.4281 -40.4281 -40.4281
     0.2528   0.2528   0.4859   0.4859   0.5065   0.5065   0.5065   0.5065
     0.5581   0.5581   0.6245   0.6245   0.6245   0.6245   0.6583   0.6584
     0.6826   0.6826   0.7119   0.7119   0.7669   0.7669   0.7669   0.7669
     0.8052   0.8052   0.8052   0.8052   0.8131   0.8132   0.8828   0.8828
     0.9078   0.9078   0.9078   0.9078   0.9291   0.9291   0.9704   0.9704
     1.0235   1.0235   1.6153   1.6153   1.6154

          k = 0.1634 0.2288 0.2288 ( 37064 PWs)   bands (ev):

   -70.3872 -70.3872 -70.3872 -70.3872 -70.3871 -70.3871 -70.3871 -70.3871
   -40.4306 -40.4306 -40.4305 -40.4304 -40.4301 -40.4301 -40.4300 -40.4300
   -40.4299 -40.4299 -40.4299 -40.4298 -40.4289 -40.4289 -40.4289 -40.4288
   -40.4288 -40.4287 -40.4287 -40.4287 -40.4283 -40.4283 -40.4282 -40.4281
     0.2539   0.4404   0.4404   0.5050   0.5249   0.5659   0.5712   0.5713
     0.5818   0.5819   0.5889   0.5928   0.6068   0.6146   0.6412   0.6413
     0.6581   0.6917   0.7133   0.7251   0.7251   0.7626   0.7626   0.7688
     0.7931   0.7931   0.8148   0.8338   0.8338   0.8347   0.8901   0.8910
     0.8977   0.9067   0.9288   0.9313   0.9313   0.9360   0.9360   0.9450
     0.9685   1.1450   1.1450   1.5107   1.5758

          k = 0.1634 0.2288-0.2941 ( 37036 PWs)   bands (ev):

   -70.3872 -70.3872 -70.3872 -70.3872 -70.3871 -70.3871 -70.3871 -70.3871
   -40.4306 -40.4306 -40.4305 -40.4305 -40.4301 -40.4301 -40.4299 -40.4299
   -40.4295 -40.4295 -40.4294 -40.4294 -40.4294 -40.4293 -40.4293 -40.4292
   -40.4289 -40.4289 -40.4287 -40.4287 -40.4283 -40.4283 -40.4282 -40.4282
     0.3719   0.3719   0.4802   0.4802   0.5529   0.5529   0.5920   0.5920
     0.6052   0.6053   0.6388   0.6388   0.6418   0.6418   0.6636   0.6636
     0.6858   0.6858   0.7327   0.7327   0.7468   0.7468   0.7568   0.7568
     0.7684   0.7684   0.8008   0.8008   0.8349   0.8349   0.8676   0.8676
     0.8847   0.8847   0.8980   0.8980   0.9204   0.9204   0.9459   0.9459
     0.9745   0.9745   1.2793   1.2793   1.7345

          k = 0.1634-0.2941-0.2941 ( 37052 PWs)   bands (ev):

   -70.3872 -70.3872 -70.3872 -70.3872 -70.3871 -70.3871 -70.3871 -70.3871
   -40.4306 -40.4306 -40.4305 -40.4305 -40.4295 -40.4295 -40.4295 -40.4295
   -40.4295 -40.4295 -40.4295 -40.4295 -40.4293 -40.4293 -40.4293 -40.4293
   -40.4293 -40.4293 -40.4293 -40.4292 -40.4283 -40.4283 -40.4282 -40.4282
     0.4424   0.4424   0.4424   0.4424   0.6167   0.6167   0.6167   0.6167
     0.6373   0.6373   0.6373   0.6374   0.6912   0.6912   0.6912   0.6912
     0.6923   0.6923   0.6923   0.6924   0.7535   0.7535   0.7535   0.7535
     0.7629   0.7629   0.7629   0.7629   0.8572   0.8572   0.8572   0.8572
     0.8860   0.8860   0.8860   0.8860   0.8977   0.8977   0.8977   0.8977
     1.0569   1.0569   1.0570   1.0570   1.9074

          k = 0.2288 0.2288 0.2288 ( 37044 PWs)   bands (ev):

   -70.3872 -70.3872 -70.3872 -70.3872 -70.3871 -70.3871 -70.3871 -70.3871
   -40.4301 -40.4301 -40.4301 -40.4300 -40.4300 -40.4300 -40.4299 -40.4299
   -40.4299 -40.4299 -40.4299 -40.4299 -40.4288 -40.4288 -40.4288 -40.4288
   -40.4288 -40.4288 -40.4288 -40.4287 -40.4287 -40.4287 -40.4287 -40.4287
     0.4027   0.5577   0.5577   0.5577   0.5744   0.5744   0.5957   0.5957
     0.5957   0.5976   0.5976   0.5976   0.6089   0.6399   0.6399   0.6399
     0.6958   0.6958   0.7194   0.7194   0.7194   0.7818   0.7818   0.7818
     0.7934   0.7934   0.7934   0.8064   0.8064   0.8064   0.8844   0.8844
     0.8844   0.8876   0.8876   0.8910   0.8910   0.8971   0.8971   0.8971
     0.9546   1.2396   1.2396   1.2396   1.6394

          k = 0.2288 0.2288-0.2941 ( 37048 PWs)   bands (ev):

   -70.3872 -70.3872 -70.3872 -70.3872 -70.3872 -70.3871 -70.3871 -70.3871
   -40.4301 -40.4301 -40.4301 -40.4300 -40.4300 -40.4300 -40.4299 -40.4299
   -40.4295 -40.4295 -40.4294 -40.4294 -40.4294 -40.4293 -40.4293 -40.4293
   -40.4288 -40.4288 -40.4288 -40.4288 -40.4287 -40.4287 -40.4287 -40.4287
     0.5071   0.5071   0.5847   0.5847   0.5905   0.5905   0.5905   0.5905
     0.6158   0.6158   0.6504   0.6504   0.6504   0.6504   0.6690   0.6690
     0.7012   0.7012   0.7393   0.7393   0.7456   0.7457   0.7457   0.7457
     0.7972   0.7972   0.7972   0.7972   0.7990   0.7990   0.8486   0.8486
     0.8665   0.8665   0.8665   0.8665   0.8847   0.8847   0.8877   0.8877
     1.0245   1.0245   1.3956   1.3956   1.3956

          k = 0.2288-0.2941-0.2941 ( 37076 PWs)   bands (ev):

   -70.3872 -70.3872 -70.3872 -70.3872 -70.3872 -70.3871 -70.3871 -70.3871
   -40.4300 -40.4300 -40.4300 -40.4300 -40.4295 -40.4295 -40.4294 -40.4294
   -40.4294 -40.4294 -40.4294 -40.4294 -40.4294 -40.4294 -40.4294 -40.4294
   -40.4293 -40.4293 -40.4293 -40.4293 -40.4288 -40.4288 -40.4287 -40.4287
     0.5676   0.5676   0.5676   0.5676   0.6290   0.6290   0.6290   0.6290
     0.6490   0.6490   0.6490   0.6490   0.6965   0.6965   0.6966   0.6966
     0.6993   0.6993   0.6993   0.6993   0.7431   0.7431   0.7431   0.7431
     0.7849   0.7849   0.7849   0.7849   0.8300   0.8300   0.8300   0.8300
     0.8469   0.8469   0.8469   0.8469   0.8599   0.8599   0.8599   0.8600
     1.1503   1.1503   1.1503   1.1503   1.5716

          k =-0.2941-0.2941-0.2941 ( 37056 PWs)   bands (ev):

   -70.3872 -70.3872 -70.3872 -70.3872 -70.3872 -70.3871 -70.3871 -70.3871
   -40.4294 -40.4294 -40.4294 -40.4294 -40.4294 -40.4294 -40.4294 -40.4294
   -40.4294 -40.4294 -40.4294 -40.4294 -40.4294 -40.4294 -40.4294 -40.4294
   -40.4294 -40.4294 -40.4293 -40.4293 -40.4293 -40.4293 -40.4293 -40.4293
     0.6305   0.6305   0.6305   0.6305   0.6305   0.6305   0.6305   0.6305
     0.6998   0.6998   0.6998   0.6998   0.6998   0.6999   0.6999   0.6999
     0.6999   0.6999   0.6999   0.6999   0.6999   0.6999   0.6999   0.6999
     0.8198   0.8198   0.8198   0.8198   0.8198   0.8198   0.8198   0.8198
     0.8198   0.8198   0.8198   0.8198   0.8198   0.8198   0.8199   0.8199
     1.3141   1.3141   1.3141   1.3141   1.3141

     the Fermi energy is     1.0308 ev

!    total energy              =   -3449.29682525 Ry

     total all-electron energy =    -72493.394410 Ry
     estimated scf accuracy    <       0.00000021 Ry
     smearing contrib. (-TS)   =      -0.14249706 Ry
     internal energy E=F+TS    =   -3449.15432820 Ry

     The total energy is F=E-TS. E is the sum of the following terms:
     one-electron contribution =   -1154.75422524 Ry
     hartree contribution      =     585.14492121 Ry
     xc contribution           =    -228.77234642 Ry
     ewald contribution        =    -753.55135880 Ry
     one-center paw contrib.   =   -1897.22131895 Ry

     convergence has been achieved in  26 iterations

     Forces acting on atoms (cartesian axes, Ry/au):

     atom    1 type  1   force =     0.00000000    0.00000000    0.00000000
     atom    2 type  1   force =     0.00000000    0.00000000    0.00000000
     atom    3 type  1   force =     0.00000000    0.00000000    0.00000000
     atom    4 type  1   force =     0.00000000    0.00000000    0.00000000
     atom    5 type  1   force =     0.00000000    0.00000000    0.00000000
     atom    6 type  1   force =     0.00000000    0.00000000    0.00000000
     atom    7 type  1   force =     0.00000000    0.00000000    0.00000000
     atom    8 type  1   force =     0.00000000    0.00000000    0.00000000

     Total force =     0.000000     Total SCF correction =     0.000000


     Computing stress (Cartesian axis) and pressure

          total   stress  (Ry/bohr**3)                   (kbar)     P=      -61.55
  -0.00041844   0.00000000   0.00000000          -61.55        0.00        0.00
   0.00000000  -0.00041844   0.00000000            0.00      -61.55        0.00
   0.00000000   0.00000000  -0.00041844            0.00        0.00      -61.55


     Writing output data file /scratch/tXLFrHUfQKvXKYWZ.save/
 
     init_run     :      3.38s CPU      3.56s WALL (       1 calls)
     electrons    :    176.92s CPU    181.33s WALL (       1 calls)
     forces       :      0.55s CPU      0.60s WALL (       1 calls)
     stress       :      1.45s CPU      1.52s WALL (       1 calls)

     Called by init_run:
     wfcinit      :      2.37s CPU      2.47s WALL (       1 calls)
     potinit      :      0.14s CPU      0.16s WALL (       1 calls)
     hinit0       :      0.38s CPU      0.38s WALL (       1 calls)

     Called by electrons:
     c_bands      :    150.00s CPU    152.77s WALL (      26 calls)
     sum_band     :     23.66s CPU     24.50s WALL (      26 calls)
     v_of_rho     :      0.83s CPU      0.86s WALL (      27 calls)
     newd         :      0.64s CPU      1.21s WALL (      27 calls)
     PAW_pot      :      1.52s CPU      1.68s WALL (      27 calls)
     mix_rho      :      0.16s CPU      0.18s WALL (      26 calls)

     Called by c_bands:
     init_us_2    :      0.85s CPU      0.91s WALL (    1925 calls)
     cegterg      :    145.94s CPU    148.58s WALL (     910 calls)

     Called by *egterg:
     cdiaghg      :     13.95s CPU     14.19s WALL (    3123 calls)
     h_psi        :    106.96s CPU    109.16s WALL (    3158 calls)
     s_psi        :      1.89s CPU      1.93s WALL (    3158 calls)
     g_psi        :      0.18s CPU      0.18s WALL (    2213 calls)

     Called by h_psi:
     h_psi:calbec :      5.07s CPU      5.12s WALL (    3158 calls)
     vloc_psi     :     99.17s CPU    101.28s WALL (    3158 calls)
     add_vuspsi   :      2.30s CPU      2.32s WALL (    3158 calls)

     General routines
     calbec       :      7.45s CPU      7.53s WALL (    4243 calls)
     fft          :      0.69s CPU      0.71s WALL (     374 calls)
     ffts         :      0.03s CPU      0.03s WALL (      53 calls)
     fftw         :    114.73s CPU    117.05s WALL (  396904 calls)
     interpolate  :      0.06s CPU      0.07s WALL (      27 calls)
 
     Parallel routines
     fft_scatt_xy :      9.59s CPU      9.74s WALL (  397331 calls)
     fft_scatt_yz :     86.51s CPU     88.42s WALL (  397331 calls)
 
     PWSCF        :   3m 6.37s CPU   3m12.07s WALL

 
   This run was terminated on:   1:30:32  26Nov2021            

=------------------------------------------------------------------------------=
   JOB DONE.
=------------------------------------------------------------------------------=
