
     Program PWSCF v.6.7MaX starts on 19Jan2022 at  1:55:55 

     This program is part of the open-source Quantum ESPRESSO suite
     for quantum simulation of materials; please cite
         "P. Giannozzi et al., J. Phys.:Condens. Matter 21 395502 (2009);
         "P. Giannozzi et al., J. Phys.:Condens. Matter 29 465901 (2017);
          URL http://www.quantum-espresso.org", 
     in publications or presentations arising from this work. More details at
     http://www.quantum-espresso.org/quote

     Parallel version (MPI & OpenMP), running on      72 processor cores
     Number of MPI processes:                72
     Threads/MPI process:                     1

     MPI processes distributed on     1 nodes
     R & G space division:  proc/nbgrp/npool/nimage =      72
     Reading input from fe_tetra_1.in
Warning: card &CELL ignored
Warning: card CELL_DYNAMICS = 'BFGS', ignored
Warning: card CELL_FACTOR = 2.0, ignored
Warning: card PRESS = 0.0, ignored
Warning: card / ignored

     Current dimensions of program PWSCF are:
     Max number of different atomic species (ntypx) = 10
     Max number of k-points (npk) =  40000
     Max angular momentum in pseudopotentials (lmaxx) =  3
     file Fe.pbe-spn-kjpaw_psl.1.0.0.UPF: wavefunction(s)  3P 3D renormalized
     file Fe.pbe-spn-kjpaw_psl.1.0.0.UPF: wavefunction(s)  3P 3D renormalized
     file Fe.pbe-spn-kjpaw_psl.1.0.0.UPF: wavefunction(s)  3P 3D renormalized

     Subspace diagonalization in iterative solution of the eigenvalue problem:
     one sub-group per band group will be used
     ELPA distributed-memory algorithm (size of sub-group:  8*  8 procs)

     Message from routine setup:
     using ibrav=0 with symmetry is DISCOURAGED, use correct ibrav instead
 
     Parallelization info
     --------------------
     sticks:   dense  smooth     PW     G-vecs:    dense   smooth      PW
     Min          83      55     15                 4773     2563     367
     Max          84      56     16                 4778     2568     371
     Sum        6035    3993   1103               343891   184641   26583
 


     bravais-lattice index     =            0
     lattice parameter (alat)  =      12.9382  a.u.
     unit-cell volume          =    2283.7811 (a.u.)^3
     number of atoms/cell      =           33
     number of atomic types    =            3
     number of electrons       =       528.00
     number of Kohn-Sham states=          317
     kinetic-energy cutoff     =      71.0000  Ry
     charge density cutoff     =     430.0000  Ry
     scf convergence threshold =      1.0E-06
     mixing beta               =       0.1000
     number of iterations used =           10  local-TF  mixing
     Exchange-correlation= SLA  PW   PBX  PBC
                           (   1   4   3   4   0   0   0)

     celldm(1)=  12.938187  celldm(2)=   0.000000  celldm(3)=   0.000000
     celldm(4)=   0.000000  celldm(5)=   0.000000  celldm(6)=   0.000000

     crystal axes: (cart. coord. in units of alat)
               a(1) = (   1.000000   0.000000   0.000000 )  
               a(2) = (   0.000000   1.054470   0.000000 )  
               a(3) = (   0.000000   0.000000   1.000000 )  

     reciprocal axes: (cart. coord. in units 2 pi/alat)
               b(1) = (  1.000000  0.000000  0.000000 )  
               b(2) = (  0.000000  0.948344  0.000000 )  
               b(3) = (  0.000000  0.000000  1.000000 )  


     PseudoPot. # 1 for Fe read from file:
     /rds/homes/b/bxp912/pp/Fe.pbe-spn-kjpaw_psl.1.0.0.UPF
     MD5 check sum: 42f43b795421b414b0dc916aa790dbcb
     Pseudo is Projector augmented-wave + core cor, Zval = 16.0
     Generated using &quot;atomic&quot; code by A. Dal Corso  v.6.3
     Shape of augmentation charge: PSQ
     Using radial grid of 1191 points,  6 beta functions with: 
                l(1) =   0
                l(2) =   0
                l(3) =   1
                l(4) =   1
                l(5) =   2
                l(6) =   2
     Q(r) pseudized with 0 coefficients 


     PseudoPot. # 2 for Fe read from file:
     /rds/homes/b/bxp912/pp/Fe.pbe-spn-kjpaw_psl.1.0.0.UPF
     MD5 check sum: 42f43b795421b414b0dc916aa790dbcb
     Pseudo is Projector augmented-wave + core cor, Zval = 16.0
     Generated using &quot;atomic&quot; code by A. Dal Corso  v.6.3
     Shape of augmentation charge: PSQ
     Using radial grid of 1191 points,  6 beta functions with: 
                l(1) =   0
                l(2) =   0
                l(3) =   1
                l(4) =   1
                l(5) =   2
                l(6) =   2
     Q(r) pseudized with 0 coefficients 


     PseudoPot. # 3 for Fe read from file:
     /rds/homes/b/bxp912/pp/Fe.pbe-spn-kjpaw_psl.1.0.0.UPF
     MD5 check sum: 42f43b795421b414b0dc916aa790dbcb
     Pseudo is Projector augmented-wave + core cor, Zval = 16.0
     Generated using &quot;atomic&quot; code by A. Dal Corso  v.6.3
     Shape of augmentation charge: PSQ
     Using radial grid of 1191 points,  6 beta functions with: 
                l(1) =   0
                l(2) =   0
                l(3) =   1
                l(4) =   1
                l(5) =   2
                l(6) =   2
     Q(r) pseudized with 0 coefficients 


     atomic species   valence    mass     pseudopotential
        Fe1           16.00    55.84500     Fe( 1.00)
        Fe2           16.00    55.84500     Fe( 1.00)
        Fe3           16.00    55.84500     Fe( 1.00)

     Starting magnetic structure 
     atomic species   magnetization
        Fe1          0.100
        Fe2         -0.100
        Fe3         -0.010

      4 Sym. Ops. (no inversion) found ( 2 have fractional translation)



   Cartesian axes

     site n.     atom                  positions (alat units)
         1           Fe3 tau(   1) = (   0.1250000   0.1318088   0.1250000  )
         2           Fe1 tau(   2) = (   0.0000000   0.0000000   0.0000000  )
         3           Fe2 tau(   3) = (   0.2500000   0.2636175   0.0000000  )
         4           Fe1 tau(   4) = (   0.2500000   0.0000000   0.2500000  )
         5           Fe2 tau(   5) = (   0.0000000   0.2636175   0.2500000  )
         6           Fe1 tau(   6) = (   0.0000000   0.0000000   0.5000000  )
         7           Fe2 tau(   7) = (   0.2500000   0.2636175   0.5000000  )
         8           Fe1 tau(   8) = (   0.2500000   0.0000000   0.7500000  )
         9           Fe2 tau(   9) = (   0.0000000   0.2636175   0.7500000  )
        10           Fe1 tau(  10) = (   0.0000000   0.5272350   0.0000000  )
        11           Fe2 tau(  11) = (   0.2500000   0.7908525   0.0000000  )
        12           Fe1 tau(  12) = (   0.2500000   0.5272350   0.2500000  )
        13           Fe2 tau(  13) = (   0.0000000   0.7908525   0.2500000  )
        14           Fe1 tau(  14) = (   0.0000000   0.5272350   0.5000000  )
        15           Fe2 tau(  15) = (   0.2500000   0.7908525   0.5000000  )
        16           Fe1 tau(  16) = (   0.2500000   0.5272350   0.7500000  )
        17           Fe2 tau(  17) = (   0.0000000   0.7908525   0.7500000  )
        18           Fe1 tau(  18) = (   0.5000000   0.0000000   0.0000000  )
        19           Fe2 tau(  19) = (   0.7500000   0.2636175   0.0000000  )
        20           Fe1 tau(  20) = (   0.7500000   0.0000000   0.2500000  )
        21           Fe2 tau(  21) = (   0.5000000   0.2636175   0.2500000  )
        22           Fe1 tau(  22) = (   0.5000000   0.0000000   0.5000000  )
        23           Fe2 tau(  23) = (   0.7500000   0.2636175   0.5000000  )
        24           Fe1 tau(  24) = (   0.7500000   0.0000000   0.7500000  )
        25           Fe2 tau(  25) = (   0.5000000   0.2636175   0.7500000  )
        26           Fe1 tau(  26) = (   0.5000000   0.5272350   0.0000000  )
        27           Fe2 tau(  27) = (   0.7500000   0.7908525   0.0000000  )
        28           Fe1 tau(  28) = (   0.7500000   0.5272350   0.2500000  )
        29           Fe2 tau(  29) = (   0.5000000   0.7908525   0.2500000  )
        30           Fe1 tau(  30) = (   0.5000000   0.5272350   0.5000000  )
        31           Fe2 tau(  31) = (   0.7500000   0.7908525   0.5000000  )
        32           Fe1 tau(  32) = (   0.7500000   0.5272350   0.7500000  )
        33           Fe2 tau(  33) = (   0.5000000   0.7908525   0.7500000  )

     number of k points=   125  Marzari-Vanderbilt smearing, width (Ry)=  0.0400

     Number of k-points >= 100: set verbosity='high' to print them.

     Dense  grid:   343891 G-vectors     FFT dimensions: (  96,  96,  96)

     Smooth grid:   184641 G-vectors     FFT dimensions: (  72,  75,  72)

     Estimated max dynamical RAM per process >     419.79 MB

     Estimated total dynamical RAM >      29.52 GB

     Check: negative core charge=   -0.000006
     Generating pointlists ...
     new r_m :   0.0910 (alat units)  1.1768 (a.u.) for type    1
     new r_m :   0.0910 (alat units)  1.1768 (a.u.) for type    2
     new r_m :   0.0910 (alat units)  1.1768 (a.u.) for type    3

     Initial potential from superposition of free atoms

     starting charge  527.98556, renormalised to  528.00000
     Starting wfcs are  330 randomized atomic wfcs
     Checking if some PAW data can be deallocated... 

     total cpu time spent up to now is       64.0 secs

     Self-consistent Calculation

     iteration #  1     ecut=    71.00 Ry     beta= 0.10
     Davidson diagonalization with overlap
     ethr =  1.00E-02,  avg # of iterations =  3.4

     total cpu time spent up to now is      279.3 secs

     total energy              =  -10864.07028811 Ry
     estimated scf accuracy    <      27.75153043 Ry

     total magnetization       =     0.04 Bohr mag/cell
     absolute magnetization    =    43.55 Bohr mag/cell

     iteration #  2     ecut=    71.00 Ry     beta= 0.10
     Davidson diagonalization with overlap
     ethr =  5.26E-03,  avg # of iterations =  1.1

     total cpu time spent up to now is      434.2 secs

     total energy              =  -10863.28171732 Ry
     estimated scf accuracy    <       9.37854056 Ry

     total magnetization       =     0.02 Bohr mag/cell
     absolute magnetization    =    44.21 Bohr mag/cell

     iteration #  3     ecut=    71.00 Ry     beta= 0.10
     Davidson diagonalization with overlap
     ethr =  1.78E-03,  avg # of iterations =  1.6

     negative rho (up, down):  6.774E-04 3.479E-04

     total cpu time spent up to now is      593.5 secs

     total energy              =  -10863.24236743 Ry
     estimated scf accuracy    <       1.33564945 Ry

     total magnetization       =     0.02 Bohr mag/cell
     absolute magnetization    =    43.71 Bohr mag/cell

     iteration #  4     ecut=    71.00 Ry     beta= 0.10
     Davidson diagonalization with overlap
     ethr =  2.53E-04,  avg # of iterations =  4.5

     negative rho (up, down):  8.888E-04 5.639E-04

     total cpu time spent up to now is      785.8 secs

     total energy              =  -10863.19831657 Ry
     estimated scf accuracy    <       0.39030106 Ry

     total magnetization       =    -0.01 Bohr mag/cell
     absolute magnetization    =    43.49 Bohr mag/cell

     iteration #  5     ecut=    71.00 Ry     beta= 0.10
     Davidson diagonalization with overlap
     c_bands:  1 eigenvalues not converged
     c_bands:  2 eigenvalues not converged
     c_bands:  1 eigenvalues not converged
     ethr =  7.39E-05,  avg # of iterations =  7.6

     negative rho (up, down):  8.862E-04 5.511E-04

     total cpu time spent up to now is     1020.8 secs

     total energy              =  -10863.24205293 Ry
     estimated scf accuracy    <       0.19729113 Ry

     total magnetization       =    -0.03 Bohr mag/cell
     absolute magnetization    =    43.56 Bohr mag/cell

     iteration #  6     ecut=    71.00 Ry     beta= 0.10
     Davidson diagonalization with overlap
     ethr =  3.74E-05,  avg # of iterations =  2.2

     negative rho (up, down):  9.809E-05 0.000E+00

     total cpu time spent up to now is     1183.4 secs

     total energy              =  -10863.26578355 Ry
     estimated scf accuracy    <       0.15334552 Ry

     total magnetization       =    -0.03 Bohr mag/cell
     absolute magnetization    =    43.53 Bohr mag/cell

     iteration #  7     ecut=    71.00 Ry     beta= 0.10
     Davidson diagonalization with overlap
     ethr =  2.90E-05,  avg # of iterations =  2.7

     total cpu time spent up to now is     1388.6 secs

     total energy              =  -10863.31725670 Ry
     estimated scf accuracy    <       0.18197854 Ry

     total magnetization       =    -0.01 Bohr mag/cell
     absolute magnetization    =    43.64 Bohr mag/cell

     iteration #  8     ecut=    71.00 Ry     beta= 0.10
     Davidson diagonalization with overlap
     ethr =  2.90E-05,  avg # of iterations =  2.0

     total cpu time spent up to now is     1568.3 secs

     total energy              =  -10863.33356175 Ry
     estimated scf accuracy    <       0.16301046 Ry

     total magnetization       =    -0.01 Bohr mag/cell
     absolute magnetization    =    43.68 Bohr mag/cell

     iteration #  9     ecut=    71.00 Ry     beta= 0.10
     Davidson diagonalization with overlap
     ethr =  2.90E-05,  avg # of iterations =  1.0

     total cpu time spent up to now is     1721.4 secs

     total energy              =  -10863.34272294 Ry
     estimated scf accuracy    <       0.06686522 Ry

     total magnetization       =    -0.01 Bohr mag/cell
     absolute magnetization    =    43.64 Bohr mag/cell

     iteration # 10     ecut=    71.00 Ry     beta= 0.10
     Davidson diagonalization with overlap
     c_bands:  1 eigenvalues not converged
     c_bands:  2 eigenvalues not converged
     c_bands:  1 eigenvalues not converged
     c_bands:  1 eigenvalues not converged
     ethr =  1.27E-05,  avg # of iterations =  4.0

     total cpu time spent up to now is     1924.1 secs

     total energy              =  -10863.35224339 Ry
     estimated scf accuracy    <       0.00423526 Ry

     total magnetization       =    -0.01 Bohr mag/cell
     absolute magnetization    =    43.69 Bohr mag/cell

     iteration # 11     ecut=    71.00 Ry     beta= 0.10
     Davidson diagonalization with overlap
     c_bands:  1 eigenvalues not converged
     ethr =  8.02E-07,  avg # of iterations =  8.7

     total cpu time spent up to now is     2151.6 secs

     total energy              =  -10863.35277145 Ry
     estimated scf accuracy    <       0.00350685 Ry

     total magnetization       =    -0.01 Bohr mag/cell
     absolute magnetization    =    43.70 Bohr mag/cell

     iteration # 12     ecut=    71.00 Ry     beta= 0.10
     Davidson diagonalization with overlap
     ethr =  6.64E-07,  avg # of iterations =  2.0

     total cpu time spent up to now is     2321.7 secs

     total energy              =  -10863.35355098 Ry
     estimated scf accuracy    <       0.00240973 Ry

     total magnetization       =    -0.01 Bohr mag/cell
     absolute magnetization    =    43.73 Bohr mag/cell

     iteration # 13     ecut=    71.00 Ry     beta= 0.10
     Davidson diagonalization with overlap
     ethr =  4.56E-07,  avg # of iterations =  2.1

     total cpu time spent up to now is     2519.3 secs

     total energy              =  -10863.35424088 Ry
     estimated scf accuracy    <       0.00188704 Ry

     total magnetization       =    -0.00 Bohr mag/cell
     absolute magnetization    =    43.79 Bohr mag/cell

     iteration # 14     ecut=    71.00 Ry     beta= 0.10
     Davidson diagonalization with overlap
     ethr =  3.57E-07,  avg # of iterations =  1.1

     total cpu time spent up to now is     2673.8 secs

     total energy              =  -10863.35417464 Ry
     estimated scf accuracy    <       0.00139806 Ry

     total magnetization       =    -0.00 Bohr mag/cell
     absolute magnetization    =    43.81 Bohr mag/cell

     iteration # 15     ecut=    71.00 Ry     beta= 0.10
     Davidson diagonalization with overlap
     ethr =  2.65E-07,  avg # of iterations =  1.2

     total cpu time spent up to now is     2830.0 secs

     total energy              =  -10863.35449841 Ry
     estimated scf accuracy    <       0.00104257 Ry

     total magnetization       =    -0.00 Bohr mag/cell
     absolute magnetization    =    43.81 Bohr mag/cell

     iteration # 16     ecut=    71.00 Ry     beta= 0.10
     Davidson diagonalization with overlap
     ethr =  1.97E-07,  avg # of iterations =  4.6

     total cpu time spent up to now is     3057.8 secs

     total energy              =  -10863.35521633 Ry
     estimated scf accuracy    <       0.00068152 Ry

     total magnetization       =    -0.00 Bohr mag/cell
     absolute magnetization    =    43.94 Bohr mag/cell

     iteration # 17     ecut=    71.00 Ry     beta= 0.10
     Davidson diagonalization with overlap
     ethr =  1.29E-07,  avg # of iterations =  2.7

     total cpu time spent up to now is     3263.4 secs

     total energy              =  -10863.35554876 Ry
     estimated scf accuracy    <       0.00010978 Ry

     total magnetization       =    -0.00 Bohr mag/cell
     absolute magnetization    =    44.03 Bohr mag/cell

     iteration # 18     ecut=    71.00 Ry     beta= 0.10
     Davidson diagonalization with overlap
     ethr =  2.08E-08,  avg # of iterations =  4.9

     total cpu time spent up to now is     3490.3 secs

     total energy              =  -10863.35557873 Ry
     estimated scf accuracy    <       0.00007511 Ry

     total magnetization       =     0.00 Bohr mag/cell
     absolute magnetization    =    44.04 Bohr mag/cell

     iteration # 19     ecut=    71.00 Ry     beta= 0.10
     Davidson diagonalization with overlap
     ethr =  1.42E-08,  avg # of iterations =  2.2

     total cpu time spent up to now is     3668.6 secs

     total energy              =  -10863.35562526 Ry
     estimated scf accuracy    <       0.00005191 Ry

     total magnetization       =     0.00 Bohr mag/cell
     absolute magnetization    =    44.06 Bohr mag/cell

     iteration # 20     ecut=    71.00 Ry     beta= 0.10
     Davidson diagonalization with overlap
     ethr =  9.83E-09,  avg # of iterations =  2.3

     total cpu time spent up to now is     3876.6 secs

     total energy              =  -10863.35565363 Ry
     estimated scf accuracy    <       0.00001206 Ry

     total magnetization       =     0.00 Bohr mag/cell
     absolute magnetization    =    44.06 Bohr mag/cell

     iteration # 21     ecut=    71.00 Ry     beta= 0.10
     Davidson diagonalization with overlap
     ethr =  2.28E-09,  avg # of iterations =  4.9

     total cpu time spent up to now is     4161.8 secs

     total energy              =  -10863.35566830 Ry
     estimated scf accuracy    <       0.00000560 Ry

     total magnetization       =     0.00 Bohr mag/cell
     absolute magnetization    =    44.08 Bohr mag/cell

     iteration # 22     ecut=    71.00 Ry     beta= 0.10
     Davidson diagonalization with overlap
     ethr =  1.06E-09,  avg # of iterations =  2.6

     total cpu time spent up to now is     4355.8 secs

     total energy              =  -10863.35567432 Ry
     estimated scf accuracy    <       0.00000404 Ry

     total magnetization       =     0.00 Bohr mag/cell
     absolute magnetization    =    44.09 Bohr mag/cell

     iteration # 23     ecut=    71.00 Ry     beta= 0.10
     Davidson diagonalization with overlap
     ethr =  7.64E-10,  avg # of iterations =  2.1

     total cpu time spent up to now is     4615.2 secs

     total energy              =  -10863.35567735 Ry
     estimated scf accuracy    <       0.00000180 Ry

     total magnetization       =    -0.00 Bohr mag/cell
     absolute magnetization    =    44.09 Bohr mag/cell

     iteration # 24     ecut=    71.00 Ry     beta= 0.10
     Davidson diagonalization with overlap
     ethr =  3.41E-10,  avg # of iterations =  3.7
 
     Magnetic moment per site:
     atom:    1    charge:   11.9863    magn:   -0.0000    constr:    0.0000
     atom:    2    charge:   11.6360    magn:    0.1136    constr:    0.0000
     atom:    3    charge:   11.6360    magn:   -0.1134    constr:    0.0000
     atom:    4    charge:   11.6360    magn:    0.1136    constr:    0.0000
     atom:    5    charge:   11.6360    magn:   -0.1134    constr:    0.0000
     atom:    6    charge:   11.4281    magn:    1.0888    constr:    0.0000
     atom:    7    charge:   11.4281    magn:   -1.0885    constr:    0.0000
     atom:    8    charge:   11.4281    magn:    1.0888    constr:    0.0000
     atom:    9    charge:   11.4281    magn:   -1.0885    constr:    0.0000
     atom:   10    charge:   11.4283    magn:    1.1209    constr:    0.0000
     atom:   11    charge:   11.4283    magn:   -1.1211    constr:    0.0000
     atom:   12    charge:   11.4283    magn:    1.1209    constr:    0.0000
     atom:   13    charge:   11.4283    magn:   -1.1211    constr:    0.0000
     atom:   14    charge:   11.4278    magn:    1.2143    constr:    0.0000
     atom:   15    charge:   11.4278    magn:   -1.2145    constr:    0.0000
     atom:   16    charge:   11.4278    magn:    1.2143    constr:    0.0000
     atom:   17    charge:   11.4278    magn:   -1.2145    constr:    0.0000
     atom:   18    charge:   11.4281    magn:    1.0888    constr:    0.0000
     atom:   19    charge:   11.4281    magn:   -1.0885    constr:    0.0000
     atom:   20    charge:   11.4281    magn:    1.0888    constr:    0.0000
     atom:   21    charge:   11.4281    magn:   -1.0885    constr:    0.0000
     atom:   22    charge:   11.4274    magn:    1.1805    constr:    0.0000
     atom:   23    charge:   11.4274    magn:   -1.1815    constr:    0.0000
     atom:   24    charge:   11.4274    magn:    1.1805    constr:    0.0000
     atom:   25    charge:   11.4274    magn:   -1.1815    constr:    0.0000
     atom:   26    charge:   11.4278    magn:    1.2143    constr:    0.0000
     atom:   27    charge:   11.4278    magn:   -1.2145    constr:    0.0000
     atom:   28    charge:   11.4278    magn:    1.2143    constr:    0.0000
     atom:   29    charge:   11.4278    magn:   -1.2145    constr:    0.0000
     atom:   30    charge:   11.4249    magn:    1.1769    constr:    0.0000
     atom:   31    charge:   11.4249    magn:   -1.1760    constr:    0.0000
     atom:   32    charge:   11.4249    magn:    1.1769    constr:    0.0000
     atom:   33    charge:   11.4249    magn:   -1.1760    constr:    0.0000

     total cpu time spent up to now is     4857.2 secs

     End of self-consistent calculation

     Number of k-points >= 100: set verbosity='high' to print the bands.

     the Fermi energy is    20.8466 ev

!    total energy              =  -10863.35568777 Ry

     total all-electron energy =    -84001.141279 Ry
     estimated scf accuracy    <       0.00000083 Ry
     smearing contrib. (-TS)   =       0.02938238 Ry
     internal energy E=F+TS    =  -10863.38507015 Ry

     The total energy is F=E-TS. E is the sum of the following terms:
     one-electron contribution =   -3532.04816669 Ry
     hartree contribution      =    2139.85328754 Ry
     xc contribution           =    -917.59805925 Ry
     ewald contribution        =   -5821.52886385 Ry
     one-center paw contrib.   =   -2732.06326791 Ry

     total magnetization       =     0.00 Bohr mag/cell
     absolute magnetization    =    44.09 Bohr mag/cell

     convergence has been achieved in  24 iterations

     Forces acting on atoms (cartesian axes, Ry/au):

     atom    1 type  3   force =     0.00000000    0.00002408    0.00000000
     atom    2 type  1   force =    -0.77428239   -0.82230730   -0.77428239
     atom    3 type  2   force =     0.77430506    0.82229314   -0.77430506
     atom    4 type  1   force =     0.77428239   -0.82230730    0.77428239
     atom    5 type  2   force =    -0.77430506    0.82229314    0.77430506
     atom    6 type  1   force =    -0.00863851   -0.00136601    0.01455199
     atom    7 type  2   force =     0.00861101    0.00132676    0.01454572
     atom    8 type  1   force =     0.00863851   -0.00136601   -0.01455199
     atom    9 type  2   force =    -0.00861101    0.00132676   -0.01454572
     atom   10 type  1   force =    -0.00281272    0.00704887   -0.00281272
     atom   11 type  2   force =     0.00285570   -0.00704921   -0.00285570
     atom   12 type  1   force =     0.00281272    0.00704887    0.00281272
     atom   13 type  2   force =    -0.00285570   -0.00704921    0.00285570
     atom   14 type  1   force =    -0.00137317    0.00840377    0.00936931
     atom   15 type  2   force =     0.00138744   -0.00840321    0.00937556
     atom   16 type  1   force =     0.00137317    0.00840377   -0.00936931
     atom   17 type  2   force =    -0.00138744   -0.00840321   -0.00937556
     atom   18 type  1   force =     0.01455199   -0.00136601   -0.00863851
     atom   19 type  2   force =    -0.01454572    0.00132676   -0.00861101
     atom   20 type  1   force =    -0.01455199   -0.00136601    0.00863851
     atom   21 type  2   force =     0.01454572    0.00132676    0.00861101
     atom   22 type  1   force =     0.01398512    0.00279182    0.01398512
     atom   23 type  2   force =    -0.01396605   -0.00278723    0.01396605
     atom   24 type  1   force =    -0.01398512    0.00279182   -0.01398512
     atom   25 type  2   force =     0.01396605   -0.00278723   -0.01396605
     atom   26 type  1   force =     0.00936931    0.00840377   -0.00137317
     atom   27 type  2   force =    -0.00937556   -0.00840321   -0.00138744
     atom   28 type  1   force =    -0.00936931    0.00840377    0.00137317
     atom   29 type  2   force =     0.00937556   -0.00840321    0.00138744
     atom   30 type  1   force =     0.00157844   -0.00260497    0.00157844
     atom   31 type  2   force =    -0.00159055    0.00268025    0.00159055
     atom   32 type  1   force =    -0.00157844   -0.00260497   -0.00157844
     atom   33 type  2   force =     0.00159055    0.00268025   -0.00159055

     Total force =     2.739790     Total SCF correction =     0.004772


     Computing stress (Cartesian axis) and pressure

          total   stress  (Ry/bohr**3)                   (kbar)     P=      368.76
   0.00247144   0.00000000   0.00000017          363.56        0.00        0.02
   0.00000000   0.00257739   0.00000000            0.00      379.15        0.00
   0.00000017   0.00000000   0.00247144            0.02        0.00      363.56


     Writing output data file /scratch/bxp912/fetetra1.save/
 
     init_run     :     58.99s CPU     60.34s WALL (       1 calls)
     electrons    :   4598.18s CPU   4793.28s WALL (       1 calls)
     forces       :     35.45s CPU     35.72s WALL (       1 calls)
     stress       :    157.39s CPU    158.66s WALL (       1 calls)

     Called by init_run:
     wfcinit      :     58.05s CPU     59.29s WALL (       1 calls)
     potinit      :      0.44s CPU      0.47s WALL (       1 calls)
     hinit0       :      0.21s CPU      0.23s WALL (       1 calls)

     Called by electrons:
     c_bands      :   4053.07s CPU   4232.54s WALL (      24 calls)
     sum_band     :    538.17s CPU    547.90s WALL (      24 calls)
     v_of_rho     :      0.86s CPU      0.93s WALL (      25 calls)
     newd         :      1.32s CPU      1.58s WALL (      25 calls)
     PAW_pot      :      4.49s CPU      4.73s WALL (      25 calls)
     mix_rho      :      0.43s CPU      0.49s WALL (      24 calls)

     Called by c_bands:
     init_us_2    :     20.44s CPU     20.85s WALL (   12750 calls)
     cegterg      :   3978.98s CPU   4027.02s WALL (    6000 calls)

     Called by *egterg:
     cdiaghg      :    581.16s CPU    585.05s WALL (   24805 calls)
     h_psi        :   2193.20s CPU   2229.05s WALL (   25055 calls)
     s_psi        :    161.09s CPU    162.38s WALL (   25055 calls)
     g_psi        :      3.74s CPU      3.79s WALL (   18805 calls)

     Called by h_psi:
     h_psi:calbec :    336.54s CPU    338.97s WALL (   25055 calls)
     vloc_psi     :   1685.27s CPU   1716.09s WALL (   25055 calls)
     add_vuspsi   :    162.26s CPU    164.79s WALL (   25055 calls)

     General routines
     calbec       :    541.24s CPU    545.03s WALL (   32305 calls)
     fft          :      0.74s CPU      0.78s WALL (     663 calls)
     ffts         :      0.23s CPU      0.24s WALL (     571 calls)
     fftw         :   2004.90s CPU   2041.14s WALL (10785070 calls)
     interpolate  :      0.07s CPU      0.07s WALL (      50 calls)
 
     Parallel routines
     fft_scatt_xy :     86.37s CPU     88.03s WALL (10786304 calls)
     fft_scatt_yz :   1711.89s CPU   1743.20s WALL (10786304 calls)
 
     PWSCF        :      1h21m CPU      1h25m WALL

 
   This run was terminated on:   3:21: 2  19Jan2022            

=------------------------------------------------------------------------------=
   JOB DONE.
=------------------------------------------------------------------------------=
