
     Program PWSCF v.6.7MaX starts on  4Jan2022 at 19:39:49 

     This program is part of the open-source Quantum ESPRESSO suite
     for quantum simulation of materials; please cite
         "P. Giannozzi et al., J. Phys.:Condens. Matter 21 395502 (2009);
         "P. Giannozzi et al., J. Phys.:Condens. Matter 29 465901 (2017);
          URL http://www.quantum-espresso.org", 
     in publications or presentations arising from this work. More details at
     http://www.quantum-espresso.org/quote

     Parallel version (MPI & OpenMP), running on      72 processor cores
     Number of MPI processes:                72
     Threads/MPI process:                     1

     MPI processes distributed on     1 nodes
     R & G space division:  proc/nbgrp/npool/nimage =      72
     Reading input from fe_tetra_2.in

     Current dimensions of program PWSCF are:
     Max number of different atomic species (ntypx) = 10
     Max number of k-points (npk) =  40000
     Max angular momentum in pseudopotentials (lmaxx) =  3
     file Fe.pbe-spn-kjpaw_psl.1.0.0.UPF: wavefunction(s)  3P 3D renormalized
     file Fe.pbe-spn-kjpaw_psl.1.0.0.UPF: wavefunction(s)  3P 3D renormalized
     file Fe.pbe-spn-kjpaw_psl.1.0.0.UPF: wavefunction(s)  3P 3D renormalized
     file Fe.pbe-spn-kjpaw_psl.1.0.0.UPF: wavefunction(s)  3P 3D renormalized
     file Fe.pbe-spn-kjpaw_psl.1.0.0.UPF: wavefunction(s)  3P 3D renormalized

     Subspace diagonalization in iterative solution of the eigenvalue problem:
     one sub-group per band group will be used
     ELPA distributed-memory algorithm (size of sub-group:  8*  8 procs)

 
     Parallelization info
     --------------------
     sticks:   dense  smooth     PW     G-vecs:    dense   smooth      PW
     Min          83      55     15                 4773     2563     367
     Max          84      56     16                 4778     2568     371
     Sum        6035    3993   1103               343891   184641   26583
 


     bravais-lattice index     =            0
     lattice parameter (alat)  =      12.9382  a.u.
     unit-cell volume          =    2283.7811 (a.u.)^3
     number of atoms/cell      =           33
     number of atomic types    =            5
     number of electrons       =       528.00
     number of Kohn-Sham states=          317
     kinetic-energy cutoff     =      71.0000  Ry
     charge density cutoff     =     430.0000  Ry
     scf convergence threshold =      1.0E-06
     mixing beta               =       0.1000
     number of iterations used =           10  plain     mixing
     energy convergence thresh.=      1.0E-04
     force convergence thresh. =      1.0E-03
     press convergence thresh. =      5.0E-01
     Exchange-correlation= SLA  PW   PBX  PBC
                           (   1   4   3   4   0   0   0)
     nstep                     =           40


     celldm(1)=  12.938187  celldm(2)=   0.000000  celldm(3)=   0.000000
     celldm(4)=   0.000000  celldm(5)=   0.000000  celldm(6)=   0.000000

     crystal axes: (cart. coord. in units of alat)
               a(1) = (   1.000000   0.000000   0.000000 )  
               a(2) = (   0.000000   1.054470   0.000000 )  
               a(3) = (   0.000000   0.000000   1.000000 )  

     reciprocal axes: (cart. coord. in units 2 pi/alat)
               b(1) = (  1.000000  0.000000  0.000000 )  
               b(2) = (  0.000000  0.948344  0.000000 )  
               b(3) = (  0.000000  0.000000  1.000000 )  


     PseudoPot. # 1 for Fe read from file:
     /rds/homes/b/bxp912/pp/Fe.pbe-spn-kjpaw_psl.1.0.0.UPF
     MD5 check sum: 42f43b795421b414b0dc916aa790dbcb
     Pseudo is Projector augmented-wave + core cor, Zval = 16.0
     Generated using &quot;atomic&quot; code by A. Dal Corso  v.6.3
     Shape of augmentation charge: PSQ
     Using radial grid of 1191 points,  6 beta functions with: 
                l(1) =   0
                l(2) =   0
                l(3) =   1
                l(4) =   1
                l(5) =   2
                l(6) =   2
     Q(r) pseudized with 0 coefficients 


     PseudoPot. # 2 for Fe read from file:
     /rds/homes/b/bxp912/pp/Fe.pbe-spn-kjpaw_psl.1.0.0.UPF
     MD5 check sum: 42f43b795421b414b0dc916aa790dbcb
     Pseudo is Projector augmented-wave + core cor, Zval = 16.0
     Generated using &quot;atomic&quot; code by A. Dal Corso  v.6.3
     Shape of augmentation charge: PSQ
     Using radial grid of 1191 points,  6 beta functions with: 
                l(1) =   0
                l(2) =   0
                l(3) =   1
                l(4) =   1
                l(5) =   2
                l(6) =   2
     Q(r) pseudized with 0 coefficients 


     PseudoPot. # 3 for Fe read from file:
     /rds/homes/b/bxp912/pp/Fe.pbe-spn-kjpaw_psl.1.0.0.UPF
     MD5 check sum: 42f43b795421b414b0dc916aa790dbcb
     Pseudo is Projector augmented-wave + core cor, Zval = 16.0
     Generated using &quot;atomic&quot; code by A. Dal Corso  v.6.3
     Shape of augmentation charge: PSQ
     Using radial grid of 1191 points,  6 beta functions with: 
                l(1) =   0
                l(2) =   0
                l(3) =   1
                l(4) =   1
                l(5) =   2
                l(6) =   2
     Q(r) pseudized with 0 coefficients 


     PseudoPot. # 4 for Fe read from file:
     /rds/homes/b/bxp912/pp/Fe.pbe-spn-kjpaw_psl.1.0.0.UPF
     MD5 check sum: 42f43b795421b414b0dc916aa790dbcb
     Pseudo is Projector augmented-wave + core cor, Zval = 16.0
     Generated using &quot;atomic&quot; code by A. Dal Corso  v.6.3
     Shape of augmentation charge: PSQ
     Using radial grid of 1191 points,  6 beta functions with: 
                l(1) =   0
                l(2) =   0
                l(3) =   1
                l(4) =   1
                l(5) =   2
                l(6) =   2
     Q(r) pseudized with 0 coefficients 


     PseudoPot. # 5 for Fe read from file:
     /rds/homes/b/bxp912/pp/Fe.pbe-spn-kjpaw_psl.1.0.0.UPF
     MD5 check sum: 42f43b795421b414b0dc916aa790dbcb
     Pseudo is Projector augmented-wave + core cor, Zval = 16.0
     Generated using &quot;atomic&quot; code by A. Dal Corso  v.6.3
     Shape of augmentation charge: PSQ
     Using radial grid of 1191 points,  6 beta functions with: 
                l(1) =   0
                l(2) =   0
                l(3) =   1
                l(4) =   1
                l(5) =   2
                l(6) =   2
     Q(r) pseudized with 0 coefficients 


     atomic species   valence    mass     pseudopotential
        Fe1           16.00    55.84500     Fe( 1.00)
        Fe2           16.00    55.84500     Fe( 1.00)
        Fe3           16.00    55.84500     Fe( 1.00)
        Fe4           16.00    55.84500     Fe( 1.00)
        Fe5           16.00    55.84500     Fe( 1.00)

     Starting magnetic structure 
     atomic species   magnetization
        Fe1          0.100
        Fe2         -0.100
        Fe3          0.100
        Fe4         -0.100
        Fe5         -0.010

     No symmetry found



   Cartesian axes

     site n.     atom                  positions (alat units)
         1           Fe5 tau(   1) = (   0.1250000   0.1318088   0.1250000  )
         2           Fe1 tau(   2) = (   0.0000000   0.0000000   0.0000000  )
         3           Fe2 tau(   3) = (   0.2500000   0.2636175   0.0000000  )
         4           Fe3 tau(   4) = (   0.2500000   0.0000000   0.2500000  )
         5           Fe4 tau(   5) = (   0.0000000   0.2636175   0.2500000  )
         6           Fe1 tau(   6) = (   0.0000000   0.0000000   0.5000000  )
         7           Fe2 tau(   7) = (   0.2500000   0.2636175   0.5000000  )
         8           Fe3 tau(   8) = (   0.2500000   0.0000000   0.7500000  )
         9           Fe4 tau(   9) = (   0.0000000   0.2636175   0.7500000  )
        10           Fe1 tau(  10) = (   0.0000000   0.5272350   0.0000000  )
        11           Fe2 tau(  11) = (   0.2500000   0.7908525   0.0000000  )
        12           Fe3 tau(  12) = (   0.2500000   0.5272350   0.2500000  )
        13           Fe4 tau(  13) = (   0.0000000   0.7908525   0.2500000  )
        14           Fe1 tau(  14) = (   0.0000000   0.5272350   0.5000000  )
        15           Fe2 tau(  15) = (   0.2500000   0.7908525   0.5000000  )
        16           Fe3 tau(  16) = (   0.2500000   0.5272350   0.7500000  )
        17           Fe4 tau(  17) = (   0.0000000   0.7908525   0.7500000  )
        18           Fe1 tau(  18) = (   0.5000000   0.0000000   0.0000000  )
        19           Fe2 tau(  19) = (   0.7500000   0.2636175   0.0000000  )
        20           Fe3 tau(  20) = (   0.7500000   0.0000000   0.2500000  )
        21           Fe4 tau(  21) = (   0.5000000   0.2636175   0.2500000  )
        22           Fe1 tau(  22) = (   0.5000000   0.0000000   0.5000000  )
        23           Fe2 tau(  23) = (   0.7500000   0.2636175   0.5000000  )
        24           Fe3 tau(  24) = (   0.7500000   0.0000000   0.7500000  )
        25           Fe4 tau(  25) = (   0.5000000   0.2636175   0.7500000  )
        26           Fe1 tau(  26) = (   0.5000000   0.5272350   0.0000000  )
        27           Fe2 tau(  27) = (   0.7500000   0.7908525   0.0000000  )
        28           Fe3 tau(  28) = (   0.7500000   0.5272350   0.2500000  )
        29           Fe4 tau(  29) = (   0.5000000   0.7908525   0.2500000  )
        30           Fe1 tau(  30) = (   0.5000000   0.5272350   0.5000000  )
        31           Fe2 tau(  31) = (   0.7500000   0.7908525   0.5000000  )
        32           Fe3 tau(  32) = (   0.7500000   0.5272350   0.7500000  )
        33           Fe4 tau(  33) = (   0.5000000   0.7908525   0.7500000  )

     number of k points=   365  Marzari-Vanderbilt smearing, width (Ry)=  0.0400

     Number of k-points >= 100: set verbosity='high' to print them.

     Dense  grid:   343891 G-vectors     FFT dimensions: (  90,  96,  90)

     Smooth grid:   184641 G-vectors     FFT dimensions: (  72,  75,  72)

     Estimated max dynamical RAM per process >       1.15 GB

     Estimated total dynamical RAM >      82.46 GB

     Check: negative core charge=   -0.000006
     Generating pointlists ...
     new r_m :   0.0910 (alat units)  1.1768 (a.u.) for type    1
     new r_m :   0.0910 (alat units)  1.1768 (a.u.) for type    2
     new r_m :   0.0910 (alat units)  1.1768 (a.u.) for type    3
     new r_m :   0.0910 (alat units)  1.1768 (a.u.) for type    4
     new r_m :   0.0910 (alat units)  1.1768 (a.u.) for type    5

     Initial potential from superposition of free atoms

     starting charge  527.98556, renormalised to  528.00000
     Starting wfcs are  330 randomized atomic wfcs
     Checking if some PAW data can be deallocated... 

     total cpu time spent up to now is      186.0 secs

     Self-consistent Calculation

     iteration #  1     ecut=    71.00 Ry     beta= 0.10
     Davidson diagonalization with overlap
     ethr =  1.00E-02,  avg # of iterations =  5.1

     negative rho (up, down):  3.180E-02 4.029E-04

     total cpu time spent up to now is      896.9 secs

     total energy              =  -10860.33250329 Ry
     estimated scf accuracy    <      72.13445036 Ry

     total magnetization       =     0.32 Bohr mag/cell
     absolute magnetization    =    58.83 Bohr mag/cell

     iteration #  2     ecut=    71.00 Ry     beta= 0.10
     Davidson diagonalization with overlap
     ethr =  1.00E-02,  avg # of iterations =  3.2

     negative rho (up, down):  3.295E-02 2.223E-02

     total cpu time spent up to now is     1438.9 secs

     total energy              =  -10861.33284134 Ry
     estimated scf accuracy    <     218.46527983 Ry

     total magnetization       =    -0.39 Bohr mag/cell
     absolute magnetization    =    55.10 Bohr mag/cell

     iteration #  3     ecut=    71.00 Ry     beta= 0.10
     Davidson diagonalization with overlap
     ethr =  1.00E-02,  avg # of iterations =  2.8

     negative rho (up, down):  3.363E-02 3.512E-02

     total cpu time spent up to now is     1953.7 secs

     total energy              =  -10864.65888498 Ry
     estimated scf accuracy    <     139.80857492 Ry

     total magnetization       =    -1.43 Bohr mag/cell
     absolute magnetization    =    63.55 Bohr mag/cell

     iteration #  4     ecut=    71.00 Ry     beta= 0.10
     Davidson diagonalization with overlap
     ethr =  1.00E-02,  avg # of iterations =  2.0

     negative rho (up, down):  3.769E-02 4.035E-02

     total cpu time spent up to now is     2449.1 secs

     total energy              =  -10864.16910277 Ry
     estimated scf accuracy    <      19.55684328 Ry

     total magnetization       =    -0.59 Bohr mag/cell
     absolute magnetization    =    55.26 Bohr mag/cell

     iteration #  5     ecut=    71.00 Ry     beta= 0.10
     Davidson diagonalization with overlap
     ethr =  3.70E-03,  avg # of iterations =  1.5

     negative rho (up, down):  4.682E-02 4.655E-02

     total cpu time spent up to now is     2941.1 secs

     total energy              =  -10863.58256727 Ry
     estimated scf accuracy    <       8.54335795 Ry

     total magnetization       =    -0.09 Bohr mag/cell
     absolute magnetization    =    51.99 Bohr mag/cell

     iteration #  6     ecut=    71.00 Ry     beta= 0.10
     Davidson diagonalization with overlap
     ethr =  1.62E-03,  avg # of iterations =  2.0

     negative rho (up, down):  5.469E-02 4.996E-02

     total cpu time spent up to now is     3455.7 secs

     total energy              =  -10863.18661155 Ry
     estimated scf accuracy    <       8.35386785 Ry

     total magnetization       =    -0.21 Bohr mag/cell
     absolute magnetization    =    48.26 Bohr mag/cell

     iteration #  7     ecut=    71.00 Ry     beta= 0.10
     Davidson diagonalization with overlap
     ethr =  1.58E-03,  avg # of iterations =  1.0

     negative rho (up, down):  5.618E-02 4.856E-02

     total cpu time spent up to now is     3922.2 secs

     total energy              =  -10863.11993140 Ry
     estimated scf accuracy    <       3.17406426 Ry

     total magnetization       =    -0.14 Bohr mag/cell
     absolute magnetization    =    47.29 Bohr mag/cell

     iteration #  8     ecut=    71.00 Ry     beta= 0.10
     Davidson diagonalization with overlap
     ethr =  6.01E-04,  avg # of iterations =  1.6

     negative rho (up, down):  5.437E-02 4.421E-02

     total cpu time spent up to now is     4412.9 secs

     total energy              =  -10863.02768125 Ry
     estimated scf accuracy    <       2.87855452 Ry

     total magnetization       =     0.01 Bohr mag/cell
     absolute magnetization    =    46.43 Bohr mag/cell

     iteration #  9     ecut=    71.00 Ry     beta= 0.10
     Davidson diagonalization with overlap
     ethr =  5.45E-04,  avg # of iterations =  1.1

     negative rho (up, down):  5.004E-02 3.847E-02

     total cpu time spent up to now is     4880.5 secs

     total energy              =  -10863.02621721 Ry
     estimated scf accuracy    <       0.44470577 Ry

     total magnetization       =     0.09 Bohr mag/cell
     absolute magnetization    =    46.09 Bohr mag/cell

     iteration # 10     ecut=    71.00 Ry     beta= 0.10
     Davidson diagonalization with overlap
     c_bands:  1 eigenvalues not converged
     c_bands:  1 eigenvalues not converged
     c_bands:  1 eigenvalues not converged
     c_bands:  1 eigenvalues not converged
     c_bands:  2 eigenvalues not converged
     c_bands:  1 eigenvalues not converged
     c_bands:  1 eigenvalues not converged
     c_bands:  2 eigenvalues not converged
     c_bands:  2 eigenvalues not converged
     c_bands:  1 eigenvalues not converged
     c_bands:  1 eigenvalues not converged
     c_bands:  1 eigenvalues not converged
     c_bands:  1 eigenvalues not converged
     c_bands:  1 eigenvalues not converged
     c_bands:  1 eigenvalues not converged
     c_bands:  2 eigenvalues not converged
     c_bands:  2 eigenvalues not converged
     c_bands:  1 eigenvalues not converged
     c_bands:  1 eigenvalues not converged
     ethr =  8.42E-05,  avg # of iterations =  8.5

     negative rho (up, down):  4.344E-02 3.079E-02

     total cpu time spent up to now is     5505.7 secs

     total energy              =  -10862.97971652 Ry
     estimated scf accuracy    <       0.31445116 Ry

     total magnetization       =     0.04 Bohr mag/cell
     absolute magnetization    =    45.67 Bohr mag/cell

     iteration # 11     ecut=    71.00 Ry     beta= 0.10
     Davidson diagonalization with overlap
     c_bands:  1 eigenvalues not converged
     c_bands:  1 eigenvalues not converged
     c_bands:  2 eigenvalues not converged
     c_bands:  1 eigenvalues not converged
     c_bands:  2 eigenvalues not converged
     c_bands:  1 eigenvalues not converged
     c_bands:  1 eigenvalues not converged
     c_bands:  1 eigenvalues not converged
     c_bands:  1 eigenvalues not converged
     c_bands:  1 eigenvalues not converged
     ethr =  5.96E-05,  avg # of iterations =  3.4

     negative rho (up, down):  3.761E-02 2.471E-02

     total cpu time spent up to now is     6046.7 secs

     total energy              =  -10862.97375613 Ry
     estimated scf accuracy    <       0.26642442 Ry

     total magnetization       =    -0.06 Bohr mag/cell
     absolute magnetization    =    45.36 Bohr mag/cell

     iteration # 12     ecut=    71.00 Ry     beta= 0.10
     Davidson diagonalization with overlap
     c_bands:  1 eigenvalues not converged
     ethr =  5.05E-05,  avg # of iterations =  1.9

     negative rho (up, down):  3.314E-02 2.206E-02

     total cpu time spent up to now is     6553.7 secs

     total energy              =  -10862.96494468 Ry
     estimated scf accuracy    <       0.22923589 Ry

     total magnetization       =    -0.03 Bohr mag/cell
     absolute magnetization    =    45.09 Bohr mag/cell

     iteration # 13     ecut=    71.00 Ry     beta= 0.10
     Davidson diagonalization with overlap
     c_bands:  1 eigenvalues not converged
     c_bands:  2 eigenvalues not converged
     c_bands:  1 eigenvalues not converged
     ethr =  4.34E-05,  avg # of iterations =  2.0

     negative rho (up, down):  2.753E-02 1.856E-02

     total cpu time spent up to now is     7052.5 secs

     total energy              =  -10862.98597850 Ry
     estimated scf accuracy    <       0.22357053 Ry

     total magnetization       =     0.00 Bohr mag/cell
     absolute magnetization    =    44.93 Bohr mag/cell

     iteration # 14     ecut=    71.00 Ry     beta= 0.10
     Davidson diagonalization with overlap
     ethr =  4.23E-05,  avg # of iterations =  1.3

     negative rho (up, down):  2.140E-02 1.459E-02

     total cpu time spent up to now is     7531.1 secs

     total energy              =  -10863.02440378 Ry
     estimated scf accuracy    <       0.17895078 Ry

     total magnetization       =     0.02 Bohr mag/cell
     absolute magnetization    =    44.70 Bohr mag/cell

     iteration # 15     ecut=    71.00 Ry     beta= 0.10
     Davidson diagonalization with overlap
     ethr =  3.39E-05,  avg # of iterations =  2.1

     negative rho (up, down):  1.065E-02 8.147E-03

     total cpu time spent up to now is     8053.7 secs

     total energy              =  -10863.12714965 Ry
     estimated scf accuracy    <       0.17679325 Ry

     total magnetization       =    -0.07 Bohr mag/cell
     absolute magnetization    =    44.55 Bohr mag/cell

     iteration # 16     ecut=    71.00 Ry     beta= 0.10
     Davidson diagonalization with overlap
     c_bands:  1 eigenvalues not converged
     c_bands:  2 eigenvalues not converged
     c_bands:  2 eigenvalues not converged
     c_bands:  2 eigenvalues not converged
     c_bands:  2 eigenvalues not converged
     ethr =  3.35E-05,  avg # of iterations =  2.3

     negative rho (up, down):  8.900E-03 6.717E-03

     total cpu time spent up to now is     8674.3 secs

     total energy              =  -10863.18349860 Ry
     estimated scf accuracy    <       0.15514383 Ry

     total magnetization       =    -0.05 Bohr mag/cell
     absolute magnetization    =    44.18 Bohr mag/cell

     iteration # 17     ecut=    71.00 Ry     beta= 0.10
     Davidson diagonalization with overlap
     ethr =  2.94E-05,  avg # of iterations =  1.1

     negative rho (up, down):  4.219E-03 2.937E-03

     total cpu time spent up to now is     9144.1 secs

     total energy              =  -10863.25473041 Ry
     estimated scf accuracy    <       0.12612276 Ry

     total magnetization       =    -0.00 Bohr mag/cell
     absolute magnetization    =    44.12 Bohr mag/cell

     iteration # 18     ecut=    71.00 Ry     beta= 0.10
     Davidson diagonalization with overlap
     c_bands:  2 eigenvalues not converged
     c_bands:  2 eigenvalues not converged
     c_bands:  1 eigenvalues not converged
     ethr =  2.39E-05,  avg # of iterations =  2.5

     negative rho (up, down):  1.867E-03 8.962E-04

     total cpu time spent up to now is     9745.4 secs

     total energy              =  -10863.30435330 Ry
     estimated scf accuracy    <       0.11936865 Ry

     total magnetization       =     0.04 Bohr mag/cell
     absolute magnetization    =    43.99 Bohr mag/cell

     iteration # 19     ecut=    71.00 Ry     beta= 0.10
     Davidson diagonalization with overlap
     c_bands:  2 eigenvalues not converged
     c_bands:  2 eigenvalues not converged
     ethr =  2.26E-05,  avg # of iterations =  2.3

     negative rho (up, down):  2.530E-04 1.514E-04

     total cpu time spent up to now is    10328.6 secs

     total energy              =  -10863.33535828 Ry
     estimated scf accuracy    <       0.09740664 Ry

     total magnetization       =    -0.05 Bohr mag/cell
     absolute magnetization    =    43.92 Bohr mag/cell

     iteration # 20     ecut=    71.00 Ry     beta= 0.10
     Davidson diagonalization with overlap
     c_bands:  2 eigenvalues not converged
     c_bands:  1 eigenvalues not converged
     c_bands:  1 eigenvalues not converged
     c_bands:  1 eigenvalues not converged
     ethr =  1.84E-05,  avg # of iterations =  2.6

     negative rho (up, down):  0.000E+00 9.333E-06

     total cpu time spent up to now is    10902.4 secs

     total energy              =  -10863.34622154 Ry
     estimated scf accuracy    <       0.08714094 Ry

     total magnetization       =    -0.03 Bohr mag/cell
     absolute magnetization    =    43.91 Bohr mag/cell

     iteration # 21     ecut=    71.00 Ry     beta= 0.10
     Davidson diagonalization with overlap
     c_bands:  2 eigenvalues not converged
     c_bands:  1 eigenvalues not converged
     ethr =  1.65E-05,  avg # of iterations =  1.4

     total cpu time spent up to now is    11374.6 secs

     total energy              =  -10863.35040500 Ry
     estimated scf accuracy    <       0.02920133 Ry

     total magnetization       =    -0.00 Bohr mag/cell
     absolute magnetization    =    43.93 Bohr mag/cell

     iteration # 22     ecut=    71.00 Ry     beta= 0.10
     Davidson diagonalization with overlap
     c_bands:  1 eigenvalues not converged
     c_bands:  1 eigenvalues not converged
     c_bands:  1 eigenvalues not converged
     c_bands:  2 eigenvalues not converged
     c_bands:  1 eigenvalues not converged
     c_bands:  1 eigenvalues not converged
     c_bands:  1 eigenvalues not converged
     c_bands:  1 eigenvalues not converged
     c_bands:  1 eigenvalues not converged
     c_bands:  2 eigenvalues not converged
     c_bands:  1 eigenvalues not converged
     c_bands:  1 eigenvalues not converged
     c_bands:  1 eigenvalues not converged
     c_bands:  1 eigenvalues not converged
     c_bands:  1 eigenvalues not converged
     c_bands:  2 eigenvalues not converged
     c_bands:  1 eigenvalues not converged
     c_bands:  1 eigenvalues not converged
     c_bands:  1 eigenvalues not converged
     c_bands:  1 eigenvalues not converged
     c_bands:  1 eigenvalues not converged
     c_bands:  1 eigenvalues not converged
     c_bands:  1 eigenvalues not converged
     c_bands:  1 eigenvalues not converged
     c_bands:  1 eigenvalues not converged
     c_bands:  3 eigenvalues not converged
     c_bands:  1 eigenvalues not converged
     c_bands:  1 eigenvalues not converged
     ethr =  5.53E-06,  avg # of iterations =  6.7

     total cpu time spent up to now is    11960.7 secs

     total energy              =  -10863.35155198 Ry
     estimated scf accuracy    <       0.01824361 Ry

     total magnetization       =     0.02 Bohr mag/cell
     absolute magnetization    =    43.95 Bohr mag/cell

     iteration # 23     ecut=    71.00 Ry     beta= 0.10
     Davidson diagonalization with overlap
     c_bands:  1 eigenvalues not converged
     c_bands:  1 eigenvalues not converged
     c_bands:  1 eigenvalues not converged
     ethr =  3.46E-06,  avg # of iterations =  4.2

     total cpu time spent up to now is    12499.5 secs

     total energy              =  -10863.35201715 Ry
     estimated scf accuracy    <       0.01275396 Ry

     total magnetization       =     0.00 Bohr mag/cell
     absolute magnetization    =    43.96 Bohr mag/cell

     iteration # 24     ecut=    71.00 Ry     beta= 0.10
     Davidson diagonalization with overlap
     c_bands:  1 eigenvalues not converged
     c_bands:  1 eigenvalues not converged
     c_bands:  1 eigenvalues not converged
     c_bands:  1 eigenvalues not converged
     ethr =  2.42E-06,  avg # of iterations =  2.4

     total cpu time spent up to now is    13003.4 secs

     total energy              =  -10863.35210896 Ry
     estimated scf accuracy    <       0.01011198 Ry

     total magnetization       =    -0.01 Bohr mag/cell
     absolute magnetization    =    43.95 Bohr mag/cell

     iteration # 25     ecut=    71.00 Ry     beta= 0.10
     Davidson diagonalization with overlap
     c_bands:  1 eigenvalues not converged
     ethr =  1.92E-06,  avg # of iterations =  1.4

     total cpu time spent up to now is    13483.1 secs

     total energy              =  -10863.35249985 Ry
     estimated scf accuracy    <       0.00601528 Ry

     total magnetization       =    -0.00 Bohr mag/cell
     absolute magnetization    =    43.93 Bohr mag/cell

     iteration # 26     ecut=    71.00 Ry     beta= 0.10
     Davidson diagonalization with overlap
     ethr =  1.14E-06,  avg # of iterations =  1.1

     total cpu time spent up to now is    13950.5 secs

     total energy              =  -10863.35295758 Ry
     estimated scf accuracy    <       0.00263447 Ry

     total magnetization       =     0.01 Bohr mag/cell
     absolute magnetization    =    43.93 Bohr mag/cell

     iteration # 27     ecut=    71.00 Ry     beta= 0.10
     Davidson diagonalization with overlap
     ethr =  4.99E-07,  avg # of iterations =  1.5

     total cpu time spent up to now is    14438.2 secs

     total energy              =  -10863.35324648 Ry
     estimated scf accuracy    <       0.00212202 Ry

     total magnetization       =     0.01 Bohr mag/cell
     absolute magnetization    =    43.91 Bohr mag/cell

     iteration # 28     ecut=    71.00 Ry     beta= 0.10
     Davidson diagonalization with overlap
     ethr =  4.02E-07,  avg # of iterations =  1.0

     total cpu time spent up to now is    14898.8 secs

     total energy              =  -10863.35343106 Ry
     estimated scf accuracy    <       0.00139067 Ry

     total magnetization       =     0.00 Bohr mag/cell
     absolute magnetization    =    43.92 Bohr mag/cell

     iteration # 29     ecut=    71.00 Ry     beta= 0.10
     Davidson diagonalization with overlap
     ethr =  2.63E-07,  avg # of iterations =  1.1

     total cpu time spent up to now is    15364.4 secs

     total energy              =  -10863.35361647 Ry
     estimated scf accuracy    <       0.00128123 Ry

     total magnetization       =     0.00 Bohr mag/cell
     absolute magnetization    =    43.93 Bohr mag/cell

     iteration # 30     ecut=    71.00 Ry     beta= 0.10
     Davidson diagonalization with overlap
     ethr =  2.43E-07,  avg # of iterations =  1.0

     total cpu time spent up to now is    15828.8 secs

     total energy              =  -10863.35392278 Ry
     estimated scf accuracy    <       0.00107538 Ry

     total magnetization       =     0.01 Bohr mag/cell
     absolute magnetization    =    43.93 Bohr mag/cell

     iteration # 31     ecut=    71.00 Ry     beta= 0.10
     Davidson diagonalization with overlap
     ethr =  2.04E-07,  avg # of iterations =  2.0

     total cpu time spent up to now is    16353.5 secs

     total energy              =  -10863.35429103 Ry
     estimated scf accuracy    <       0.00074980 Ry

     total magnetization       =     0.00 Bohr mag/cell
     absolute magnetization    =    43.94 Bohr mag/cell

     iteration # 32     ecut=    71.00 Ry     beta= 0.10
     Davidson diagonalization with overlap
     ethr =  1.42E-07,  avg # of iterations =  2.1

     total cpu time spent up to now is    16878.7 secs

     total energy              =  -10863.35444120 Ry
     estimated scf accuracy    <       0.00080649 Ry

     total magnetization       =    -0.00 Bohr mag/cell
     absolute magnetization    =    43.95 Bohr mag/cell

     iteration # 33     ecut=    71.00 Ry     beta= 0.10
     Davidson diagonalization with overlap
     ethr =  1.42E-07,  avg # of iterations =  1.0

     total cpu time spent up to now is    17340.6 secs

     total energy              =  -10863.35462733 Ry
     estimated scf accuracy    <       0.00064370 Ry

     total magnetization       =     0.00 Bohr mag/cell
     absolute magnetization    =    43.96 Bohr mag/cell

     iteration # 34     ecut=    71.00 Ry     beta= 0.10
     Davidson diagonalization with overlap
     ethr =  1.22E-07,  avg # of iterations =  1.1

     total cpu time spent up to now is    17807.3 secs

     total energy              =  -10863.35487065 Ry
     estimated scf accuracy    <       0.00056941 Ry

     total magnetization       =     0.01 Bohr mag/cell
     absolute magnetization    =    43.96 Bohr mag/cell

     iteration # 35     ecut=    71.00 Ry     beta= 0.10
     Davidson diagonalization with overlap
     ethr =  1.08E-07,  avg # of iterations =  2.2

     total cpu time spent up to now is    18357.0 secs

     total energy              =  -10863.35506559 Ry
     estimated scf accuracy    <       0.00044484 Ry

     total magnetization       =     0.01 Bohr mag/cell
     absolute magnetization    =    43.98 Bohr mag/cell

     iteration # 36     ecut=    71.00 Ry     beta= 0.10
     Davidson diagonalization with overlap
     ethr =  8.43E-08,  avg # of iterations =  2.1

     total cpu time spent up to now is    18875.9 secs

     total energy              =  -10863.35515795 Ry
     estimated scf accuracy    <       0.00023370 Ry

     total magnetization       =    -0.00 Bohr mag/cell
     absolute magnetization    =    44.00 Bohr mag/cell

     iteration # 37     ecut=    71.00 Ry     beta= 0.10
     Davidson diagonalization with overlap
     c_bands:  1 eigenvalues not converged
     ethr =  4.43E-08,  avg # of iterations =  2.3

     total cpu time spent up to now is    19392.5 secs

     total energy              =  -10863.35519822 Ry
     estimated scf accuracy    <       0.00019141 Ry

     total magnetization       =    -0.00 Bohr mag/cell
     absolute magnetization    =    44.00 Bohr mag/cell

     iteration # 38     ecut=    71.00 Ry     beta= 0.10
     Davidson diagonalization with overlap
     ethr =  3.63E-08,  avg # of iterations =  1.6

     total cpu time spent up to now is    19881.1 secs

     total energy              =  -10863.35523783 Ry
     estimated scf accuracy    <       0.00015614 Ry

     total magnetization       =     0.00 Bohr mag/cell
     absolute magnetization    =    44.01 Bohr mag/cell

     iteration # 39     ecut=    71.00 Ry     beta= 0.10
     Davidson diagonalization with overlap
     ethr =  2.96E-08,  avg # of iterations =  1.8

     total cpu time spent up to now is    20381.7 secs

     total energy              =  -10863.35527378 Ry
     estimated scf accuracy    <       0.00015661 Ry

     total magnetization       =     0.00 Bohr mag/cell
     absolute magnetization    =    44.02 Bohr mag/cell

     iteration # 40     ecut=    71.00 Ry     beta= 0.10
     Davidson diagonalization with overlap
     ethr =  2.96E-08,  avg # of iterations =  1.3

     total cpu time spent up to now is    20856.4 secs

     total energy              =  -10863.35530943 Ry
     estimated scf accuracy    <       0.00011767 Ry

     total magnetization       =    -0.00 Bohr mag/cell
     absolute magnetization    =    44.03 Bohr mag/cell

     iteration # 41     ecut=    71.00 Ry     beta= 0.10
     Davidson diagonalization with overlap
     ethr =  2.23E-08,  avg # of iterations =  1.6

     total cpu time spent up to now is    21346.9 secs

     total energy              =  -10863.35534659 Ry
     estimated scf accuracy    <       0.00015329 Ry

     total magnetization       =    -0.00 Bohr mag/cell
     absolute magnetization    =    44.04 Bohr mag/cell

     iteration # 42     ecut=    71.00 Ry     beta= 0.10
     Davidson diagonalization with overlap
     ethr =  2.23E-08,  avg # of iterations =  2.6

     total cpu time spent up to now is    21934.4 secs

     total energy              =  -10863.35539907 Ry
     estimated scf accuracy    <       0.00008370 Ry

     total magnetization       =    -0.00 Bohr mag/cell
     absolute magnetization    =    44.05 Bohr mag/cell

     iteration # 43     ecut=    71.00 Ry     beta= 0.10
     Davidson diagonalization with overlap
     ethr =  1.59E-08,  avg # of iterations =  2.0

     total cpu time spent up to now is    22477.0 secs

     total energy              =  -10863.35541928 Ry
     estimated scf accuracy    <       0.00003813 Ry

     total magnetization       =     0.00 Bohr mag/cell
     absolute magnetization    =    44.06 Bohr mag/cell

     iteration # 44     ecut=    71.00 Ry     beta= 0.10
     Davidson diagonalization with overlap
     ethr =  7.22E-09,  avg # of iterations =  2.0

     total cpu time spent up to now is    22987.9 secs

     total energy              =  -10863.35542900 Ry
     estimated scf accuracy    <       0.00003086 Ry

     total magnetization       =     0.00 Bohr mag/cell
     absolute magnetization    =    44.06 Bohr mag/cell

     iteration # 45     ecut=    71.00 Ry     beta= 0.10
     Davidson diagonalization with overlap
     ethr =  5.85E-09,  avg # of iterations =  2.1

     total cpu time spent up to now is    23503.3 secs

     total energy              =  -10863.35543834 Ry
     estimated scf accuracy    <       0.00002554 Ry

     total magnetization       =    -0.00 Bohr mag/cell
     absolute magnetization    =    44.07 Bohr mag/cell

     iteration # 46     ecut=    71.00 Ry     beta= 0.10
     Davidson diagonalization with overlap
     ethr =  4.84E-09,  avg # of iterations =  2.0

     total cpu time spent up to now is    24014.5 secs

     total energy              =  -10863.35544713 Ry
     estimated scf accuracy    <       0.00002382 Ry

     total magnetization       =     0.00 Bohr mag/cell
     absolute magnetization    =    44.07 Bohr mag/cell

     iteration # 47     ecut=    71.00 Ry     beta= 0.10
     Davidson diagonalization with overlap
     ethr =  4.51E-09,  avg # of iterations =  2.1

     total cpu time spent up to now is    24539.1 secs

     total energy              =  -10863.35545259 Ry
     estimated scf accuracy    <       0.00003442 Ry

     total magnetization       =     0.00 Bohr mag/cell
     absolute magnetization    =    44.08 Bohr mag/cell

     iteration # 48     ecut=    71.00 Ry     beta= 0.10
     Davidson diagonalization with overlap
     ethr =  4.51E-09,  avg # of iterations =  1.9

     total cpu time spent up to now is    25043.0 secs

     total energy              =  -10863.35545759 Ry
     estimated scf accuracy    <       0.00001433 Ry

     total magnetization       =     0.00 Bohr mag/cell
     absolute magnetization    =    44.08 Bohr mag/cell

     iteration # 49     ecut=    71.00 Ry     beta= 0.10
     Davidson diagonalization with overlap
     ethr =  2.71E-09,  avg # of iterations =  1.9

     total cpu time spent up to now is    25548.2 secs

     total energy              =  -10863.35545834 Ry
     estimated scf accuracy    <       0.00000450 Ry

     total magnetization       =    -0.00 Bohr mag/cell
     absolute magnetization    =    44.08 Bohr mag/cell

     iteration # 50     ecut=    71.00 Ry     beta= 0.10
     Davidson diagonalization with overlap
     ethr =  8.52E-10,  avg # of iterations =  2.0

     total cpu time spent up to now is    26065.1 secs

     total energy              =  -10863.35545974 Ry
     estimated scf accuracy    <       0.00000579 Ry

     total magnetization       =     0.00 Bohr mag/cell
     absolute magnetization    =    44.08 Bohr mag/cell

     iteration # 51     ecut=    71.00 Ry     beta= 0.10
     Davidson diagonalization with overlap
     ethr =  8.52E-10,  avg # of iterations =  1.0

     total cpu time spent up to now is    26525.9 secs

     total energy              =  -10863.35546105 Ry
     estimated scf accuracy    <       0.00000382 Ry

     total magnetization       =     0.00 Bohr mag/cell
     absolute magnetization    =    44.08 Bohr mag/cell

     iteration # 52     ecut=    71.00 Ry     beta= 0.10
     Davidson diagonalization with overlap
     ethr =  7.24E-10,  avg # of iterations =  1.7

     total cpu time spent up to now is    27097.2 secs

     total energy              =  -10863.35546210 Ry
     estimated scf accuracy    <       0.00000372 Ry

     total magnetization       =     0.00 Bohr mag/cell
     absolute magnetization    =    44.08 Bohr mag/cell

     iteration # 53     ecut=    71.00 Ry     beta= 0.10
     Davidson diagonalization with overlap
     ethr =  7.04E-10,  avg # of iterations =  1.0

     total cpu time spent up to now is    27569.4 secs

     total energy              =  -10863.35546301 Ry
     estimated scf accuracy    <       0.00000153 Ry

     total magnetization       =     0.00 Bohr mag/cell
     absolute magnetization    =    44.08 Bohr mag/cell

     iteration # 54     ecut=    71.00 Ry     beta= 0.10
     Davidson diagonalization with overlap
     ethr =  2.90E-10,  avg # of iterations =  1.8

     total cpu time spent up to now is    28068.8 secs

     total energy              =  -10863.35546374 Ry
     estimated scf accuracy    <       0.00000155 Ry

     total magnetization       =     0.00 Bohr mag/cell
     absolute magnetization    =    44.08 Bohr mag/cell

     iteration # 55     ecut=    71.00 Ry     beta= 0.10
     Davidson diagonalization with overlap
     ethr =  2.90E-10,  avg # of iterations =  2.1
 
     Magnetic moment per site:
     atom:    1    charge:   11.9866    magn:   -0.0000    constr:    0.0000
     atom:    2    charge:   11.6390    magn:    0.1143    constr:    0.0000
     atom:    3    charge:   11.6374    magn:   -0.1140    constr:    0.0000
     atom:    4    charge:   11.6369    magn:    0.1127    constr:    0.0000
     atom:    5    charge:   11.6372    magn:   -0.1133    constr:    0.0000
     atom:    6    charge:   11.4308    magn:    1.0916    constr:    0.0000
     atom:    7    charge:   11.4293    magn:   -1.0904    constr:    0.0000
     atom:    8    charge:   11.4291    magn:    1.0869    constr:    0.0000
     atom:    9    charge:   11.4293    magn:   -1.0880    constr:    0.0000
     atom:   10    charge:   11.4310    magn:    1.1221    constr:    0.0000
     atom:   11    charge:   11.4294    magn:   -1.1225    constr:    0.0000
     atom:   12    charge:   11.4291    magn:    1.1200    constr:    0.0000
     atom:   13    charge:   11.4294    magn:   -1.1204    constr:    0.0000
     atom:   14    charge:   11.4305    magn:    1.2159    constr:    0.0000
     atom:   15    charge:   11.4289    magn:   -1.2144    constr:    0.0000
     atom:   16    charge:   11.4287    magn:    1.2131    constr:    0.0000
     atom:   17    charge:   11.4290    magn:   -1.2141    constr:    0.0000
     atom:   18    charge:   11.4310    magn:    1.0932    constr:    0.0000
     atom:   19    charge:   11.4293    magn:   -1.0918    constr:    0.0000
     atom:   20    charge:   11.4290    magn:    1.0871    constr:    0.0000
     atom:   21    charge:   11.4293    magn:   -1.0861    constr:    0.0000
     atom:   22    charge:   11.4302    magn:    1.1835    constr:    0.0000
     atom:   23    charge:   11.4287    magn:   -1.1845    constr:    0.0000
     atom:   24    charge:   11.4284    magn:    1.1774    constr:    0.0000
     atom:   25    charge:   11.4287    magn:   -1.1790    constr:    0.0000
     atom:   26    charge:   11.4306    magn:    1.2155    constr:    0.0000
     atom:   27    charge:   11.4290    magn:   -1.2160    constr:    0.0000
     atom:   28    charge:   11.4287    magn:    1.2127    constr:    0.0000
     atom:   29    charge:   11.4289    magn:   -1.2131    constr:    0.0000
     atom:   30    charge:   11.4276    magn:    1.1785    constr:    0.0000
     atom:   31    charge:   11.4260    magn:   -1.1761    constr:    0.0000
     atom:   32    charge:   11.4259    magn:    1.1751    constr:    0.0000
     atom:   33    charge:   11.4261    magn:   -1.1747    constr:    0.0000

     total cpu time spent up to now is    28586.8 secs

     End of self-consistent calculation

     Number of k-points >= 100: set verbosity='high' to print the bands.

     the Fermi energy is    20.8466 ev

!    total energy              =  -10863.35546623 Ry

     total all-electron energy =    -84001.141057 Ry
     estimated scf accuracy    <       0.00000095 Ry
     smearing contrib. (-TS)   =       0.02938890 Ry
     internal energy E=F+TS    =  -10863.38485513 Ry

     The total energy is F=E-TS. E is the sum of the following terms:
     one-electron contribution =   -3532.05255199 Ry
     hartree contribution      =    2139.85809549 Ry
     xc contribution           =    -917.59810015 Ry
     ewald contribution        =   -5821.52886385 Ry
     one-center paw contrib.   =   -2732.06343462 Ry

     total magnetization       =     0.00 Bohr mag/cell
     absolute magnetization    =    44.09 Bohr mag/cell

     convergence has been achieved in  55 iterations

     Forces acting on atoms (cartesian axes, Ry/au):

     atom    1 type  5   force =    -0.00040017   -0.00002888   -0.00038041
     atom    2 type  1   force =    -0.77445914   -0.82256153   -0.77442936
     atom    3 type  2   force =     0.77449408    0.82243107   -0.77434213
     atom    4 type  3   force =     0.77454234   -0.82207821    0.77453597
     atom    5 type  4   force =    -0.77426718    0.82238386    0.77449506
     atom    6 type  1   force =    -0.00860992   -0.00141285    0.01457305
     atom    7 type  2   force =     0.00865518    0.00135448    0.01464844
     atom    8 type  3   force =     0.00869593   -0.00141769   -0.01461562
     atom    9 type  4   force =    -0.00856046    0.00138832   -0.01461392
     atom   10 type  1   force =    -0.00277734    0.00706240   -0.00279382
     atom   11 type  2   force =     0.00281680   -0.00711934   -0.00285008
     atom   12 type  3   force =     0.00284119    0.00709865    0.00284530
     atom   13 type  4   force =    -0.00288103   -0.00710531    0.00285325
     atom   14 type  1   force =    -0.00133774    0.00842055    0.00929561
     atom   15 type  2   force =     0.00142401   -0.00843252    0.00932597
     atom   16 type  3   force =     0.00141016    0.00842647   -0.00937464
     atom   17 type  4   force =    -0.00138522   -0.00844660   -0.00934139
     atom   18 type  1   force =     0.01450184   -0.00134670   -0.00863450
     atom   19 type  2   force =    -0.01451221    0.00137892   -0.00858224
     atom   20 type  3   force =    -0.01463158   -0.00143271    0.00860424
     atom   21 type  4   force =     0.01452990    0.00136646    0.00861608
     atom   22 type  1   force =     0.01397927    0.00275070    0.01396308
     atom   23 type  2   force =    -0.01393551   -0.00282535    0.01400389
     atom   24 type  3   force =    -0.01394497    0.00273484   -0.01399363
     atom   25 type  4   force =     0.01393698   -0.00274499   -0.01390628
     atom   26 type  1   force =     0.00929855    0.00841649   -0.00132422
     atom   27 type  2   force =    -0.00929705   -0.00841702   -0.00139940
     atom   28 type  3   force =    -0.00945484    0.00843859    0.00141576
     atom   29 type  4   force =     0.00938413   -0.00850285    0.00134105
     atom   30 type  1   force =     0.00159308   -0.00262141    0.00156872
     atom   31 type  2   force =    -0.00166553    0.00263949    0.00156144
     atom   32 type  3   force =    -0.00150845   -0.00242296   -0.00141055
     atom   33 type  4   force =     0.00152494    0.00262563   -0.00165470

     Total force =     2.740210     Total SCF correction =     0.002920


     Computing stress (Cartesian axis) and pressure

          total   stress  (Ry/bohr**3)                   (kbar)     P=      369.08
   0.00247349   0.00000007  -0.00000004          363.86        0.01       -0.01
   0.00000007   0.00258004   0.00000011            0.01      379.54        0.02
  -0.00000004   0.00000011   0.00247338           -0.01        0.02      363.85


     BFGS Geometry Optimization
     Energy error            =      0.0E+00
     Gradient error          =      8.2E-01
     Cell gradient error     =      2.6E-03


     number of scf cycles    =   1
     number of bfgs steps    =   0

     enthalpy new            =  -10863.3554662319 Ry

     new trust radius        =       0.5000000000 bohr
     new conv_thr            =       0.0000010000 Ry

     new unit-cell volume =   2444.27292 a.u.^3 (   362.20388 Ang^3 )
     density =      8.44878 g/cm^3

CELL_PARAMETERS (alat= 12.93818670)
   1.022572920   0.000000663  -0.000000359
   0.000000700   1.079297836   0.000001043
  -0.000000359   0.000000989   1.022571916

ATOMIC_POSITIONS (crystal)
Fe5           0.1249887096        0.1249992271        0.1249892672
Fe1          -0.0218505830       -0.0220089174       -0.0218497428
Fe2           0.2718515686        0.2720054267       -0.0218472816
Fe3           0.2718529301       -0.0219959855        0.2718527506
Fe4          -0.0218451668        0.2720041635        0.2718515962
Fe1          -0.0002429203       -0.0000378029        0.5004111639
Fe2           0.2502441972        0.2500362412        0.5004132908
Fe3           0.2502453468       -0.0000379325        0.7495876350
Fe4          -0.0002415248        0.2500371468        0.7495876830
Fe1          -0.0000783598        0.5001889655       -0.0000788247
Fe2           0.2500794732        0.7498095110       -0.0000804121
Fe3           0.2500801612        0.5001899356        0.2500802774
Fe4          -0.0000812852        0.7498098863        0.2500805016
Fe1          -0.0000377430        0.5002253051        0.5002622662
Fe2           0.2500401769        0.7497743747        0.5002631227
Fe3           0.2500397862        0.5002254633        0.7497355040
Fe4          -0.0000390827        0.7497739980        0.7497364420
Fe1           0.5004091548       -0.0000360330       -0.0002436138
Fe2           0.7495905526        0.2500368952       -0.0002421392
Fe3           0.7495871847       -0.0000383345        0.2502427599
Fe4           0.5004099463        0.2500365617        0.2502430939
Fe1           0.5003944111        0.0000735993        0.5003939541
Fe2           0.7496068237        0.2499244034        0.5003951056
Fe3           0.7496065568        0.0000731749        0.7496051838
Fe4           0.5003932177        0.2499265535        0.7496076485
Fe1           0.5002623491        0.5002251964       -0.0000373614
Fe2           0.7497376930        0.7497747895       -0.0000394827
Fe3           0.7497332412        0.5002257876        0.2500399441
Fe4           0.5002647636        0.7497724929        0.2500378365
Fe1           0.5000449472        0.4999298602        0.5000442597
Fe2           0.7499530087        0.7500706236        0.5000440545
Fe3           0.7499574407        0.4999351699        0.7499602028
Fe4           0.5000430246        0.7500702529        0.7499533144



     Writing output data file /scratch/bxp912/fetetra2.save/
     NEW-OLD atomic charge density approx. for the potential

     Check: negative core charge=   -0.000006
     extrapolated charge  562.66772, renormalised to  528.00000
     Generating pointlists ...

     total cpu time spent up to now is    29225.4 secs

     Self-consistent Calculation

     iteration #  1     ecut=    71.00 Ry     beta= 0.10
     Davidson diagonalization with overlap
     c_bands:  5 eigenvalues not converged
     c_bands:  5 eigenvalues not converged
     c_bands:  4 eigenvalues not converged
     c_bands:  4 eigenvalues not converged
     c_bands:  4 eigenvalues not converged
     c_bands:  4 eigenvalues not converged
     c_bands:  4 eigenvalues not converged
     c_bands:  3 eigenvalues not converged
     c_bands:  5 eigenvalues not converged
     c_bands:  5 eigenvalues not converged
     c_bands:  4 eigenvalues not converged
     c_bands:  3 eigenvalues not converged
     c_bands:  4 eigenvalues not converged
     c_bands:  2 eigenvalues not converged
     c_bands:  2 eigenvalues not converged
     c_bands:  4 eigenvalues not converged
     c_bands:  4 eigenvalues not converged
     c_bands:  5 eigenvalues not converged
     c_bands:  4 eigenvalues not converged
     c_bands:  4 eigenvalues not converged
     c_bands:  4 eigenvalues not converged
     c_bands:  5 eigenvalues not converged
     c_bands:  4 eigenvalues not converged
     c_bands:  3 eigenvalues not converged
     c_bands:  4 eigenvalues not converged
     c_bands:  3 eigenvalues not converged
     c_bands:  3 eigenvalues not converged
     c_bands:  4 eigenvalues not converged
     c_bands:  4 eigenvalues not converged
     c_bands:  4 eigenvalues not converged
     c_bands:  5 eigenvalues not converged
     c_bands:  3 eigenvalues not converged
     c_bands:  4 eigenvalues not converged
     c_bands:  4 eigenvalues not converged
     c_bands:  1 eigenvalues not converged
     c_bands:  5 eigenvalues not converged
     c_bands:  5 eigenvalues not converged
     c_bands:  2 eigenvalues not converged
     c_bands:  5 eigenvalues not converged
     c_bands:  4 eigenvalues not converged
     c_bands:  3 eigenvalues not converged
     c_bands:  5 eigenvalues not converged
     c_bands:  2 eigenvalues not converged
     c_bands:  5 eigenvalues not converged
     c_bands:  4 eigenvalues not converged
     c_bands:  1 eigenvalues not converged
     c_bands:  3 eigenvalues not converged
     c_bands:  4 eigenvalues not converged
     c_bands:  3 eigenvalues not converged
     c_bands:  3 eigenvalues not converged
     c_bands:  5 eigenvalues not converged
     c_bands:  2 eigenvalues not converged
     c_bands:  4 eigenvalues not converged
     c_bands:  4 eigenvalues not converged
     c_bands:  1 eigenvalues not converged
     c_bands:  1 eigenvalues not converged
     c_bands:  3 eigenvalues not converged
     c_bands:  3 eigenvalues not converged
     c_bands:  2 eigenvalues not converged
     c_bands:  1 eigenvalues not converged
     c_bands:  5 eigenvalues not converged
     c_bands:  2 eigenvalues not converged
     c_bands:  2 eigenvalues not converged
     c_bands:  2 eigenvalues not converged
     c_bands:  2 eigenvalues not converged
     c_bands:  2 eigenvalues not converged
     c_bands:  5 eigenvalues not converged
     c_bands:  5 eigenvalues not converged
     c_bands:  5 eigenvalues not converged
     c_bands:  4 eigenvalues not converged
     c_bands:  4 eigenvalues not converged
     c_bands:  5 eigenvalues not converged
     c_bands:  4 eigenvalues not converged
     c_bands:  4 eigenvalues not converged
     c_bands:  4 eigenvalues not converged
     c_bands:  4 eigenvalues not converged
     c_bands:  4 eigenvalues not converged
     c_bands:  4 eigenvalues not converged
     c_bands:  4 eigenvalues not converged
     c_bands:  2 eigenvalues not converged
     c_bands:  1 eigenvalues not converged
     c_bands:  5 eigenvalues not converged
     c_bands:  1 eigenvalues not converged
     c_bands:  4 eigenvalues not converged
     c_bands:  1 eigenvalues not converged
     c_bands:  2 eigenvalues not converged
     c_bands:  4 eigenvalues not converged
     c_bands:  4 eigenvalues not converged
     c_bands:  4 eigenvalues not converged
     c_bands:  3 eigenvalues not converged
     c_bands:  4 eigenvalues not converged
     c_bands:  4 eigenvalues not converged
     c_bands:  4 eigenvalues not converged
     c_bands:  4 eigenvalues not converged
     c_bands:  4 eigenvalues not converged
     c_bands:  4 eigenvalues not converged
     c_bands:  4 eigenvalues not converged
     c_bands:  5 eigenvalues not converged
     c_bands:  4 eigenvalues not converged
     c_bands:  5 eigenvalues not converged
     c_bands:  3 eigenvalues not converged
     c_bands:  1 eigenvalues not converged
     c_bands:  5 eigenvalues not converged
     c_bands:  2 eigenvalues not converged
     c_bands:  5 eigenvalues not converged
     c_bands:  1 eigenvalues not converged
     c_bands:  2 eigenvalues not converged
     c_bands:  2 eigenvalues not converged
     c_bands:  4 eigenvalues not converged
     c_bands:  3 eigenvalues not converged
     c_bands:  5 eigenvalues not converged
     c_bands:  3 eigenvalues not converged
     c_bands:  3 eigenvalues not converged
     c_bands:  3 eigenvalues not converged
     c_bands:  3 eigenvalues not converged
     c_bands:  4 eigenvalues not converged
     c_bands:  5 eigenvalues not converged
     c_bands:  5 eigenvalues not converged
     c_bands:  3 eigenvalues not converged
     c_bands:  4 eigenvalues not converged
     c_bands:  3 eigenvalues not converged
     c_bands:  4 eigenvalues not converged
     c_bands:  4 eigenvalues not converged
     c_bands:  4 eigenvalues not converged
     c_bands:  4 eigenvalues not converged
     c_bands:  2 eigenvalues not converged
     c_bands:  4 eigenvalues not converged
     c_bands:  4 eigenvalues not converged
     c_bands:  3 eigenvalues not converged
     c_bands:  5 eigenvalues not converged
     c_bands:  4 eigenvalues not converged
     c_bands:  5 eigenvalues not converged
     c_bands:  3 eigenvalues not converged
     c_bands:  4 eigenvalues not converged
     c_bands:  4 eigenvalues not converged
     c_bands:  4 eigenvalues not converged
     c_bands:  4 eigenvalues not converged
     c_bands:  4 eigenvalues not converged
     c_bands:  4 eigenvalues not converged
     c_bands:  4 eigenvalues not converged
     c_bands:  4 eigenvalues not converged
     c_bands:  4 eigenvalues not converged
     c_bands:  5 eigenvalues not converged
     c_bands:  5 eigenvalues not converged
     c_bands:  5 eigenvalues not converged
     c_bands:  3 eigenvalues not converged
     c_bands:  2 eigenvalues not converged
     c_bands:  3 eigenvalues not converged
     c_bands:  4 eigenvalues not converged
     c_bands:  4 eigenvalues not converged
     c_bands:  3 eigenvalues not converged
     c_bands:  4 eigenvalues not converged
     c_bands:  4 eigenvalues not converged
     c_bands:  4 eigenvalues not converged
     c_bands:  5 eigenvalues not converged
     c_bands:  4 eigenvalues not converged
     c_bands:  4 eigenvalues not converged
     c_bands:  4 eigenvalues not converged
     c_bands:  5 eigenvalues not converged
     c_bands:  4 eigenvalues not converged
     c_bands:  4 eigenvalues not converged
     c_bands:  4 eigenvalues not converged
     c_bands:  4 eigenvalues not converged
     c_bands:  4 eigenvalues not converged
     c_bands:  4 eigenvalues not converged
     c_bands:  4 eigenvalues not converged
     c_bands:  4 eigenvalues not converged
     c_bands:  4 eigenvalues not converged
     c_bands:  4 eigenvalues not converged
     c_bands:  5 eigenvalues not converged
     c_bands:  5 eigenvalues not converged
     c_bands:  1 eigenvalues not converged
     c_bands:  1 eigenvalues not converged
     c_bands:  4 eigenvalues not converged
     c_bands:  3 eigenvalues not converged
     c_bands:  4 eigenvalues not converged
     c_bands:  4 eigenvalues not converged
     c_bands:  3 eigenvalues not converged
     c_bands:  4 eigenvalues not converged
     c_bands:  4 eigenvalues not converged
     c_bands:  4 eigenvalues not converged
     c_bands:  4 eigenvalues not converged
     c_bands:  4 eigenvalues not converged
     c_bands:  5 eigenvalues not converged
     c_bands:  1 eigenvalues not converged
     c_bands:  1 eigenvalues not converged
     c_bands:  1 eigenvalues not converged
     c_bands:  5 eigenvalues not converged
     c_bands:  1 eigenvalues not converged
     c_bands:  1 eigenvalues not converged
     c_bands:  4 eigenvalues not converged
     c_bands:  3 eigenvalues not converged
     c_bands:  4 eigenvalues not converged
     c_bands:  3 eigenvalues not converged
     c_bands:  3 eigenvalues not converged
     c_bands:  4 eigenvalues not converged
     c_bands:  4 eigenvalues not converged
     c_bands:  3 eigenvalues not converged
     c_bands:  3 eigenvalues not converged
     c_bands:  3 eigenvalues not converged
     c_bands:  5 eigenvalues not converged
     c_bands:  3 eigenvalues not converged
     c_bands:  3 eigenvalues not converged
     c_bands:  2 eigenvalues not converged
     c_bands:  4 eigenvalues not converged
     c_bands:  5 eigenvalues not converged
     c_bands:  4 eigenvalues not converged
     c_bands:  4 eigenvalues not converged
     c_bands:  5 eigenvalues not converged
     c_bands:  2 eigenvalues not converged
     c_bands:  5 eigenvalues not converged
     c_bands:  2 eigenvalues not converged
     c_bands:  4 eigenvalues not converged
     c_bands:  5 eigenvalues not converged
     c_bands:  2 eigenvalues not converged
     c_bands:  2 eigenvalues not converged
     c_bands:  5 eigenvalues not converged
     c_bands:  5 eigenvalues not converged
     c_bands:  4 eigenvalues not converged
     c_bands:  2 eigenvalues not converged
     c_bands:  4 eigenvalues not converged
     c_bands:  4 eigenvalues not converged
     c_bands:  4 eigenvalues not converged
     c_bands:  5 eigenvalues not converged
     c_bands:  2 eigenvalues not converged
     c_bands:  4 eigenvalues not converged
     c_bands:  5 eigenvalues not converged
     c_bands:  4 eigenvalues not converged
     c_bands:  3 eigenvalues not converged
     c_bands:  5 eigenvalues not converged
     c_bands:  4 eigenvalues not converged
     c_bands:  5 eigenvalues not converged
     c_bands:  5 eigenvalues not converged
     c_bands:  4 eigenvalues not converged
     c_bands:  5 eigenvalues not converged
     c_bands:  4 eigenvalues not converged
     c_bands:  2 eigenvalues not converged
     c_bands:  2 eigenvalues not converged
     c_bands:  3 eigenvalues not converged
     c_bands:  5 eigenvalues not converged
     c_bands:  3 eigenvalues not converged
     c_bands:  5 eigenvalues not converged
     c_bands:  4 eigenvalues not converged
     c_bands:  5 eigenvalues not converged
     c_bands:  4 eigenvalues not converged
     c_bands:  4 eigenvalues not converged
     c_bands:  5 eigenvalues not converged
     c_bands:  5 eigenvalues not converged
     c_bands:  4 eigenvalues not converged
     c_bands:  3 eigenvalues not converged
     c_bands:  3 eigenvalues not converged
     c_bands:  4 eigenvalues not converged
     c_bands:  5 eigenvalues not converged
     c_bands:  5 eigenvalues not converged
     c_bands:  1 eigenvalues not converged
     c_bands:  5 eigenvalues not converged
     c_bands:  1 eigenvalues not converged
     c_bands:  2 eigenvalues not converged
     c_bands:  5 eigenvalues not converged
     c_bands:  2 eigenvalues not converged
     c_bands:  1 eigenvalues not converged
     c_bands:  3 eigenvalues not converged
     c_bands:  4 eigenvalues not converged
     c_bands:  3 eigenvalues not converged
     c_bands:  5 eigenvalues not converged
     c_bands:  4 eigenvalues not converged
     c_bands:  3 eigenvalues not converged
     c_bands:  2 eigenvalues not converged
     c_bands:  2 eigenvalues not converged
     c_bands:  2 eigenvalues not converged
     c_bands:  1 eigenvalues not converged
     c_bands:  2 eigenvalues not converged
     c_bands:  3 eigenvalues not converged
     c_bands:  3 eigenvalues not converged
     c_bands:  5 eigenvalues not converged
     c_bands:  3 eigenvalues not converged
     c_bands:  1 eigenvalues not converged
     c_bands:  5 eigenvalues not converged
     c_bands:  1 eigenvalues not converged
     c_bands:  5 eigenvalues not converged
     c_bands:  3 eigenvalues not converged
     c_bands:  4 eigenvalues not converged
     c_bands:  5 eigenvalues not converged
     c_bands:  4 eigenvalues not converged
     c_bands:  4 eigenvalues not converged
     c_bands:  4 eigenvalues not converged
     c_bands:  3 eigenvalues not converged
     c_bands:  4 eigenvalues not converged
     c_bands:  3 eigenvalues not converged
     c_bands:  4 eigenvalues not converged
     c_bands:  3 eigenvalues not converged
     c_bands:  4 eigenvalues not converged
     c_bands:  3 eigenvalues not converged
     c_bands:  1 eigenvalues not converged
     c_bands:  5 eigenvalues not converged
     c_bands:  5 eigenvalues not converged
     c_bands:  3 eigenvalues not converged
     c_bands:  3 eigenvalues not converged
     c_bands:  3 eigenvalues not converged
     c_bands:  2 eigenvalues not converged
     c_bands:  3 eigenvalues not converged
     c_bands:  3 eigenvalues not converged
     c_bands:  5 eigenvalues not converged
     c_bands:  3 eigenvalues not converged
     c_bands:  2 eigenvalues not converged
     c_bands:  4 eigenvalues not converged
     c_bands:  4 eigenvalues not converged
     c_bands:  4 eigenvalues not converged
     c_bands:  4 eigenvalues not converged
     c_bands:  5 eigenvalues not converged
     c_bands:  3 eigenvalues not converged
     c_bands:  1 eigenvalues not converged
     c_bands:  3 eigenvalues not converged
     c_bands:  5 eigenvalues not converged
     c_bands:  3 eigenvalues not converged
     c_bands:  4 eigenvalues not converged
     c_bands:  4 eigenvalues not converged
     c_bands:  4 eigenvalues not converged
     c_bands:  4 eigenvalues not converged
     c_bands:  2 eigenvalues not converged
     c_bands:  4 eigenvalues not converged
     c_bands:  5 eigenvalues not converged
     c_bands:  5 eigenvalues not converged
     c_bands:  4 eigenvalues not converged
     c_bands:  4 eigenvalues not converged
     c_bands:  1 eigenvalues not converged
     c_bands:  5 eigenvalues not converged
     c_bands:  3 eigenvalues not converged
     c_bands:  1 eigenvalues not converged
     c_bands:  4 eigenvalues not converged
     c_bands:  4 eigenvalues not converged
     c_bands:  5 eigenvalues not converged
     c_bands:  5 eigenvalues not converged
     c_bands:  2 eigenvalues not converged
     c_bands:  4 eigenvalues not converged
     c_bands:  3 eigenvalues not converged
     c_bands:  3 eigenvalues not converged
     c_bands:  2 eigenvalues not converged
     c_bands:  2 eigenvalues not converged
     c_bands:  3 eigenvalues not converged
     c_bands:  4 eigenvalues not converged
     c_bands:  4 eigenvalues not converged
     c_bands:  4 eigenvalues not converged
     c_bands:  5 eigenvalues not converged
     c_bands:  3 eigenvalues not converged
     c_bands:  5 eigenvalues not converged
     c_bands:  1 eigenvalues not converged
     c_bands:  5 eigenvalues not converged
     c_bands:  1 eigenvalues not converged
     c_bands:  5 eigenvalues not converged
     c_bands:  5 eigenvalues not converged
     c_bands:  2 eigenvalues not converged
     c_bands:  1 eigenvalues not converged
     c_bands:  4 eigenvalues not converged
     c_bands:  4 eigenvalues not converged
     c_bands:  4 eigenvalues not converged
     c_bands:  4 eigenvalues not converged
     c_bands:  2 eigenvalues not converged
     c_bands:  1 eigenvalues not converged
     c_bands:  2 eigenvalues not converged
     c_bands:  2 eigenvalues not converged
     c_bands:  3 eigenvalues not converged
     c_bands:  1 eigenvalues not converged
     c_bands:  5 eigenvalues not converged
     c_bands:  5 eigenvalues not converged
     c_bands:  5 eigenvalues not converged
     c_bands:  5 eigenvalues not converged
     c_bands:  3 eigenvalues not converged
     c_bands:  2 eigenvalues not converged
     c_bands:  2 eigenvalues not converged
     c_bands:  5 eigenvalues not converged
     c_bands:  2 eigenvalues not converged
     c_bands:  2 eigenvalues not converged
     c_bands:  5 eigenvalues not converged
     c_bands:  4 eigenvalues not converged
     c_bands:  4 eigenvalues not converged
     c_bands:  4 eigenvalues not converged
     c_bands:  5 eigenvalues not converged
     c_bands:  4 eigenvalues not converged
     c_bands:  4 eigenvalues not converged
     c_bands:  4 eigenvalues not converged
     c_bands:  4 eigenvalues not converged
     c_bands:  4 eigenvalues not converged
     c_bands:  5 eigenvalues not converged
     c_bands:  1 eigenvalues not converged
     c_bands:  2 eigenvalues not converged
     c_bands:  2 eigenvalues not converged
     c_bands:  1 eigenvalues not converged
     c_bands:  1 eigenvalues not converged
     c_bands:  4 eigenvalues not converged
     c_bands:  4 eigenvalues not converged
     c_bands:  4 eigenvalues not converged
     c_bands:  4 eigenvalues not converged
     c_bands:  4 eigenvalues not converged
     c_bands:  4 eigenvalues not converged
     c_bands:  4 eigenvalues not converged
     c_bands:  4 eigenvalues not converged
     c_bands:  4 eigenvalues not converged
     c_bands:  4 eigenvalues not converged
     c_bands:  4 eigenvalues not converged
     c_bands:  3 eigenvalues not converged
     c_bands:  3 eigenvalues not converged
     c_bands:  2 eigenvalues not converged
     c_bands:  4 eigenvalues not converged
     c_bands:  2 eigenvalues not converged
     c_bands:  2 eigenvalues not converged
     c_bands:  1 eigenvalues not converged
     c_bands:  2 eigenvalues not converged
     c_bands:  5 eigenvalues not converged
     c_bands:  4 eigenvalues not converged
     c_bands:  3 eigenvalues not converged
     c_bands:  5 eigenvalues not converged
     c_bands:  3 eigenvalues not converged
     c_bands:  3 eigenvalues not converged
     c_bands:  4 eigenvalues not converged
     c_bands:  5 eigenvalues not converged
     c_bands:  3 eigenvalues not converged
     c_bands:  5 eigenvalues not converged
     c_bands:  4 eigenvalues not converged
     c_bands:  5 eigenvalues not converged
     c_bands:  4 eigenvalues not converged
     c_bands:  3 eigenvalues not converged
     c_bands:  4 eigenvalues not converged
     c_bands:  4 eigenvalues not converged
     c_bands:  5 eigenvalues not converged
     c_bands:  3 eigenvalues not converged
     c_bands:  4 eigenvalues not converged
     c_bands:  4 eigenvalues not converged
     c_bands:  3 eigenvalues not converged
     c_bands:  4 eigenvalues not converged
     c_bands:  4 eigenvalues not converged
     c_bands:  2 eigenvalues not converged
     c_bands:  4 eigenvalues not converged
     c_bands:  4 eigenvalues not converged
     c_bands:  4 eigenvalues not converged
     c_bands:  4 eigenvalues not converged
     c_bands:  5 eigenvalues not converged
     c_bands:  4 eigenvalues not converged
     c_bands:  4 eigenvalues not converged
     c_bands:  4 eigenvalues not converged
     c_bands:  4 eigenvalues not converged
     c_bands:  4 eigenvalues not converged
     c_bands:  4 eigenvalues not converged
     c_bands:  4 eigenvalues not converged
     c_bands:  4 eigenvalues not converged
     c_bands:  4 eigenvalues not converged
     c_bands:  5 eigenvalues not converged
     c_bands:  2 eigenvalues not converged
     c_bands:  3 eigenvalues not converged
     c_bands:  2 eigenvalues not converged
     c_bands:  4 eigenvalues not converged
     c_bands:  4 eigenvalues not converged
     c_bands:  4 eigenvalues not converged
     c_bands:  4 eigenvalues not converged
     c_bands:  5 eigenvalues not converged
     c_bands:  4 eigenvalues not converged
     c_bands:  5 eigenvalues not converged
     c_bands:  4 eigenvalues not converged
     c_bands:  4 eigenvalues not converged
     c_bands:  1 eigenvalues not converged
     c_bands:  4 eigenvalues not converged
     c_bands:  4 eigenvalues not converged
     c_bands:  4 eigenvalues not converged
     c_bands:  4 eigenvalues not converged
     c_bands:  4 eigenvalues not converged
     c_bands:  4 eigenvalues not converged
     c_bands:  4 eigenvalues not converged
     c_bands:  4 eigenvalues not converged
     c_bands:  4 eigenvalues not converged
     c_bands:  4 eigenvalues not converged
     c_bands:  5 eigenvalues not converged
     c_bands:  5 eigenvalues not converged
     c_bands:  1 eigenvalues not converged
     c_bands:  5 eigenvalues not converged
     c_bands:  5 eigenvalues not converged
     c_bands:  1 eigenvalues not converged
     c_bands:  3 eigenvalues not converged
     c_bands:  3 eigenvalues not converged
     c_bands:  3 eigenvalues not converged
     c_bands:  5 eigenvalues not converged
     c_bands:  4 eigenvalues not converged
     c_bands:  3 eigenvalues not converged
     c_bands:  3 eigenvalues not converged
     c_bands:  3 eigenvalues not converged
     c_bands:  4 eigenvalues not converged
     c_bands:  3 eigenvalues not converged
     c_bands:  4 eigenvalues not converged
     c_bands:  5 eigenvalues not converged
     c_bands:  5 eigenvalues not converged
     c_bands:  1 eigenvalues not converged
     c_bands:  1 eigenvalues not converged
     c_bands:  3 eigenvalues not converged
     c_bands:  4 eigenvalues not converged
     c_bands:  3 eigenvalues not converged
     c_bands:  5 eigenvalues not converged
     c_bands:  2 eigenvalues not converged
     c_bands:  3 eigenvalues not converged
     c_bands:  3 eigenvalues not converged
     c_bands:  4 eigenvalues not converged
     c_bands:  3 eigenvalues not converged
     c_bands:  3 eigenvalues not converged
     c_bands:  3 eigenvalues not converged
     c_bands:  4 eigenvalues not converged
     c_bands:  4 eigenvalues not converged
     c_bands:  5 eigenvalues not converged
     c_bands:  4 eigenvalues not converged
     c_bands:  1 eigenvalues not converged
     c_bands:  5 eigenvalues not converged
     c_bands:  4 eigenvalues not converged
     c_bands:  4 eigenvalues not converged
     c_bands:  4 eigenvalues not converged
     c_bands:  4 eigenvalues not converged
     c_bands:  3 eigenvalues not converged
     c_bands:  4 eigenvalues not converged
     c_bands:  4 eigenvalues not converged
     c_bands:  4 eigenvalues not converged
     c_bands:  4 eigenvalues not converged
     c_bands:  4 eigenvalues not converged
     c_bands:  3 eigenvalues not converged
     c_bands:  4 eigenvalues not converged
     c_bands:  3 eigenvalues not converged
     c_bands:  4 eigenvalues not converged
     c_bands:  5 eigenvalues not converged
     c_bands:  4 eigenvalues not converged
     c_bands:  1 eigenvalues not converged
     c_bands:  5 eigenvalues not converged
     c_bands:  5 eigenvalues not converged
     c_bands:  5 eigenvalues not converged
     c_bands:  5 eigenvalues not converged
     c_bands:  4 eigenvalues not converged
     c_bands:  5 eigenvalues not converged
     c_bands:  4 eigenvalues not converged
     c_bands:  5 eigenvalues not converged
     c_bands:  5 eigenvalues not converged
     c_bands:  2 eigenvalues not converged
     c_bands:  2 eigenvalues not converged
     c_bands:  4 eigenvalues not converged
     c_bands:  5 eigenvalues not converged
     c_bands:  4 eigenvalues not converged
     c_bands:  5 eigenvalues not converged
     c_bands:  4 eigenvalues not converged
     c_bands:  3 eigenvalues not converged
     c_bands:  1 eigenvalues not converged
     c_bands:  5 eigenvalues not converged
     c_bands:  5 eigenvalues not converged
     c_bands:  1 eigenvalues not converged
     c_bands:  4 eigenvalues not converged
     c_bands:  3 eigenvalues not converged
     c_bands:  3 eigenvalues not converged
     c_bands:  4 eigenvalues not converged
     c_bands:  5 eigenvalues not converged
     c_bands:  5 eigenvalues not converged
     c_bands:  4 eigenvalues not converged
     c_bands:  4 eigenvalues not converged
     c_bands:  5 eigenvalues not converged
     c_bands:  5 eigenvalues not converged
     c_bands:  3 eigenvalues not converged
     c_bands:  5 eigenvalues not converged
     c_bands:  2 eigenvalues not converged
     c_bands:  3 eigenvalues not converged
     c_bands:  4 eigenvalues not converged
     c_bands:  3 eigenvalues not converged
     c_bands:  4 eigenvalues not converged
     c_bands:  1 eigenvalues not converged
     c_bands:  3 eigenvalues not converged
     c_bands:  2 eigenvalues not converged
     c_bands:  3 eigenvalues not converged
     c_bands:  2 eigenvalues not converged
     c_bands:  3 eigenvalues not converged
     c_bands:  3 eigenvalues not converged
     c_bands:  4 eigenvalues not converged
     c_bands:  2 eigenvalues not converged
     c_bands:  2 eigenvalues not converged
     c_bands:  3 eigenvalues not converged
     c_bands:  5 eigenvalues not converged
     c_bands:  3 eigenvalues not converged
     c_bands:  2 eigenvalues not converged
     c_bands:  2 eigenvalues not converged
     c_bands:  3 eigenvalues not converged
     c_bands:  4 eigenvalues not converged
     c_bands:  3 eigenvalues not converged
     c_bands:  4 eigenvalues not converged
     c_bands:  4 eigenvalues not converged
     c_bands:  5 eigenvalues not converged
     c_bands:  4 eigenvalues not converged
     c_bands:  3 eigenvalues not converged
     c_bands:  4 eigenvalues not converged
     c_bands:  4 eigenvalues not converged
     c_bands:  4 eigenvalues not converged
     c_bands:  4 eigenvalues not converged
     c_bands:  2 eigenvalues not converged
     c_bands:  4 eigenvalues not converged
     c_bands:  1 eigenvalues not converged
     c_bands:  5 eigenvalues not converged
     c_bands:  1 eigenvalues not converged
     c_bands:  3 eigenvalues not converged
     c_bands:  2 eigenvalues not converged
     c_bands:  2 eigenvalues not converged
     c_bands:  3 eigenvalues not converged
     c_bands:  3 eigenvalues not converged
     c_bands:  1 eigenvalues not converged
     c_bands:  2 eigenvalues not converged
     ethr =  1.00E-06,  avg # of iterations = 44.9

     negative rho (up, down):  7.310E+00 7.308E+00

     total cpu time spent up to now is    35130.3 secs

     total energy              =  -11579.47840851 Ry
     estimated scf accuracy    <   19348.96598443 Ry

     total magnetization       =     0.00 Bohr mag/cell
     absolute magnetization    =    27.01 Bohr mag/cell

     iteration #  2     ecut=    71.00 Ry     beta= 0.10
     Davidson diagonalization with overlap
     ethr =  1.00E-02,  avg # of iterations =  5.0

     negative rho (up, down):  5.281E+01 5.281E+01

     total cpu time spent up to now is    36001.6 secs

     total energy              =  -10733.35283423 Ry
     estimated scf accuracy    <   15853.77352793 Ry

     total magnetization       =    -0.04 Bohr mag/cell
     absolute magnetization    =    40.95 Bohr mag/cell

     iteration #  3     ecut=    71.00 Ry     beta= 0.10
     Davidson diagonalization with overlap
     ethr =  1.00E-02,  avg # of iterations =  5.8

     negative rho (up, down):  8.411E+01 8.411E+01

     total cpu time spent up to now is    37081.7 secs

     total energy              =  -10968.13934932 Ry
     estimated scf accuracy    <    3590.16368398 Ry

     total magnetization       =     0.11 Bohr mag/cell
     absolute magnetization    =     9.56 Bohr mag/cell

     iteration #  4     ecut=    71.00 Ry     beta= 0.10
     Davidson diagonalization with overlap
     ethr =  1.00E-02,  avg # of iterations =  4.8

     negative rho (up, down):  4.971E+01 4.971E+01

     total cpu time spent up to now is    37886.4 secs

     total energy              =  -10760.01204242 Ry
     estimated scf accuracy    <    7168.37920611 Ry

     total magnetization       =    -0.07 Bohr mag/cell
     absolute magnetization    =    12.55 Bohr mag/cell

     iteration #  5     ecut=    71.00 Ry     beta= 0.10
     Davidson diagonalization with overlap
     ethr =  1.00E-02,  avg # of iterations =  6.5

     negative rho (up, down):  4.843E+01 4.843E+01

     total cpu time spent up to now is    38834.5 secs

     total energy              =  -10993.53052195 Ry
     estimated scf accuracy    <    3176.12705337 Ry

     total magnetization       =    -0.15 Bohr mag/cell
     absolute magnetization    =    31.92 Bohr mag/cell

     iteration #  6     ecut=    71.00 Ry     beta= 0.10
     Davidson diagonalization with overlap
     ethr =  1.00E-02,  avg # of iterations =  1.1

     negative rho (up, down):  5.067E+01 5.067E+01

     total cpu time spent up to now is    39294.8 secs

     total energy              =  -10979.98247112 Ry
     estimated scf accuracy    <    3451.90532151 Ry

     total magnetization       =    -0.21 Bohr mag/cell
     absolute magnetization    =    31.70 Bohr mag/cell

     iteration #  7     ecut=    71.00 Ry     beta= 0.10
     Davidson diagonalization with overlap
     ethr =  1.00E-02,  avg # of iterations =  1.0

     negative rho (up, down):  5.567E+01 5.567E+01

     total cpu time spent up to now is    39752.1 secs

     total energy              =  -10954.45360306 Ry
     estimated scf accuracy    <    3002.69096695 Ry

     total magnetization       =    -0.32 Bohr mag/cell
     absolute magnetization    =    31.45 Bohr mag/cell

     iteration #  8     ecut=    71.00 Ry     beta= 0.10
     Davidson diagonalization with overlap
     ethr =  1.00E-02,  avg # of iterations =  2.0

     negative rho (up, down):  5.665E+01 5.664E+01

     total cpu time spent up to now is    40268.0 secs

     total energy              =  -10957.77893429 Ry
     estimated scf accuracy    <    2062.51408880 Ry

     total magnetization       =    -0.13 Bohr mag/cell
     absolute magnetization    =    35.80 Bohr mag/cell

     iteration #  9     ecut=    71.00 Ry     beta= 0.10
     Davidson diagonalization with overlap
     ethr =  1.00E-02,  avg # of iterations =  1.0

     negative rho (up, down):  5.689E+01 5.689E+01

     total cpu time spent up to now is    40722.8 secs

     total energy              =  -10958.89158195 Ry
     estimated scf accuracy    <    1981.76513948 Ry

     total magnetization       =    -0.27 Bohr mag/cell
     absolute magnetization    =    31.45 Bohr mag/cell

     iteration # 10     ecut=    71.00 Ry     beta= 0.10
     Davidson diagonalization with overlap
     ethr =  1.00E-02,  avg # of iterations =  1.0

     negative rho (up, down):  5.974E+01 5.974E+01

     total cpu time spent up to now is    41179.4 secs

     total energy              =  -10949.48154979 Ry
     estimated scf accuracy    <    1938.86581813 Ry

     total magnetization       =    -0.23 Bohr mag/cell
     absolute magnetization    =    31.94 Bohr mag/cell

     iteration # 11     ecut=    71.00 Ry     beta= 0.10
     Davidson diagonalization with overlap
     ethr =  1.00E-02,  avg # of iterations =  2.0

     negative rho (up, down):  6.166E+01 6.168E+01

     total cpu time spent up to now is    41688.6 secs

     total energy              =  -10951.03622789 Ry
     estimated scf accuracy    <    1507.68290676 Ry

     total magnetization       =     0.73 Bohr mag/cell
     absolute magnetization    =    36.87 Bohr mag/cell

     iteration # 12     ecut=    71.00 Ry     beta= 0.10
     Davidson diagonalization with overlap
     ethr =  1.00E-02,  avg # of iterations =  1.0

[...]
     estimated scf accuracy    <     325.40219491 Ry

     total magnetization       =     4.09 Bohr mag/cell
     absolute magnetization    =    26.32 Bohr mag/cell

     iteration # 22     ecut=    71.00 Ry     beta= 0.10
     Davidson diagonalization with overlap
     ethr =  1.00E-02,  avg # of iterations =  1.0

     negative rho (up, down):  7.452E+01 7.452E+01

     total cpu time spent up to now is    47080.5 secs

     total energy              =  -10956.18561573 Ry
     estimated scf accuracy    <     358.29430279 Ry

     total magnetization       =     5.17 Bohr mag/cell
     absolute magnetization    =    25.80 Bohr mag/cell

     iteration # 23     ecut=    71.00 Ry     beta= 0.10
     Davidson diagonalization with overlap
     ethr =  1.00E-02,  avg # of iterations =  1.5

     negative rho (up, down):  7.584E+01 7.587E+01

     total cpu time spent up to now is    47561.3 secs

     total energy              =  -10953.29474367 Ry
     estimated scf accuracy    <     320.66844563 Ry

     total magnetization       =     3.51 Bohr mag/cell
     absolute magnetization    =    27.15 Bohr mag/cell

     iteration # 24     ecut=    71.00 Ry     beta= 0.10
     Davidson diagonalization with overlap
     ethr =  1.00E-02,  avg # of iterations =  1.0

     negative rho (up, down):  7.846E+01 7.851E+01

     total cpu time spent up to now is    48014.6 secs

     total energy              =  -10943.45840137 Ry
     estimated scf accuracy    <     250.73483687 Ry

     total magnetization       =     1.33 Bohr mag/cell
     absolute magnetization    =    28.94 Bohr mag/cell

     iteration # 25     ecut=    71.00 Ry     beta= 0.10
     Davidson diagonalization with overlap
     ethr =  1.00E-02,  avg # of iterations =  1.0

     negative rho (up, down):  8.069E+01 8.075E+01

     total cpu time spent up to now is    48468.2 secs

     total energy              =  -10939.59614586 Ry
     estimated scf accuracy    <      86.26889747 Ry

     total magnetization       =     0.70 Bohr mag/cell
     absolute magnetization    =    35.33 Bohr mag/cell

     iteration # 26     ecut=    71.00 Ry     beta= 0.10
     Davidson diagonalization with overlap
     ethr =  1.00E-02,  avg # of iterations =  5.8

     negative rho (up, down):  8.145E+01 8.152E+01

     total cpu time spent up to now is    49130.8 secs

     total energy              =  -10945.89244208 Ry
     estimated scf accuracy    <      66.23892344 Ry

     total magnetization       =    -0.80 Bohr mag/cell
     absolute magnetization    =    36.17 Bohr mag/cell

     iteration # 27     ecut=    71.00 Ry     beta= 0.10
     Davidson diagonalization with overlap
     ethr =  1.00E-02,  avg # of iterations =  1.0

     negative rho (up, down):  8.114E+01 8.120E+01

     total cpu time spent up to now is    49586.2 secs

     total energy              =  -10946.09631264 Ry
     estimated scf accuracy    <      35.14033550 Ry

     total magnetization       =    -1.08 Bohr mag/cell
     absolute magnetization    =    37.05 Bohr mag/cell

     iteration # 28     ecut=    71.00 Ry     beta= 0.10
     Davidson diagonalization with overlap
     ethr =  6.66E-03,  avg # of iterations =  1.0

     negative rho (up, down):  8.187E+01 8.192E+01

     total cpu time spent up to now is    50039.7 secs

     total energy              =  -10946.70293360 Ry
     estimated scf accuracy    <      15.61768970 Ry

     total magnetization       =     0.20 Bohr mag/cell
     absolute magnetization    =    38.36 Bohr mag/cell

     iteration # 29     ecut=    71.00 Ry     beta= 0.10
     Davidson diagonalization with overlap
     ethr =  2.96E-03,  avg # of iterations =  1.0

     negative rho (up, down):  8.297E+01 8.301E+01

     total cpu time spent up to now is    50494.7 secs

     total energy              =  -10949.31633021 Ry
     estimated scf accuracy    <      51.57748208 Ry

     total magnetization       =     0.36 Bohr mag/cell
     absolute magnetization    =    37.73 Bohr mag/cell

     iteration # 30     ecut=    71.00 Ry     beta= 0.10
     Davidson diagonalization with overlap
     ethr =  2.96E-03,  avg # of iterations =  1.0

     negative rho (up, down):  8.389E+01 8.393E+01

     total cpu time spent up to now is    50948.8 secs

     total energy              =  -10949.88171922 Ry
     estimated scf accuracy    <      48.47101285 Ry

     total magnetization       =     2.13 Bohr mag/cell
     absolute magnetization    =    37.04 Bohr mag/cell

     iteration # 31     ecut=    71.00 Ry     beta= 0.10
     Davidson diagonalization with overlap
     ethr =  2.96E-03,  avg # of iterations =  1.0

     negative rho (up, down):  8.456E+01 8.460E+01

     total cpu time spent up to now is    51404.0 secs

     total energy              =  -10950.18346736 Ry
     estimated scf accuracy    <      24.38737170 Ry

     total magnetization       =     0.75 Bohr mag/cell
     absolute magnetization    =    40.61 Bohr mag/cell

     iteration # 32     ecut=    71.00 Ry     beta= 0.10
     Davidson diagonalization with overlap
     ethr =  2.96E-03,  avg # of iterations =  1.0

     negative rho (up, down):  8.509E+01 8.513E+01

     total cpu time spent up to now is    51856.8 secs

     total energy              =  -10950.70017511 Ry
     estimated scf accuracy    <      18.20290515 Ry

     total magnetization       =     0.36 Bohr mag/cell
     absolute magnetization    =    41.58 Bohr mag/cell

     iteration # 33     ecut=    71.00 Ry     beta= 0.10
     Davidson diagonalization with overlap
     ethr =  2.96E-03,  avg # of iterations =  1.0

     negative rho (up, down):  8.556E+01 8.560E+01

     total cpu time spent up to now is    52311.6 secs

     total energy              =  -10951.03855221 Ry
     estimated scf accuracy    <      10.90166813 Ry

     total magnetization       =     0.45 Bohr mag/cell
     absolute magnetization    =    41.03 Bohr mag/cell

     iteration # 34     ecut=    71.00 Ry     beta= 0.10
     Davidson diagonalization with overlap
     ethr =  2.06E-03,  avg # of iterations =  1.0

     negative rho (up, down):  8.654E+01 8.658E+01

     total cpu time spent up to now is    52763.5 secs

     total energy              =  -10951.62111062 Ry
     estimated scf accuracy    <       5.86550004 Ry

     total magnetization       =     0.81 Bohr mag/cell
     absolute magnetization    =    40.79 Bohr mag/cell

     iteration # 35     ecut=    71.00 Ry     beta= 0.10
     Davidson diagonalization with overlap
     ethr =  1.11E-03,  avg # of iterations =  2.0

     negative rho (up, down):  8.796E+01 8.799E+01

     total cpu time spent up to now is    53273.1 secs

     total energy              =  -10952.46467670 Ry
     estimated scf accuracy    <       6.82881080 Ry

     total magnetization       =     0.71 Bohr mag/cell
     absolute magnetization    =    41.60 Bohr mag/cell

     iteration # 36     ecut=    71.00 Ry     beta= 0.10
     Davidson diagonalization with overlap
     ethr =  1.11E-03,  avg # of iterations =  2.0

     negative rho (up, down):  8.852E+01 8.855E+01

     total cpu time spent up to now is    53788.8 secs

     total energy              =  -10952.43593967 Ry
     estimated scf accuracy    <       7.23783705 Ry

     total magnetization       =     1.23 Bohr mag/cell
     absolute magnetization    =    41.63 Bohr mag/cell

     iteration # 37     ecut=    71.00 Ry     beta= 0.10
     Davidson diagonalization with overlap
     ethr =  1.11E-03,  avg # of iterations =  2.0

     negative rho (up, down):  8.867E+01 8.870E+01

     total cpu time spent up to now is    54291.5 secs

     total energy              =  -10952.92261030 Ry
     estimated scf accuracy    <      13.34998720 Ry

     total magnetization       =    -0.20 Bohr mag/cell
     absolute magnetization    =    43.30 Bohr mag/cell

     iteration # 38     ecut=    71.00 Ry     beta= 0.10
     Davidson diagonalization with overlap
     ethr =  1.11E-03,  avg # of iterations =  1.0

     negative rho (up, down):  8.951E+01 8.954E+01

     total cpu time spent up to now is    54745.8 secs

     total energy              =  -10953.25092877 Ry
     estimated scf accuracy    <       3.59202317 Ry

     total magnetization       =     0.01 Bohr mag/cell
     absolute magnetization    =    43.39 Bohr mag/cell

     iteration # 39     ecut=    71.00 Ry     beta= 0.10
     Davidson diagonalization with overlap
     ethr =  6.80E-04,  avg # of iterations =  2.0

     negative rho (up, down):  9.047E+01 9.049E+01

     total cpu time spent up to now is    55254.7 secs

     total energy              =  -10953.47149988 Ry
     estimated scf accuracy    <       2.04390343 Ry

     total magnetization       =     0.81 Bohr mag/cell
     absolute magnetization    =    43.64 Bohr mag/cell

     iteration # 40     ecut=    71.00 Ry     beta= 0.10
     Davidson diagonalization with overlap
     ethr =  3.87E-04,  avg # of iterations =  2.0

     negative rho (up, down):  9.077E+01 9.079E+01

     total cpu time spent up to now is    55768.9 secs

     total energy              =  -10953.59051935 Ry
     estimated scf accuracy    <       0.78030096 Ry

     total magnetization       =     0.81 Bohr mag/cell
     absolute magnetization    =    44.18 Bohr mag/cell

     iteration # 41     ecut=    71.00 Ry     beta= 0.10
     Davidson diagonalization with overlap
     ethr =  1.48E-04,  avg # of iterations =  2.5

     negative rho (up, down):  9.075E+01 9.077E+01

     total cpu time spent up to now is    56287.2 secs

     total energy              =  -10953.61962940 Ry
     estimated scf accuracy    <       0.70921409 Ry

     total magnetization       =     0.46 Bohr mag/cell
     absolute magnetization    =    44.56 Bohr mag/cell

     iteration # 42     ecut=    71.00 Ry     beta= 0.10
     Davidson diagonalization with overlap
     ethr =  1.34E-04,  avg # of iterations =  1.0

     negative rho (up, down):  9.049E+01 9.051E+01

     total cpu time spent up to now is    56740.1 secs

     total energy              =  -10953.60140430 Ry
     estimated scf accuracy    <       0.86579413 Ry

     total magnetization       =     0.63 Bohr mag/cell
     absolute magnetization    =    44.68 Bohr mag/cell

     iteration # 43     ecut=    71.00 Ry     beta= 0.10
     Davidson diagonalization with overlap
     ethr =  1.34E-04,  avg # of iterations =  1.0

     negative rho (up, down):  9.081E+01 9.082E+01

     total cpu time spent up to now is    57192.2 secs

     total energy              =  -10953.64132148 Ry
     estimated scf accuracy    <       0.60877303 Ry

     total magnetization       =     0.44 Bohr mag/cell
     absolute magnetization    =    44.66 Bohr mag/cell

     iteration # 44     ecut=    71.00 Ry     beta= 0.10
     Davidson diagonalization with overlap
     ethr =  1.15E-04,  avg # of iterations =  2.0

     negative rho (up, down):  9.117E+01 9.117E+01

     total cpu time spent up to now is    57702.2 secs

     total energy              =  -10953.66036784 Ry
     estimated scf accuracy    <       0.73447564 Ry

     total magnetization       =     0.54 Bohr mag/cell
     absolute magnetization    =    44.98 Bohr mag/cell

     iteration # 45     ecut=    71.00 Ry     beta= 0.10
     Davidson diagonalization with overlap
     ethr =  1.15E-04,  avg # of iterations =  2.5

     negative rho (up, down):  9.060E+01 9.062E+01

     total cpu time spent up to now is    58222.8 secs

     total energy              =  -10953.62523632 Ry
     estimated scf accuracy    <       0.91717643 Ry

     total magnetization       =     0.54 Bohr mag/cell
     absolute magnetization    =    45.70 Bohr mag/cell

     iteration # 46     ecut=    71.00 Ry     beta= 0.10
     Davidson diagonalization with overlap
     ethr =  1.15E-04,  avg # of iterations =  2.5

     negative rho (up, down):  9.067E+01 9.068E+01

     total cpu time spent up to now is    58739.9 secs

     total energy              =  -10953.65253002 Ry
     estimated scf accuracy    <       0.77922001 Ry

     total magnetization       =     0.49 Bohr mag/cell
     absolute magnetization    =    44.92 Bohr mag/cell

     iteration # 47     ecut=    71.00 Ry     beta= 0.10
     Davidson diagonalization with overlap
     ethr =  1.15E-04,  avg # of iterations =  1.0

     negative rho (up, down):  9.040E+01 9.042E+01

     total cpu time spent up to now is    59191.1 secs

     total energy              =  -10953.61721324 Ry
     estimated scf accuracy    <       0.78481746 Ry

     total magnetization       =     0.61 Bohr mag/cell
     absolute magnetization    =    44.84 Bohr mag/cell

     iteration # 48     ecut=    71.00 Ry     beta= 0.10
     Davidson diagonalization with overlap
     ethr =  1.15E-04,  avg # of iterations =  1.5

     negative rho (up, down):  9.069E+01 9.070E+01

     total cpu time spent up to now is    59673.9 secs

     total energy              =  -10953.65339661 Ry
     estimated scf accuracy    <       0.65188924 Ry

     total magnetization       =     0.50 Bohr mag/cell
     absolute magnetization    =    44.86 Bohr mag/cell

     iteration # 49     ecut=    71.00 Ry     beta= 0.10
     Davidson diagonalization with overlap
     ethr =  1.15E-04,  avg # of iterations =  2.0

     negative rho (up, down):  9.040E+01 9.041E+01

     total cpu time spent up to now is    60193.2 secs

     total energy              =  -10953.61458482 Ry
     estimated scf accuracy    <       0.77493066 Ry

     total magnetization       =     0.35 Bohr mag/cell
     absolute magnetization    =    45.11 Bohr mag/cell

     iteration # 50     ecut=    71.00 Ry     beta= 0.10
     Davidson diagonalization with overlap
     ethr =  1.15E-04,  avg # of iterations =  2.0

     negative rho (up, down):  9.027E+01 9.029E+01

     total cpu time spent up to now is    60722.5 secs

     total energy              =  -10953.60386682 Ry
     estimated scf accuracy    <       0.82173190 Ry

     total magnetization       =     0.55 Bohr mag/cell
     absolute magnetization    =    44.61 Bohr mag/cell

     iteration # 51     ecut=    71.00 Ry     beta= 0.10
     Davidson diagonalization with overlap
     ethr =  1.15E-04,  avg # of iterations =  1.0

     negative rho (up, down):  9.012E+01 9.013E+01

     total cpu time spent up to now is    61191.5 secs

     total energy              =  -10953.58551598 Ry
     estimated scf accuracy    <       0.96222861 Ry

     total magnetization       =     0.30 Bohr mag/cell
     absolute magnetization    =    44.68 Bohr mag/cell

     iteration # 52     ecut=    71.00 Ry     beta= 0.10
     Davidson diagonalization with overlap
     ethr =  1.15E-04,  avg # of iterations =  1.6

     negative rho (up, down):  9.037E+01 9.038E+01

     total cpu time spent up to now is    61839.8 secs

     total energy              =  -10953.62559647 Ry
     estimated scf accuracy    <       1.44324450 Ry

     total magnetization       =     0.64 Bohr mag/cell
     absolute magnetization    =    44.72 Bohr mag/cell

     iteration # 53     ecut=    71.00 Ry     beta= 0.10
     Davidson diagonalization with overlap
     ethr =  1.15E-04,  avg # of iterations =  2.0

     negative rho (up, down):  9.034E+01 9.035E+01

     total cpu time spent up to now is    62362.9 secs

     total energy              =  -10953.61561088 Ry
     estimated scf accuracy    <       1.07501829 Ry

     total magnetization       =     0.67 Bohr mag/cell
     absolute magnetization    =    44.77 Bohr mag/cell

     iteration # 54     ecut=    71.00 Ry     beta= 0.10
     Davidson diagonalization with overlap
     ethr =  1.15E-04,  avg # of iterations =  1.5

     negative rho (up, down):  9.036E+01 9.037E+01

     total cpu time spent up to now is    62893.8 secs

     total energy              =  -10953.62816531 Ry
     estimated scf accuracy    <       1.14873395 Ry

     total magnetization       =     0.69 Bohr mag/cell
     absolute magnetization    =    45.66 Bohr mag/cell

     iteration # 55     ecut=    71.00 Ry     beta= 0.10
     Davidson diagonalization with overlap
     ethr =  1.15E-04,  avg # of iterations =  1.0

     negative rho (up, down):  9.028E+01 9.029E+01

     total cpu time spent up to now is    63419.4 secs

     total energy              =  -10953.61390512 Ry
     estimated scf accuracy    <       0.98919470 Ry

     total magnetization       =     0.56 Bohr mag/cell
     absolute magnetization    =    45.54 Bohr mag/cell

     iteration # 56     ecut=    71.00 Ry     beta= 0.10
     Davidson diagonalization with overlap
     ethr =  1.15E-04,  avg # of iterations =  2.0

     negative rho (up, down):  9.041E+01 9.041E+01

     total cpu time spent up to now is    63977.4 secs

     total energy              =  -10953.62800662 Ry
     estimated scf accuracy    <       0.65361459 Ry

     total magnetization       =     0.57 Bohr mag/cell
     absolute magnetization    =    45.47 Bohr mag/cell

     iteration # 57     ecut=    71.00 Ry     beta= 0.10
     Davidson diagonalization with overlap
     ethr =  1.15E-04,  avg # of iterations =  3.5

     negative rho (up, down):  9.055E+01 9.055E+01

     total cpu time spent up to now is    64556.9 secs

     total energy              =  -10953.65132801 Ry
     estimated scf accuracy    <       1.85917866 Ry

     total magnetization       =     0.42 Bohr mag/cell
     absolute magnetization    =    45.23 Bohr mag/cell

     iteration # 58     ecut=    71.00 Ry     beta= 0.10
     Davidson diagonalization with overlap
     ethr =  1.15E-04,  avg # of iterations =  2.0

     negative rho (up, down):  9.070E+01 9.069E+01

     total cpu time spent up to now is    65093.3 secs

     total energy              =  -10953.67462891 Ry
     estimated scf accuracy    <       2.09588560 Ry

     total magnetization       =     0.46 Bohr mag/cell
     absolute magnetization    =    44.57 Bohr mag/cell

     iteration # 59     ecut=    71.00 Ry     beta= 0.10
     Davidson diagonalization with overlap
     ethr =  1.15E-04,  avg # of iterations =  1.0

     negative rho (up, down):  9.075E+01 9.075E+01

     total cpu time spent up to now is    65547.1 secs

     total energy              =  -10953.68625678 Ry
     estimated scf accuracy    <       1.42455056 Ry

     total magnetization       =     0.27 Bohr mag/cell
     absolute magnetization    =    45.02 Bohr mag/cell

     iteration # 60     ecut=    71.00 Ry     beta= 0.10
     Davidson diagonalization with overlap
     ethr =  1.15E-04,  avg # of iterations =  1.5

     negative rho (up, down):  9.072E+01 9.072E+01

     total cpu time spent up to now is    66053.8 secs

     total energy              =  -10953.69123451 Ry
     estimated scf accuracy    <       0.97900912 Ry

     total magnetization       =     0.36 Bohr mag/cell
     absolute magnetization    =    44.96 Bohr mag/cell

     iteration # 61     ecut=    71.00 Ry     beta= 0.10
     Davidson diagonalization with overlap
     ethr =  1.15E-04,  avg # of iterations =  1.0

     negative rho (up, down):  9.061E+01 9.061E+01

     total cpu time spent up to now is    66502.9 secs

     total energy              =  -10953.68258924 Ry
     estimated scf accuracy    <       1.07141877 Ry

     total magnetization       =     0.35 Bohr mag/cell
     absolute magnetization    =    44.89 Bohr mag/cell

     iteration # 62     ecut=    71.00 Ry     beta= 0.10
     Davidson diagonalization with overlap
     ethr =  1.15E-04,  avg # of iterations =  1.5

     negative rho (up, down):  9.050E+01 9.050E+01

     total cpu time spent up to now is    66977.9 secs

     total energy              =  -10953.67043739 Ry
     estimated scf accuracy    <       1.67297688 Ry

     total magnetization       =     0.33 Bohr mag/cell
     absolute magnetization    =    44.64 Bohr mag/cell

     iteration # 63     ecut=    71.00 Ry     beta= 0.10
     Davidson diagonalization with overlap
