
     Program PWSCF v.6.7MaX starts on 25Nov2021 at 23:51: 2 

     This program is part of the open-source Quantum ESPRESSO suite
     for quantum simulation of materials; please cite
         "P. Giannozzi et al., J. Phys.:Condens. Matter 21 395502 (2009);
         "P. Giannozzi et al., J. Phys.:Condens. Matter 29 465901 (2017);
          URL http://www.quantum-espresso.org", 
     in publications or presentations arising from this work. More details at
     http://www.quantum-espresso.org/quote

     Parallel version (MPI & OpenMP), running on      72 processor cores
     Number of MPI processes:                72
     Threads/MPI process:                     1

     MPI processes distributed on     1 nodes
     R & G space division:  proc/nbgrp/npool/nimage =      72
     Reading input from bcc_4.in
Warning: card &CELL ignored
Warning: card CELL_DYNAMICS = 'BFGS', ignored
Warning: card CELL_FACTOR = 2.0, ignored
Warning: card PRESS = 0.0, ignored
Warning: card / ignored

     Current dimensions of program PWSCF are:
     Max number of different atomic species (ntypx) = 10
     Max number of k-points (npk) =  40000
     Max angular momentum in pseudopotentials (lmaxx) =  3
     file Ru.pbe-spn-kjpaw_psl.1.0.0.UPF: wavefunction(s)  4D renormalized

     Subspace diagonalization in iterative solution of the eigenvalue problem:
     one sub-group per band group will be used
     ELPA distributed-memory algorithm (size of sub-group:  8*  8 procs)

     Found symmetry operation: I + (  0.2500  0.2500  0.2500)
     This is a supercell, fractional translations are disabled
     Message from routine setup:
     using ibrav=0 with symmetry is DISCOURAGED, use correct ibrav instead
 
     Parallelization info
     --------------------
     sticks:   dense  smooth     PW     G-vecs:    dense   smooth      PW
     Min         104      69     18                 6850     3679     518
     Max         105      71     19                 6857     3681     525
     Sum        7541    4997   1353               493479   264947   37561
 


     bravais-lattice index     =            0
     lattice parameter (alat)  =      11.4293  a.u.
     unit-cell volume          =    3280.0969 (a.u.)^3
     number of atoms/cell      =           16
     number of atomic types    =            1
     number of electrons       =       256.00
     number of Kohn-Sham states=          154
     kinetic-energy cutoff     =      71.0000  Ry
     charge density cutoff     =     430.0000  Ry
     scf convergence threshold =      1.0E-06
     mixing beta               =       0.1000
     number of iterations used =           10  TF        mixing
     Exchange-correlation= SLA  PW   PBX  PBC
                           (   1   4   3   4   0   0   0)

     celldm(1)=  11.429280  celldm(2)=   0.000000  celldm(3)=   0.000000
     celldm(4)=   0.000000  celldm(5)=   0.000000  celldm(6)=   0.000000

     crystal axes: (cart. coord. in units of alat)
               a(1) = (   1.300000   0.000000   0.000000 )  
               a(2) = (   0.000000   1.300000   0.000000 )  
               a(3) = (   0.000000   0.000000   1.300000 )  

     reciprocal axes: (cart. coord. in units 2 pi/alat)
               b(1) = (  0.769231  0.000000  0.000000 )  
               b(2) = (  0.000000  0.769231  0.000000 )  
               b(3) = (  0.000000  0.000000  0.769231 )  


     PseudoPot. # 1 for Ru read from file:
     /rds/homes/b/bxp912/pp/Ru.pbe-spn-kjpaw_psl.1.0.0.UPF
     MD5 check sum: 0ae1f594dea09af7be8575c3a481d1ae
     Pseudo is Projector augmented-wave + core cor, Zval = 16.0
     Generated using "atomic" code by A. Dal Corso  v.5.1
     Shape of augmentation charge: PSQ
     Using radial grid of 1233 points,  6 beta functions with: 
                l(1) =   0
                l(2) =   0
                l(3) =   1
                l(4) =   1
                l(5) =   2
                l(6) =   2
     Q(r) pseudized with 0 coefficients 


     atomic species   valence    mass     pseudopotential
        Ru            16.00   101.07000     Ru( 1.00)

     48 Sym. Ops., with inversion, found



   Cartesian axes

     site n.     atom                  positions (alat units)
         1           Ru  tau(   1) = (   0.0000000   0.0000000   0.0000000  )
         2           Ru  tau(   2) = (   0.3250000   0.3250000   0.3250000  )
         3           Ru  tau(   3) = (   0.0000000   0.0000000   0.6500000  )
         4           Ru  tau(   4) = (   0.3250000   0.3250000   0.9750000  )
         5           Ru  tau(   5) = (   0.0000000   0.6500000   0.0000000  )
         6           Ru  tau(   6) = (   0.3250000   0.9750000   0.3250000  )
         7           Ru  tau(   7) = (   0.0000000   0.6500000   0.6500000  )
         8           Ru  tau(   8) = (   0.3250000   0.9750000   0.9750000  )
         9           Ru  tau(   9) = (   0.6500000   0.0000000   0.0000000  )
        10           Ru  tau(  10) = (   0.9750000   0.3250000   0.3250000  )
        11           Ru  tau(  11) = (   0.6500000   0.0000000   0.6500000  )
        12           Ru  tau(  12) = (   0.9750000   0.3250000   0.9750000  )
        13           Ru  tau(  13) = (   0.6500000   0.6500000   0.0000000  )
        14           Ru  tau(  14) = (   0.9750000   0.9750000   0.3250000  )
        15           Ru  tau(  15) = (   0.6500000   0.6500000   0.6500000  )
        16           Ru  tau(  16) = (   0.9750000   0.9750000   0.9750000  )

     number of k points=    35  Marzari-Vanderbilt smearing, width (Ry)=  0.0400
                       cart. coord. in units 2pi/alat
        k(    1) = (   0.0427350   0.0427350   0.0427350), wk =   0.0219479
        k(    2) = (   0.0427350   0.0427350   0.1282051), wk =   0.0658436
        k(    3) = (   0.0427350   0.0427350   0.2136752), wk =   0.0658436
        k(    4) = (   0.0427350   0.0427350   0.2991453), wk =   0.0658436
        k(    5) = (   0.0427350   0.0427350  -0.3846154), wk =   0.0329218
        k(    6) = (   0.0427350   0.1282051   0.1282051), wk =   0.0658436
        k(    7) = (   0.0427350   0.1282051   0.2136752), wk =   0.1316872
        k(    8) = (   0.0427350   0.1282051   0.2991453), wk =   0.1316872
        k(    9) = (   0.0427350   0.1282051  -0.3846154), wk =   0.0658436
        k(   10) = (   0.0427350   0.2136752   0.2136752), wk =   0.0658436
        k(   11) = (   0.0427350   0.2136752   0.2991453), wk =   0.1316872
        k(   12) = (   0.0427350   0.2136752  -0.3846154), wk =   0.0658436
        k(   13) = (   0.0427350   0.2991453   0.2991453), wk =   0.0658436
        k(   14) = (   0.0427350   0.2991453  -0.3846154), wk =   0.0658436
        k(   15) = (   0.0427350  -0.3846154  -0.3846154), wk =   0.0164609
        k(   16) = (   0.1282051   0.1282051   0.1282051), wk =   0.0219479
        k(   17) = (   0.1282051   0.1282051   0.2136752), wk =   0.0658436
        k(   18) = (   0.1282051   0.1282051   0.2991453), wk =   0.0658436
        k(   19) = (   0.1282051   0.1282051  -0.3846154), wk =   0.0329218
        k(   20) = (   0.1282051   0.2136752   0.2136752), wk =   0.0658436
        k(   21) = (   0.1282051   0.2136752   0.2991453), wk =   0.1316872
        k(   22) = (   0.1282051   0.2136752  -0.3846154), wk =   0.0658436
        k(   23) = (   0.1282051   0.2991453   0.2991453), wk =   0.0658436
        k(   24) = (   0.1282051   0.2991453  -0.3846154), wk =   0.0658436
        k(   25) = (   0.1282051  -0.3846154  -0.3846154), wk =   0.0164609
        k(   26) = (   0.2136752   0.2136752   0.2136752), wk =   0.0219479
        k(   27) = (   0.2136752   0.2136752   0.2991453), wk =   0.0658436
        k(   28) = (   0.2136752   0.2136752  -0.3846154), wk =   0.0329218
        k(   29) = (   0.2136752   0.2991453   0.2991453), wk =   0.0658436
        k(   30) = (   0.2136752   0.2991453  -0.3846154), wk =   0.0658436
        k(   31) = (   0.2136752  -0.3846154  -0.3846154), wk =   0.0164609
        k(   32) = (   0.2991453   0.2991453   0.2991453), wk =   0.0219479
        k(   33) = (   0.2991453   0.2991453  -0.3846154), wk =   0.0329218
        k(   34) = (   0.2991453  -0.3846154  -0.3846154), wk =   0.0164609
        k(   35) = (  -0.3846154  -0.3846154  -0.3846154), wk =   0.0027435

     Dense  grid:   493479 G-vectors     FFT dimensions: ( 100, 100, 100)

     Smooth grid:   264947 G-vectors     FFT dimensions: (  80,  80,  80)

     Estimated max dynamical RAM per process >      71.59 MB

     Estimated total dynamical RAM >       5.03 GB

     Check: negative core charge=   -0.000002

     Initial potential from superposition of free atoms

     starting charge  255.98980, renormalised to  256.00000
     Starting wfcs are  160 randomized atomic wfcs
     Checking if some PAW data can be deallocated... 

     total cpu time spent up to now is        9.0 secs

     Self-consistent Calculation

     iteration #  1     ecut=    71.00 Ry     beta= 0.10
     Davidson diagonalization with overlap
     ethr =  1.00E-02,  avg # of iterations =  3.7

     Threshold (ethr) on eigenvalues was too large:
     Diagonalizing with lowered threshold

     Davidson diagonalization with overlap
     ethr =  3.27E-04,  avg # of iterations =  4.3

     total cpu time spent up to now is       50.1 secs

     total energy              =   -6902.20303803 Ry
     estimated scf accuracy    <       0.46835455 Ry

     iteration #  2     ecut=    71.00 Ry     beta= 0.10
     Davidson diagonalization with overlap
     ethr =  1.83E-04,  avg # of iterations =  1.2

     total cpu time spent up to now is       63.3 secs

     total energy              =   -6902.12767065 Ry
     estimated scf accuracy    <       0.30738128 Ry

     iteration #  3     ecut=    71.00 Ry     beta= 0.10
     Davidson diagonalization with overlap
     ethr =  1.20E-04,  avg # of iterations =  2.3

     total cpu time spent up to now is       77.5 secs

     total energy              =   -6902.14986243 Ry
     estimated scf accuracy    <       0.05574105 Ry

     iteration #  4     ecut=    71.00 Ry     beta= 0.10
     Davidson diagonalization with overlap
     ethr =  2.18E-05,  avg # of iterations =  3.5

     total cpu time spent up to now is       98.5 secs

     total energy              =   -6902.15418445 Ry
     estimated scf accuracy    <       0.00783231 Ry

     iteration #  5     ecut=    71.00 Ry     beta= 0.10
     Davidson diagonalization with overlap
     ethr =  3.06E-06,  avg # of iterations =  2.3

     total cpu time spent up to now is      115.1 secs

     total energy              =   -6902.15462072 Ry
     estimated scf accuracy    <       0.00280667 Ry

     iteration #  6     ecut=    71.00 Ry     beta= 0.10
     Davidson diagonalization with overlap
     ethr =  1.10E-06,  avg # of iterations =  2.3

     total cpu time spent up to now is      129.0 secs

     total energy              =   -6902.15481323 Ry
     estimated scf accuracy    <       0.00059820 Ry

     iteration #  7     ecut=    71.00 Ry     beta= 0.10
     Davidson diagonalization with overlap
     ethr =  2.34E-07,  avg # of iterations =  2.3

     total cpu time spent up to now is      144.0 secs

     total energy              =   -6902.15489795 Ry
     estimated scf accuracy    <       0.00026682 Ry

     iteration #  8     ecut=    71.00 Ry     beta= 0.10
     Davidson diagonalization with overlap
     ethr =  1.04E-07,  avg # of iterations =  2.0

     total cpu time spent up to now is      160.0 secs

     total energy              =   -6902.15492310 Ry
     estimated scf accuracy    <       0.00014174 Ry

     iteration #  9     ecut=    71.00 Ry     beta= 0.10
     Davidson diagonalization with overlap
     ethr =  5.54E-08,  avg # of iterations =  1.1

     total cpu time spent up to now is      172.6 secs

     total energy              =   -6902.15490660 Ry
     estimated scf accuracy    <       0.00007594 Ry

     iteration # 10     ecut=    71.00 Ry     beta= 0.10
     Davidson diagonalization with overlap
     ethr =  2.97E-08,  avg # of iterations =  2.6

     total cpu time spent up to now is      187.7 secs

     total energy              =   -6902.15491444 Ry
     estimated scf accuracy    <       0.00001048 Ry

     iteration # 11     ecut=    71.00 Ry     beta= 0.10
     Davidson diagonalization with overlap
     ethr =  4.09E-09,  avg # of iterations =  4.3

     total cpu time spent up to now is      205.8 secs

     total energy              =   -6902.15491833 Ry
     estimated scf accuracy    <       0.00000857 Ry

     iteration # 12     ecut=    71.00 Ry     beta= 0.10
     Davidson diagonalization with overlap
     ethr =  3.35E-09,  avg # of iterations =  2.0

     total cpu time spent up to now is      219.7 secs

     total energy              =   -6902.15491871 Ry
     estimated scf accuracy    <       0.00000155 Ry

     iteration # 13     ecut=    71.00 Ry     beta= 0.10
     Davidson diagonalization with overlap
     ethr =  6.04E-10,  avg # of iterations =  3.9

     total cpu time spent up to now is      235.2 secs

     End of self-consistent calculation

          k = 0.0427 0.0427 0.0427 ( 33101 PWs)   bands (ev):

   -64.2958 -64.2919 -64.2919 -64.2919 -64.2915 -64.2914 -64.2914 -64.2914
   -64.2913 -64.2913 -64.2913 -64.2912 -64.2912 -64.2912 -64.2911 -64.2876
   -34.2799 -34.2799 -34.2799 -34.2796 -34.2796 -34.2796 -34.2681 -34.2681
   -34.2674 -34.2566 -34.2560 -34.2560 -34.2560 -34.2543 -34.2543 -34.2524
   -34.2524 -34.2523 -34.2494 -34.2494 -34.2483 -34.2482 -34.2482 -34.2469
   -34.2467 -34.2467 -34.2467 -34.2462 -34.2462 -34.2461 -34.2458 -34.2458
   -34.2458 -34.2445 -34.2445 -34.2445 -34.2430 -34.2430 -34.2430 -34.2261
   -34.2254 -34.2254 -34.2247 -34.2247 -34.2247 -34.2245 -34.2244 -34.2244
     3.9254   5.6885   5.6885   5.6885   5.6993   5.6993   5.6993   5.8957
     5.8957   5.8958   5.9135   5.9135   6.1299   6.1299   6.1299   6.3436
     6.3436   6.3436   6.3503   6.3503   6.3503   6.4636   6.5196   6.5196
     6.6161   6.6161   6.6539   6.6909   6.6909   6.6909   6.8366   6.8366
     6.8366   6.8463   6.8463   6.8666   7.0704   7.0704   7.0704   7.1178
     7.1179   7.1179   7.1632   7.1632   7.1632   7.2056   7.2056   7.2056
     7.4809   7.4809   7.4809   7.5978   7.5978   7.5978   7.6405   7.6405
     7.6406   7.6465   7.6465   7.6466   7.6987   7.6987   7.7353   7.7353
     7.7353   7.7779   7.7779   7.7779   7.7945   7.7945   7.7946   7.7946
     8.1650   8.1893   8.1893   8.1893   8.1983   8.1983   8.3063   8.3063
     8.3063   8.3262   8.3262   8.3262   8.4832   8.4832   8.4832   9.2500
     9.2500   9.2500

          k = 0.0427 0.0427 0.1282 ( 33110 PWs)   bands (ev):

   -64.2957 -64.2926 -64.2919 -64.2919 -64.2915 -64.2915 -64.2914 -64.2914
   -64.2913 -64.2913 -64.2913 -64.2912 -64.2912 -64.2911 -64.2905 -64.2877
   -34.2792 -34.2792 -34.2790 -34.2788 -34.2783 -34.2783 -34.2682 -34.2674
   -34.2664 -34.2602 -34.2596 -34.2596 -34.2593 -34.2590 -34.2560 -34.2560
   -34.2528 -34.2520 -34.2504 -34.2502 -34.2483 -34.2482 -34.2482 -34.2466
   -34.2465 -34.2465 -34.2462 -34.2455 -34.2455 -34.2446 -34.2446 -34.2445
   -34.2434 -34.2434 -34.2433 -34.2408 -34.2398 -34.2398 -34.2394 -34.2273
   -34.2260 -34.2258 -34.2258 -34.2256 -34.2255 -34.2253 -34.2248 -34.2248
     3.9939   5.5810   5.7002   5.7002   5.7332   5.7332   5.7342   5.7442
     5.9041   5.9041   5.9388   5.9444   6.1280   6.1280   6.2553   6.3423
     6.3489   6.3646   6.3646   6.3848   6.3848   6.3949   6.4482   6.4923
     6.5426   6.5545   6.6789   6.6789   6.7402   6.7413   6.7989   6.7989
     6.8379   6.8480   6.8960   6.9415   6.9727   6.9727   6.9932   7.0588
     7.0588   7.0898   7.2060   7.2060   7.2593   7.2593   7.2722   7.3194
     7.3667   7.5899   7.5899   7.5918   7.5918   7.6227   7.6227   7.6410
     7.6410   7.6501   7.6554   7.6708   7.7052   7.7052   7.7098   7.7144
     7.7257   7.7341   7.7341   7.7790   7.7861   7.7862   7.7936   7.7940
     8.0148   8.0793   8.0922   8.1297   8.1424   8.1943   8.2091   8.2091
     8.2588   8.2588   8.3142   8.3142   8.5310   8.5310   8.9229   8.9865
     8.9865   9.4427

          k = 0.0427 0.0427 0.2137 ( 33115 PWs)   bands (ev):

   -64.2954 -64.2933 -64.2919 -64.2919 -64.2916 -64.2916 -64.2914 -64.2914
   -64.2913 -64.2913 -64.2913 -64.2912 -64.2912 -64.2911 -64.2899 -64.2880
   -34.2776 -34.2776 -34.2773 -34.2771 -34.2760 -34.2760 -34.2680 -34.2661
   -34.2649 -34.2642 -34.2638 -34.2638 -34.2636 -34.2622 -34.2605 -34.2605
   -34.2555 -34.2540 -34.2516 -34.2500 -34.2481 -34.2481 -34.2473 -34.2469
   -34.2469 -34.2468 -34.2453 -34.2452 -34.2446 -34.2446 -34.2441 -34.2401
   -34.2395 -34.2395 -34.2394 -34.2373 -34.2362 -34.2362 -34.2360 -34.2295
   -34.2274 -34.2274 -34.2272 -34.2270 -34.2269 -34.2265 -34.2258 -34.2258
     4.1293   5.2332   5.7322   5.7322   5.7889   5.7889   5.8222   5.8301
     5.9042   5.9042   5.9888   6.0025   6.1001   6.1001   6.2817   6.3251
     6.3411   6.3476   6.3880   6.3986   6.4010   6.4126   6.4126   6.4461
     6.4461   6.4656   6.7076   6.7076   6.7859   6.7859   6.8369   6.8524
     6.8631   6.8631   6.8854   6.8935   6.9225   6.9225   6.9328   6.9348
     6.9398   7.1862   7.2586   7.3254   7.3254   7.3414   7.3414   7.3993
     7.4179   7.4179   7.4525   7.5104   7.5104   7.5979   7.5979   7.6158
     7.6625   7.6625   7.6682   7.6715   7.6777   7.7312   7.7325   7.7325
     7.7698   7.7699   7.7809   7.7918   7.7932   7.8003   7.8271   7.8419
     7.8419   7.9105   7.9131   7.9821   8.0397   8.1605   8.1894   8.1894
     8.2514   8.2514   8.2701   8.2701   8.6245   8.6245   8.7480   8.7480
     9.3043   9.3043

          k = 0.0427 0.0427 0.2991 ( 33112 PWs)   bands (ev):

   -64.2950 -64.2939 -64.2918 -64.2918 -64.2917 -64.2917 -64.2914 -64.2913
   -64.2913 -64.2913 -64.2912 -64.2912 -64.2912 -64.2912 -64.2893 -64.2883
   -34.2751 -34.2751 -34.2748 -34.2747 -34.2730 -34.2730 -34.2681 -34.2680
   -34.2680 -34.2679 -34.2673 -34.2650 -34.2650 -34.2644 -34.2642 -34.2628
   -34.2588 -34.2573 -34.2505 -34.2494 -34.2482 -34.2478 -34.2478 -34.2476
   -34.2472 -34.2472 -34.2450 -34.2450 -34.2447 -34.2447 -34.2399 -34.2359
   -34.2359 -34.2358 -34.2356 -34.2341 -34.2329 -34.2328 -34.2328 -34.2324
   -34.2297 -34.2297 -34.2293 -34.2292 -34.2290 -34.2281 -34.2275 -34.2275
     4.3286   4.8929   5.7794   5.7794   5.8630   5.8630   5.8797   5.8797
     5.9450   5.9491   6.0346   6.0346   6.0622   6.0802   6.2242   6.2411
     6.2460   6.2712   6.3425   6.3501   6.3672   6.3945   6.4859   6.4859
     6.5322   6.5322   6.6942   6.6942   6.7475   6.7475   6.8437   6.8517
     6.8517   6.8614   6.8891   6.9025   6.9182   6.9182   6.9986   7.0673
     7.0761   7.1596   7.2090   7.2090   7.3034   7.3034   7.3143   7.4232
     7.4232   7.4393   7.4393   7.5085   7.5277   7.5358   7.5424   7.5521
     7.5521   7.5998   7.6058   7.6059   7.6924   7.6962   7.7467   7.7475
     7.7614   7.7835   7.7893   7.7933   7.8157   7.8451   7.8478   7.8709
     7.8709   7.9051   7.9320   7.9762   7.9762   8.1015   8.1015   8.1026
     8.1963   8.1963   8.3213   8.3213   8.5632   8.5632   8.7591   8.7591
     9.1152   9.1153

          k = 0.0427 0.0427-0.3846 ( 33126 PWs)   bands (ev):

   -64.2946 -64.2945 -64.2918 -64.2917 -64.2917 -64.2917 -64.2914 -64.2913
   -64.2913 -64.2913 -64.2912 -64.2912 -64.2912 -64.2912 -64.2888 -64.2887
   -34.2718 -34.2718 -34.2718 -34.2718 -34.2717 -34.2716 -34.2716 -34.2716
   -34.2693 -34.2692 -34.2692 -34.2692 -34.2661 -34.2661 -34.2618 -34.2618
   -34.2602 -34.2602 -34.2494 -34.2493 -34.2485 -34.2485 -34.2476 -34.2476
   -34.2476 -34.2475 -34.2449 -34.2449 -34.2449 -34.2449 -34.2360 -34.2360
   -34.2326 -34.2326 -34.2326 -34.2325 -34.2323 -34.2323 -34.2322 -34.2321
   -34.2313 -34.2313 -34.2303 -34.2303 -34.2299 -34.2299 -34.2299 -34.2299
     4.5862   4.5862   5.8331   5.8331   5.8331   5.8331   5.9490   5.9490
     5.9490   5.9490   6.0880   6.0880   6.0916   6.0916   6.1572   6.1572
     6.1657   6.1657   6.3499   6.3499   6.3619   6.3619   6.5817   6.5817
     6.5817   6.5817   6.6391   6.6391   6.6391   6.6391   6.8603   6.8603
     6.8774   6.8775   7.0047   7.0047   7.0047   7.0047   7.0723   7.0723
     7.0866   7.0866   7.0866   7.0866   7.2824   7.2824   7.2854   7.2854
     7.4338   7.4338   7.4942   7.4942   7.4942   7.4942   7.5341   7.5341
     7.5341   7.5341   7.6944   7.6944   7.7197   7.7198   7.7217   7.7217
     7.7540   7.7540   7.7864   7.7864   7.7971   7.7971   7.7998   7.7998
     7.9952   7.9952   7.9952   7.9952   8.0251   8.0251   8.0966   8.0966
     8.0966   8.0966   8.4238   8.4238   8.4238   8.4238   8.9265   8.9265
     8.9265   8.9265

          k = 0.0427 0.1282 0.1282 ( 33120 PWs)   bands (ev):

   -64.2955 -64.2926 -64.2926 -64.2919 -64.2917 -64.2915 -64.2915 -64.2913
   -64.2913 -64.2913 -64.2912 -64.2912 -64.2911 -64.2905 -64.2905 -64.2879
   -34.2792 -34.2784 -34.2784 -34.2775 -34.2775 -34.2764 -34.2688 -34.2670
   -34.2649 -34.2627 -34.2627 -34.2625 -34.2616 -34.2605 -34.2583 -34.2538
   -34.2520 -34.2520 -34.2519 -34.2519 -34.2491 -34.2486 -34.2475 -34.2470
   -34.2470 -34.2470 -34.2470 -34.2458 -34.2458 -34.2448 -34.2446 -34.2428
   -34.2411 -34.2410 -34.2410 -34.2407 -34.2378 -34.2364 -34.2364 -34.2292
   -34.2274 -34.2265 -34.2264 -34.2264 -34.2255 -34.2255 -34.2253 -34.2245
     4.0616   5.6061   5.6061   5.6853   5.7463   5.7463   5.7767   5.7767
     5.7859   5.9182   5.9653   5.9734   6.1348   6.2550   6.2550   6.3314
     6.3626   6.3626   6.3719   6.3820   6.3820   6.3980   6.4324   6.5139
     6.5468   6.5468   6.5991   6.6488   6.7459   6.7499   6.7543   6.8136
     6.8460   6.8689   6.8689   6.9126   6.9126   6.9437   6.9595   7.0272
     7.1607   7.1607   7.1972   7.1972   7.2315   7.2786   7.3380   7.3380
     7.4689   7.4784   7.4784   7.5766   7.5809   7.5809   7.6249   7.6295
     7.6295   7.6383   7.6383   7.6654   7.6743   7.7016   7.7202   7.7202
     7.7673   7.7710   7.7802   7.7808   7.7901   7.7915   7.8171   7.8171
     7.9940   8.0153   8.0153   8.0396   8.0396   8.0999   8.1534   8.1534
     8.1540   8.2075   8.2447   8.3305   8.5776   8.5947   8.9969   8.9969
     9.2711   9.2711

          k = 0.0427 0.1282 0.2137 ( 33103 PWs)   bands (ev):

   -64.2953 -64.2933 -64.2925 -64.2919 -64.2918 -64.2916 -64.2915 -64.2913
   -64.2913 -64.2913 -64.2912 -64.2912 -64.2910 -64.2906 -64.2899 -64.2881
   -34.2782 -34.2769 -34.2768 -34.2761 -34.2755 -34.2735 -34.2692 -34.2666
   -34.2658 -34.2654 -34.2652 -34.2648 -34.2641 -34.2627 -34.2617 -34.2566
   -34.2554 -34.2530 -34.2515 -34.2506 -34.2489 -34.2487 -34.2485 -34.2478
   -34.2478 -34.2474 -34.2464 -34.2456 -34.2450 -34.2437 -34.2430 -34.2413
   -34.2392 -34.2381 -34.2377 -34.2376 -34.2351 -34.2333 -34.2331 -34.2320
   -34.2296 -34.2278 -34.2277 -34.2277 -34.2271 -34.2264 -34.2256 -34.2249
     4.1953   5.2735   5.6442   5.6843   5.7779   5.8306   5.8347   5.8574
     5.8592   5.9285   6.0132   6.0319   6.1207   6.2191   6.2715   6.2878
     6.3329   6.3605   6.3792   6.4060   6.4088   6.4175   6.4399   6.4681
     6.5061   6.5407   6.5993   6.6445   6.7078   6.7648   6.7942   6.8401
     6.8402   6.8483   6.8644   6.8876   6.8985   6.9044   6.9464   7.0057
     7.0163   7.2582   7.2791   7.2875   7.3224   7.3229   7.3474   7.3673
     7.3677   7.3968   7.4442   7.4883   7.5226   7.5334   7.5646   7.6038
     7.6040   7.6214   7.6222   7.6497   7.6508   7.6764   7.7146   7.7173
     7.7639   7.7642   7.7746   7.7889   7.7929   7.8535   7.8537   7.8652
     7.9050   7.9239   7.9473   7.9741   7.9996   8.0126   8.0180   8.0250
     8.1398   8.1999   8.3118   8.3123   8.3214   8.7152   9.0129   9.1351
     9.5143   9.5893

          k = 0.0427 0.1282 0.2991 ( 33123 PWs)   bands (ev):

   -64.2949 -64.2939 -64.2924 -64.2921 -64.2918 -64.2916 -64.2914 -64.2913
   -64.2913 -64.2912 -64.2912 -64.2912 -64.2909 -64.2906 -64.2893 -64.2884
   -34.2763 -34.2746 -34.2744 -34.2740 -34.2726 -34.2703 -34.2700 -34.2690
   -34.2685 -34.2683 -34.2679 -34.2671 -34.2655 -34.2639 -34.2614 -34.2602
   -34.2586 -34.2540 -34.2517 -34.2509 -34.2494 -34.2490 -34.2486 -34.2485
   -34.2478 -34.2472 -34.2454 -34.2451 -34.2435 -34.2429 -34.2417 -34.2391
   -34.2354 -34.2354 -34.2351 -34.2346 -34.2344 -34.2324 -34.2323 -34.2306
   -34.2301 -34.2298 -34.2295 -34.2294 -34.2293 -34.2279 -34.2266 -34.2259
     4.3917   4.9442   5.6766   5.6897   5.8236   5.9024   5.9141   5.9450
     5.9571   5.9706   6.0655   6.0818   6.1115   6.1403   6.1979   6.2362
     6.2482   6.3009   6.3616   6.3826   6.4032   6.4570   6.4655   6.4782
     6.5184   6.6037   6.6499   6.6540   6.6613   6.7137   6.7853   6.8069
     6.8547   6.8751   6.8861   6.9038   6.9159   6.9600   6.9971   7.0240
     7.0798   7.0898   7.1917   7.2619   7.2673   7.3577   7.3604   7.3875
     7.4048   7.4122   7.4151   7.4285   7.4289   7.4428   7.4897   7.5510
     7.5590   7.5752   7.5959   7.6310   7.6770   7.6865   7.7180   7.7388
     7.7403   7.7479   7.7636   7.7888   7.7996   7.8014   7.8367   7.8597
     7.8638   7.8672   7.9425   7.9537   7.9760   8.0206   8.0286   8.0723
     8.0941   8.1583   8.1636   8.2603   8.4419   8.7901   8.8804   9.2948
     9.3218   9.7501

          k = 0.0427 0.1282-0.3846 ( 33136 PWs)   bands (ev):

   -64.2945 -64.2944 -64.2923 -64.2922 -64.2917 -64.2917 -64.2914 -64.2914
   -64.2913 -64.2912 -64.2912 -64.2912 -64.2908 -64.2907 -64.2889 -64.2888
   -34.2737 -34.2736 -34.2716 -34.2716 -34.2715 -34.2714 -34.2714 -34.2713
   -34.2693 -34.2693 -34.2684 -34.2683 -34.2659 -34.2659 -34.2615 -34.2615
   -34.2572 -34.2572 -34.2503 -34.2503 -34.2503 -34.2502 -34.2483 -34.2482
   -34.2480 -34.2479 -34.2452 -34.2452 -34.2423 -34.2422 -34.2393 -34.2393
   -34.2356 -34.2356 -34.2323 -34.2323 -34.2321 -34.2321 -34.2319 -34.2318
   -34.2317 -34.2317 -34.2299 -34.2299 -34.2283 -34.2283 -34.2277 -34.2277
     4.6447   4.6447   5.6909   5.6909   5.8740   5.8740   5.9852   5.9852
     6.0428   6.0428   6.0927   6.0927   6.0992   6.0992   6.1665   6.1665
     6.2021   6.2021   6.3720   6.3720   6.4032   6.4032   6.5480   6.5480
     6.5651   6.5651   6.6060   6.6060   6.7183   6.7183   6.7889   6.7889
     6.8672   6.8672   6.9015   6.9015   7.0054   7.0054   7.0575   7.0575
     7.1257   7.1257   7.1655   7.1655   7.1927   7.1928   7.2063   7.2063
     7.4462   7.4462   7.4603   7.4603   7.5007   7.5007   7.5230   7.5230
     7.5471   7.5471   7.5643   7.5644   7.7083   7.7083   7.7129   7.7129
     7.7207   7.7207   7.7873   7.7873   7.7911   7.7911   7.8174   7.8174
     7.8818   7.8818   7.9255   7.9255   8.0253   8.0253   8.0652   8.0652
     8.1022   8.1022   8.1790   8.1790   8.6002   8.6003   9.0776   9.0776
     9.5373   9.5373

          k = 0.0427 0.2137 0.2137 ( 33111 PWs)   bands (ev):

   -64.2950 -64.2931 -64.2931 -64.2922 -64.2918 -64.2915 -64.2915 -64.2913
   -64.2913 -64.2913 -64.2912 -64.2912 -64.2907 -64.2900 -64.2900 -64.2883
   -34.2778 -34.2755 -34.2755 -34.2744 -34.2744 -34.2703 -34.2702 -34.2687
   -34.2687 -34.2671 -34.2666 -34.2658 -34.2646 -34.2638 -34.2600 -34.2548
   -34.2548 -34.2532 -34.2524 -34.2524 -34.2500 -34.2493 -34.2485 -34.2484
   -34.2484 -34.2466 -34.2466 -34.2461 -34.2461 -34.2454 -34.2422 -34.2381
   -34.2380 -34.2370 -34.2360 -34.2356 -34.2353 -34.2334 -34.2323 -34.2303
   -34.2303 -34.2288 -34.2287 -34.2287 -34.2277 -34.2277 -34.2251 -34.2246
     4.3254   5.3458   5.3458   5.6388   5.8646   5.8646   5.9082   5.9082
     5.9372   5.9591   6.0551   6.0929   6.1356   6.2275   6.2596   6.2596
     6.2782   6.4044   6.4044   6.4257   6.4327   6.4327   6.4887   6.4887
     6.5084   6.5735   6.5915   6.5974   6.6528   6.7291   6.7291   6.7532
     6.8176   6.8477   6.8587   6.8799   6.8979   6.8980   6.9313   7.0883
     7.1260   7.1292   7.1292   7.3360   7.3360   7.3567   7.3567   7.3674
     7.3880   7.3969   7.3969   7.4232   7.4232   7.4787   7.5073   7.5073
     7.5470   7.6163   7.6209   7.6209   7.6436   7.6436   7.7075   7.7205
     7.7274   7.7473   7.7482   7.7588   7.7890   7.7960   7.8189   7.8764
     7.8811   7.8811   7.8893   7.8893   7.9019   7.9923   7.9923   8.0435
     8.0435   8.0971   8.2246   8.3200   8.4548   8.8749   9.3446   9.3446
     9.7590   9.7590

          k = 0.0427 0.2137 0.2991 ( 33135 PWs)   bands (ev):

   -64.2947 -64.2937 -64.2930 -64.2925 -64.2918 -64.2916 -64.2915 -64.2914
   -64.2913 -64.2912 -64.2912 -64.2912 -64.2905 -64.2901 -64.2895 -64.2886
   -34.2767 -34.2736 -34.2735 -34.2729 -34.2721 -34.2719 -34.2707 -34.2700
   -34.2690 -34.2689 -34.2684 -34.2665 -34.2664 -34.2628 -34.2578 -34.2572
   -34.2570 -34.2539 -34.2524 -34.2515 -34.2502 -34.2497 -34.2495 -34.2489
   -34.2481 -34.2479 -34.2469 -34.2460 -34.2456 -34.2427 -34.2409 -34.2392
   -34.2388 -34.2354 -34.2351 -34.2343 -34.2338 -34.2335 -34.2316 -34.2304
   -34.2301 -34.2299 -34.2295 -34.2286 -34.2281 -34.2279 -34.2255 -34.2250
     4.5155   5.0413   5.4339   5.5864   5.9055   5.9685   5.9733   5.9811
     6.0082   6.0250   6.1094   6.1118   6.1779   6.1793   6.1965   6.2099
     6.2355   6.3815   6.4059   6.4351   6.4689   6.4704   6.4711   6.5006
     6.5242   6.5908   6.6104   6.6120   6.6257   6.6993   6.7099   6.7237
     6.8516   6.8818   6.8829   6.8987   6.9142   6.9449   6.9496   6.9510
     6.9768   7.1431   7.1762   7.1814   7.2245   7.2316   7.2604   7.3180
     7.3915   7.4100   7.4266   7.4379   7.4459   7.4545   7.4566   7.5171
     7.5641   7.5725   7.5782   7.5956   7.6125   7.6504   7.6523   7.6607
     7.7209   7.7211   7.7266   7.7751   7.7875   7.7928   7.8075   7.8154
     7.8241   7.8507   7.8676   7.8837   7.8894   7.9088   7.9557   7.9781
     8.1244   8.1526   8.2194   8.2952   8.6346   9.0796   9.0809   9.5671
     9.6962   9.9833

          k = 0.0427 0.2137-0.3846 ( 33142 PWs)   bands (ev):

   -64.2943 -64.2942 -64.2927 -64.2927 -64.2917 -64.2917 -64.2915 -64.2914
   -64.2913 -64.2912 -64.2912 -64.2912 -64.2903 -64.2903 -64.2890 -64.2890
   -34.2746 -34.2746 -34.2713 -34.2713 -34.2711 -34.2710 -34.2710 -34.2710
   -34.2707 -34.2707 -34.2693 -34.2693 -34.2619 -34.2619 -34.2606 -34.2605
   -34.2537 -34.2537 -34.2528 -34.2528 -34.2511 -34.2511 -34.2493 -34.2493
   -34.2476 -34.2476 -34.2458 -34.2458 -34.2435 -34.2435 -34.2397 -34.2397
   -34.2389 -34.2389 -34.2326 -34.2325 -34.2318 -34.2318 -34.2317 -34.2317
   -34.2315 -34.2315 -34.2300 -34.2300 -34.2265 -34.2265 -34.2261 -34.2261
     4.7581   4.7581   5.5182   5.5182   5.9460   5.9460   6.0462   6.0462
     6.1066   6.1066   6.1068   6.1068   6.1145   6.1145   6.1770   6.1770
     6.2770   6.2770   6.4246   6.4246   6.4632   6.4632   6.5380   6.5380
     6.5446   6.5446   6.5646   6.5646   6.7086   6.7086   6.7631   6.7631
     6.8389   6.8389   6.8630   6.8630   6.9838   6.9838   6.9883   6.9883
     7.0518   7.0518   7.0823   7.0823   7.0887   7.0887   7.2833   7.2833
     7.4075   7.4075   7.4143   7.4143   7.5034   7.5034   7.5219   7.5219
     7.5276   7.5276   7.5440   7.5440   7.6403   7.6403   7.6862   7.6862
     7.6900   7.6900   7.7647   7.7647   7.7800   7.7800   7.8021   7.8021
     7.8340   7.8340   7.8556   7.8556   7.8720   7.8720   7.9459   7.9459
     8.1848   8.1848   8.2385   8.2385   8.8451   8.8452   9.3134   9.3134
    10.0548  10.0548

          k = 0.0427 0.2991 0.2991 ( 33170 PWs)   bands (ev):

   -64.2944 -64.2935 -64.2935 -64.2929 -64.2917 -64.2916 -64.2916 -64.2914
   -64.2913 -64.2912 -64.2912 -64.2912 -64.2902 -64.2897 -64.2896 -64.2889
   -34.2761 -34.2727 -34.2727 -34.2723 -34.2723 -34.2720 -34.2713 -34.2713
   -34.2698 -34.2697 -34.2694 -34.2679 -34.2622 -34.2612 -34.2567 -34.2567
   -34.2535 -34.2535 -34.2528 -34.2527 -34.2523 -34.2502 -34.2502 -34.2502
   -34.2478 -34.2467 -34.2467 -34.2463 -34.2463 -34.2461 -34.2436 -34.2390
   -34.2388 -34.2361 -34.2361 -34.2327 -34.2326 -34.2323 -34.2319 -34.2309
   -34.2306 -34.2305 -34.2298 -34.2298 -34.2263 -34.2263 -34.2250 -34.2247
     4.6943   5.1724   5.1724   5.4624   6.0091   6.0091   6.0143   6.0571
     6.0571   6.0991   6.1297   6.1490   6.1611   6.1721   6.2070   6.2070
     6.2714   6.4694   6.4694   6.4963   6.4963   6.4985   6.4985   6.4995
     6.5123   6.5517   6.5600   6.5808   6.6224   6.6224   6.6736   6.7957
     6.8168   6.8479   6.8499   6.8565   6.9024   6.9086   6.9115   6.9115
     7.0432   7.0432   7.0590   7.0590   7.1026   7.1026   7.1498   7.2923
     7.4031   7.4117   7.4576   7.4576   7.4958   7.4958   7.4963   7.5040
     7.5333   7.5333   7.5780   7.5923   7.6116   7.6116   7.6174   7.6174
     7.6597   7.6903   7.6913   7.7168   7.7440   7.7866   7.7866   7.8005
     7.8124   7.8203   7.8364   7.8364   7.8458   7.8923   7.8942   7.8942
     8.2116   8.2116   8.2477   8.2993   8.8651   9.3218   9.3944   9.3945
     9.8795   9.8795

          k = 0.0427 0.2991-0.3846 ( 33158 PWs)   bands (ev):

   -64.2940 -64.2939 -64.2932 -64.2932 -64.2917 -64.2916 -64.2915 -64.2915
   -64.2913 -64.2912 -64.2912 -64.2912 -64.2899 -64.2899 -64.2892 -64.2892
   -34.2747 -34.2747 -34.2726 -34.2726 -34.2709 -34.2709 -34.2708 -34.2708
   -34.2705 -34.2705 -34.2696 -34.2696 -34.2592 -34.2591 -34.2575 -34.2575
   -34.2553 -34.2552 -34.2515 -34.2515 -34.2505 -34.2505 -34.2499 -34.2499
   -34.2481 -34.2481 -34.2473 -34.2473 -34.2465 -34.2465 -34.2425 -34.2425
   -34.2375 -34.2374 -34.2339 -34.2338 -34.2314 -34.2314 -34.2313 -34.2313
   -34.2312 -34.2312 -34.2303 -34.2303 -34.2253 -34.2253 -34.2251 -34.2251
     4.9184   4.9184   5.3196   5.3196   6.0265   6.0265   6.1054   6.1055
     6.1065   6.1065   6.1249   6.1249   6.1613   6.1613   6.1853   6.1853
     6.3819   6.3819   6.4916   6.4916   6.5214   6.5214   6.5366   6.5367
     6.5432   6.5432   6.5510   6.5511   6.6390   6.6390   6.6407   6.6408
     6.8758   6.8758   6.8982   6.8982   6.9131   6.9131   6.9381   6.9381
     6.9527   6.9527   6.9633   6.9633   6.9976   6.9976   7.2466   7.2466
     7.4096   7.4096   7.4186   7.4186   7.5464   7.5464   7.5473   7.5473
     7.5578   7.5578   7.5594   7.5594   7.5610   7.5610   7.6525   7.6525
     7.6529   7.6529   7.6719   7.6719   7.7391   7.7391   7.7574   7.7574
     7.8132   7.8132   7.8422   7.8422   7.8455   7.8455   7.8907   7.8907
     8.2445   8.2445   8.2712   8.2712   9.1191   9.1191   9.5906   9.5906
     9.7205   9.7205

          k = 0.0427-0.3846-0.3846 ( 33152 PWs)   bands (ev):

   -64.2937 -64.2936 -64.2936 -64.2936 -64.2916 -64.2916 -64.2916 -64.2915
   -64.2913 -64.2912 -64.2912 -64.2912 -64.2896 -64.2895 -64.2895 -64.2895
   -34.2741 -34.2740 -34.2740 -34.2740 -34.2708 -34.2708 -34.2707 -34.2707
   -34.2700 -34.2700 -34.2700 -34.2700 -34.2574 -34.2574 -34.2574 -34.2573
   -34.2529 -34.2529 -34.2528 -34.2528 -34.2513 -34.2512 -34.2512 -34.2512
   -34.2469 -34.2469 -34.2469 -34.2469 -34.2461 -34.2461 -34.2461 -34.2461
   -34.2355 -34.2355 -34.2355 -34.2354 -34.2313 -34.2313 -34.2313 -34.2313
   -34.2307 -34.2307 -34.2307 -34.2307 -34.2249 -34.2249 -34.2249 -34.2249
     5.1121   5.1121   5.1121   5.1121   6.0843   6.0843   6.0843   6.0843
     6.1319   6.1319   6.1319   6.1319   6.1830   6.1830   6.1830   6.1830
     6.5072   6.5072   6.5072   6.5072   6.5345   6.5345   6.5345   6.5345
     6.5449   6.5449   6.5449   6.5449   6.5854   6.5855   6.5855   6.5855
     6.8498   6.8498   6.8498   6.8498   6.9108   6.9108   6.9108   6.9109
     6.9187   6.9188   6.9188   6.9188   7.0926   7.0926   7.0926   7.0926
     7.4656   7.4657   7.4657   7.4657   7.5395   7.5395   7.5395   7.5395
     7.5702   7.5702   7.5702   7.5702   7.6061   7.6061   7.6061   7.6061
     7.6085   7.6085   7.6085   7.6085   7.7293   7.7293   7.7293   7.7293
     7.8251   7.8251   7.8251   7.8251   7.8606   7.8606   7.8606   7.8606
     8.2737   8.2738   8.2738   8.2738   9.4110   9.4110   9.4110   9.4110
     9.8913   9.8913

          k = 0.1282 0.1282 0.1282 ( 33155 PWs)   bands (ev):

   -64.2954 -64.2926 -64.2925 -64.2925 -64.2917 -64.2917 -64.2917 -64.2913
   -64.2912 -64.2912 -64.2912 -64.2911 -64.2906 -64.2906 -64.2906 -64.2880
   -34.2784 -34.2784 -34.2784 -34.2758 -34.2758 -34.2757 -34.2682 -34.2682
   -34.2645 -34.2644 -34.2644 -34.2644 -34.2629 -34.2586 -34.2586 -34.2544
   -34.2544 -34.2544 -34.2524 -34.2524 -34.2524 -34.2482 -34.2482 -34.2481
   -34.2448 -34.2448 -34.2448 -34.2445 -34.2445 -34.2445 -34.2444 -34.2444
   -34.2410 -34.2410 -34.2410 -34.2383 -34.2347 -34.2347 -34.2347 -34.2313
   -34.2278 -34.2278 -34.2278 -34.2259 -34.2259 -34.2253 -34.2253 -34.2253
     4.1285   5.6347   5.6347   5.6347   5.7337   5.7337   5.7337   5.8267
     5.8267   5.8267   5.9968   5.9968   6.2674   6.2674   6.2674   6.2756
     6.3697   6.3697   6.3697   6.4269   6.4269   6.4269   6.4510   6.4510
     6.5327   6.5327   6.5327   6.7077   6.7077   6.7222   6.8051   6.8051
     6.8051   6.8130   6.8130   6.8872   6.8872   6.8873   6.9977   7.0904
     7.0904   7.0904   7.2408   7.2408   7.2408   7.3674   7.3674   7.3674
     7.4447   7.4447   7.4447   7.5774   7.5774   7.5774   7.5926   7.5926
     7.5926   7.6311   7.6311   7.6311   7.6780   7.6780   7.7719   7.7719
     7.7719   7.7802   7.7802   7.7834   7.7834   7.8630   7.8630   7.8630
     7.8695   7.8695   7.8695   7.8754   8.0246   8.0246   8.0246   8.1517
     8.1517   8.2061   8.2061   8.2061   8.9046   8.9046   8.9046   9.0809
     9.0809   9.0809

          k = 0.1282 0.1282 0.2137 ( 33134 PWs)   bands (ev):

   -64.2952 -64.2932 -64.2925 -64.2925 -64.2919 -64.2918 -64.2916 -64.2914
   -64.2912 -64.2911 -64.2910 -64.2910 -64.2906 -64.2906 -64.2899 -64.2882
   -34.2774 -34.2774 -34.2766 -34.2747 -34.2732 -34.2731 -34.2690 -34.2673
   -34.2673 -34.2668 -34.2667 -34.2666 -34.2631 -34.2605 -34.2580 -34.2580
   -34.2566 -34.2560 -34.2525 -34.2525 -34.2503 -34.2493 -34.2493 -34.2492
   -34.2479 -34.2454 -34.2452 -34.2438 -34.2438 -34.2413 -34.2413 -34.2413
   -34.2413 -34.2400 -34.2375 -34.2359 -34.2342 -34.2323 -34.2323 -34.2319
   -34.2298 -34.2297 -34.2287 -34.2272 -34.2269 -34.2259 -34.2256 -34.2256
     4.2608   5.3158   5.6793   5.6793   5.7344   5.7344   5.8271   5.8960
     5.8960   5.9031   6.0428   6.0559   6.2288   6.2480   6.2480   6.3134
     6.3667   6.4028   6.4028   6.4082   6.4093   6.4130   6.4207   6.4947
     6.4947   6.5575   6.5575   6.6210   6.7312   6.7313   6.7674   6.7838
     6.8127   6.8242   6.8258   6.8386   6.8536   6.8536   6.9901   6.9901
     7.0706   7.1702   7.2677   7.2677   7.3028   7.3326   7.3326   7.3869
     7.4019   7.4019   7.4699   7.4851   7.5282   7.5282   7.5535   7.5535
     7.5633   7.6217   7.6319   7.6695   7.6695   7.6724   7.7001   7.7001
     7.7020   7.7313   7.7624   7.7646   7.7734   7.7798   7.7908   7.8376
     7.8376   7.9002   7.9403   7.9403   7.9575   8.0469   8.0500   8.0530
     8.0530   8.1703   8.2103   8.2103   8.6270   8.6270   9.2341   9.2341
     9.2640   9.6854

          k = 0.1282 0.1282 0.2991 ( 33132 PWs)   bands (ev):

   -64.2948 -64.2938 -64.2924 -64.2924 -64.2920 -64.2920 -64.2916 -64.2915
   -64.2912 -64.2911 -64.2909 -64.2909 -64.2907 -64.2907 -64.2894 -64.2885
   -34.2756 -34.2756 -34.2742 -34.2731 -34.2703 -34.2703 -34.2699 -34.2699
   -34.2693 -34.2689 -34.2682 -34.2673 -34.2649 -34.2621 -34.2621 -34.2594
   -34.2577 -34.2546 -34.2520 -34.2520 -34.2514 -34.2508 -34.2503 -34.2503
   -34.2460 -34.2458 -34.2456 -34.2430 -34.2430 -34.2417 -34.2417 -34.2380
   -34.2380 -34.2378 -34.2358 -34.2342 -34.2337 -34.2322 -34.2321 -34.2300
   -34.2300 -34.2300 -34.2296 -34.2292 -34.2290 -34.2265 -34.2265 -34.2265
     4.4546   4.9963   5.7191   5.7191   5.7401   5.7401   5.9578   5.9818
     5.9818   6.0022   6.1102   6.1342   6.1748   6.1748   6.1774   6.2751
     6.2874   6.2989   6.3654   6.3822   6.4240   6.4603   6.4603   6.5241
     6.5791   6.5791   6.6344   6.6344   6.6380   6.6381   6.7668   6.7849
     6.8138   6.8230   6.8988   6.8988   6.9057   6.9057   6.9057   6.9873
     7.0806   7.0806   7.1559   7.2796   7.2796   7.2821   7.2840   7.3184
     7.3585   7.3913   7.4358   7.4358   7.4375   7.4375   7.5138   7.5138
     7.5656   7.5758   7.6057   7.6057   7.6225   7.6591   7.6847   7.7351
     7.7356   7.7383   7.7754   7.7788   7.7940   7.7940   7.8084   7.8271
     7.8470   7.8470   7.9175   7.9208   8.0293   8.0293   8.0426   8.1235
     8.1235   8.1551   8.1762   8.1762   8.4173   8.4173   9.4365   9.4366
     9.6321   9.9017

          k = 0.1282 0.1282-0.3846 ( 33160 PWs)   bands (ev):

   -64.2944 -64.2943 -64.2923 -64.2922 -64.2922 -64.2922 -64.2915 -64.2915
   -64.2912 -64.2911 -64.2908 -64.2908 -64.2908 -64.2907 -64.2889 -64.2889
   -34.2732 -34.2732 -34.2732 -34.2732 -34.2711 -34.2711 -34.2711 -34.2710
   -34.2691 -34.2690 -34.2662 -34.2662 -34.2662 -34.2662 -34.2624 -34.2624
   -34.2546 -34.2546 -34.2526 -34.2526 -34.2513 -34.2513 -34.2513 -34.2512
   -34.2458 -34.2458 -34.2423 -34.2423 -34.2423 -34.2423 -34.2418 -34.2418
   -34.2349 -34.2349 -34.2349 -34.2349 -34.2322 -34.2322 -34.2317 -34.2316
   -34.2314 -34.2314 -34.2280 -34.2280 -34.2280 -34.2280 -34.2277 -34.2277
     4.7034   4.7034   5.7390   5.7390   5.7390   5.7390   6.0784   6.0785
     6.0785   6.0785   6.1018   6.1018   6.1135   6.1135   6.1966   6.1966
     6.2183   6.2183   6.3693   6.3693   6.4537   6.4537   6.5395   6.5395
     6.5395   6.5395   6.6570   6.6570   6.6570   6.6571   6.7660   6.7660
     6.8175   6.8175   6.9225   6.9226   6.9226   6.9226   7.0539   7.0539
     7.0539   7.0539   7.0942   7.0942   7.1427   7.1427   7.2524   7.2524
     7.4216   7.4216   7.4748   7.4748   7.4748   7.4748   7.4831   7.4831
     7.5303   7.5303   7.5303   7.5303   7.6989   7.6989   7.7110   7.7110
     7.7703   7.7704   7.7760   7.7760   7.7773   7.7773   7.8377   7.8377
     7.8377   7.8377   7.8461   7.8461   8.1107   8.1107   8.1124   8.1124
     8.1124   8.1124   8.2495   8.2495   8.2495   8.2495   9.6682   9.6682
     9.6682   9.6682

          k = 0.1282 0.2137 0.2137 ( 33139 PWs)   bands (ev):

   -64.2949 -64.2931 -64.2931 -64.2924 -64.2921 -64.2918 -64.2918 -64.2915
   -64.2911 -64.2910 -64.2910 -64.2908 -64.2906 -64.2901 -64.2901 -64.2884
   -34.2770 -34.2758 -34.2758 -34.2725 -34.2725 -34.2702 -34.2695 -34.2691
   -34.2691 -34.2686 -34.2680 -34.2664 -34.2641 -34.2605 -34.2578 -34.2577
   -34.2560 -34.2560 -34.2540 -34.2540 -34.2532 -34.2511 -34.2506 -34.2506
   -34.2447 -34.2446 -34.2440 -34.2440 -34.2440 -34.2422 -34.2415 -34.2388
   -34.2384 -34.2378 -34.2378 -34.2374 -34.2343 -34.2321 -34.2311 -34.2301
   -34.2300 -34.2300 -34.2300 -34.2279 -34.2271 -34.2271 -34.2258 -34.2254
     4.3898   5.3917   5.3917   5.6927   5.7368   5.8308   5.8308   5.9664
     5.9664   5.9741   6.0884   6.1125   6.2000   6.2700   6.3008   6.3008
     6.3531   6.3982   6.3982   6.4219   6.4608   6.4647   6.4647   6.4800
     6.4800   6.5242   6.5701   6.6550   6.6879   6.7092   6.7200   6.7200
     6.7496   6.7986   6.8012   6.8237   6.8237   6.8302   6.9432   7.0446
     7.0446   7.1103   7.1594   7.2215   7.2216   7.3571   7.3571   7.3788
     7.3788   7.3848   7.4162   7.4483   7.4898   7.4898   7.5104   7.5753
     7.5902   7.5902   7.6080   7.6080   7.6308   7.6370   7.6477   7.6477
     7.6908   7.7496   7.7559   7.7590   7.7745   7.7747   7.7897   7.7897
     7.7932   7.8941   7.8941   7.9467   7.9976   8.0249   8.0249   8.0713
     8.0713   8.1441   8.1690   8.2353   8.3593   8.9571   8.9571   9.4091
     9.8608   9.8608

          k = 0.1282 0.2137 0.2991 ( 33154 PWs)   bands (ev):

   -64.2946 -64.2936 -64.2929 -64.2924 -64.2923 -64.2920 -64.2918 -64.2916
   -64.2911 -64.2910 -64.2909 -64.2907 -64.2905 -64.2902 -64.2895 -64.2887
   -34.2759 -34.2744 -34.2735 -34.2717 -34.2716 -34.2704 -34.2702 -34.2701
   -34.2698 -34.2692 -34.2673 -34.2666 -34.2646 -34.2636 -34.2593 -34.2582
   -34.2565 -34.2553 -34.2546 -34.2533 -34.2527 -34.2525 -34.2519 -34.2498
   -34.2480 -34.2443 -34.2440 -34.2431 -34.2418 -34.2413 -34.2412 -34.2408
   -34.2386 -34.2363 -34.2352 -34.2348 -34.2347 -34.2328 -34.2319 -34.2307
   -34.2298 -34.2296 -34.2293 -34.2281 -34.2281 -34.2276 -34.2260 -34.2257
     4.5778   5.0951   5.4845   5.6423   5.7937   5.8358   5.9647   6.0467
     6.0525   6.0618   6.1466   6.1730   6.1945   6.2254   6.2371   6.2644
     6.2785   6.3762   6.3960   6.4302   6.4537   6.4656   6.4783   6.5456
     6.5582   6.5799   6.5863   6.6163   6.6187   6.6581   6.7035   6.7177
     6.7820   6.7955   6.8066   6.8158   6.8686   6.8997   6.9193   6.9235
     6.9436   7.0526   7.1240   7.1344   7.1404   7.1430   7.1813   7.2612
     7.4143   7.4466   7.4610   7.4637   7.4763   7.4813   7.4899   7.4937
     7.5579   7.5871   7.6008   7.6038   7.6068   7.6369   7.6663   7.7148
     7.7246   7.7273   7.7347   7.7691   7.7748   7.7797   7.8079   7.8091
     7.8094   7.8158   7.8786   7.9071   7.9489   7.9771   8.0580   8.0964
     8.1053   8.1621   8.1709   8.2217   8.2957   8.7041   9.2950   9.6341
     9.9874  10.0916

          k = 0.1282 0.2137-0.3846 ( 33162 PWs)   bands (ev):

   -64.2942 -64.2941 -64.2927 -64.2927 -64.2922 -64.2921 -64.2917 -64.2916
   -64.2911 -64.2910 -64.2908 -64.2908 -64.2904 -64.2903 -64.2891 -64.2890
   -34.2740 -34.2740 -34.2725 -34.2725 -34.2706 -34.2706 -34.2705 -34.2704
   -34.2704 -34.2704 -34.2668 -34.2668 -34.2625 -34.2625 -34.2622 -34.2622
   -34.2545 -34.2545 -34.2542 -34.2542 -34.2528 -34.2528 -34.2514 -34.2514
   -34.2454 -34.2454 -34.2443 -34.2442 -34.2424 -34.2424 -34.2396 -34.2395
   -34.2379 -34.2379 -34.2339 -34.2339 -34.2320 -34.2320 -34.2319 -34.2319
   -34.2316 -34.2316 -34.2286 -34.2286 -34.2268 -34.2267 -34.2266 -34.2266
     4.8172   4.8172   5.5729   5.5729   5.8277   5.8277   6.1202   6.1202
     6.1276   6.1276   6.1380   6.1380   6.1527   6.1527   6.2150   6.2150
     6.2865   6.2865   6.4028   6.4028   6.5116   6.5116   6.5296   6.5296
     6.5322   6.5322   6.5868   6.5868   6.6976   6.6976   6.7014   6.7014
     6.7977   6.7977   6.8411   6.8411   6.9250   6.9250   6.9304   6.9304
     6.9418   6.9418   6.9856   6.9856   7.0362   7.0362   7.2623   7.2623
     7.3731   7.3731   7.4700   7.4700   7.5216   7.5216   7.5251   7.5251
     7.5388   7.5388   7.5418   7.5418   7.6853   7.6853   7.6949   7.6949
     7.7413   7.7413   7.7555   7.7555   7.7764   7.7764   7.7799   7.7799
     7.8162   7.8162   7.8645   7.8645   8.0028   8.0028   8.0208   8.0208
     8.1468   8.1468   8.1756   8.1756   8.4861   8.4861   9.6378   9.6378
     9.8895   9.8895

          k = 0.1282 0.2991 0.2991 ( 33155 PWs)   bands (ev):

   -64.2943 -64.2934 -64.2934 -64.2928 -64.2922 -64.2919 -64.2919 -64.2917
   -64.2910 -64.2909 -64.2909 -64.2907 -64.2902 -64.2897 -64.2897 -64.2889
   -34.2753 -34.2726 -34.2726 -34.2722 -34.2722 -34.2713 -34.2708 -34.2697
   -34.2697 -34.2694 -34.2685 -34.2655 -34.2632 -34.2627 -34.2583 -34.2583
   -34.2567 -34.2549 -34.2543 -34.2540 -34.2540 -34.2538 -34.2538 -34.2513
   -34.2453 -34.2445 -34.2445 -34.2433 -34.2432 -34.2432 -34.2421 -34.2388
   -34.2379 -34.2357 -34.2356 -34.2346 -34.2334 -34.2321 -34.2317 -34.2317
   -34.2311 -34.2297 -34.2293 -34.2293 -34.2267 -34.2267 -34.2257 -34.2255
     4.7556   5.2287   5.2287   5.5212   5.8770   5.9645   5.9645   6.1184
     6.1184   6.1377   6.1754   6.1863   6.2073   6.2406   6.2494   6.2494
     6.2852   6.4530   6.4530   6.4841   6.4937   6.4937   6.4942   6.5292
     6.5292   6.5293   6.5947   6.5992   6.6166   6.6166   6.6679   6.7107
     6.7493   6.7528   6.7916   6.7929   6.8286   6.8286   6.8862   6.8892
     6.9475   6.9475   6.9928   6.9928   7.0006   7.0006   7.0235   7.2533
     7.3801   7.4758   7.5105   7.5105   7.5128   7.5423   7.5537   7.5537
     7.5929   7.5973   7.6123   7.6123   7.6274   7.6275   7.6393   7.6393
     7.6969   7.7056   7.7068   7.7425   7.7777   7.7779   7.7871   7.7871
     7.7922   7.7922   7.8103   7.8328   7.9461   7.9509   7.9509   7.9719
     8.1607   8.1607   8.1914   8.2324   8.5094   9.0053   9.0053   9.6409
     9.8827  10.4604

          k = 0.1282 0.2991-0.3846 ( 33166 PWs)   bands (ev):

   -64.2939 -64.2939 -64.2932 -64.2931 -64.2921 -64.2920 -64.2918 -64.2918
   -64.2910 -64.2909 -64.2909 -64.2908 -64.2900 -64.2899 -64.2893 -64.2892
   -34.2740 -34.2740 -34.2720 -34.2720 -34.2716 -34.2716 -34.2705 -34.2704
   -34.2696 -34.2696 -34.2676 -34.2675 -34.2610 -34.2610 -34.2584 -34.2584
   -34.2568 -34.2568 -34.2555 -34.2555 -34.2545 -34.2544 -34.2496 -34.2496
   -34.2479 -34.2479 -34.2432 -34.2432 -34.2425 -34.2425 -34.2411 -34.2411
   -34.2370 -34.2370 -34.2332 -34.2331 -34.2330 -34.2330 -34.2318 -34.2318
   -34.2314 -34.2313 -34.2294 -34.2294 -34.2260 -34.2259 -34.2258 -34.2258
     4.9780   4.9780   5.3781   5.3781   5.9389   5.9389   6.1013   6.1013
     6.1646   6.1646   6.1905   6.1905   6.2022   6.2022   6.2254   6.2254
     6.3903   6.3903   6.4686   6.4686   6.5293   6.5293   6.5452   6.5452
     6.5467   6.5467   6.5547   6.5547   6.6329   6.6329   6.6360   6.6360
     6.7909   6.7909   6.7985   6.7985   6.8027   6.8027   6.8652   6.8652
     6.8974   6.8974   6.9050   6.9050   6.9340   6.9340   7.1074   7.1074
     7.5025   7.5025   7.5075   7.5075   7.5625   7.5625   7.5667   7.5667
     7.5730   7.5730   7.5827   7.5827   7.6606   7.6606   7.6618   7.6618
     7.6653   7.6653   7.7324   7.7324   7.7412   7.7412   7.7836   7.7836
     7.8035   7.8035   7.8161   7.8161   7.8751   7.8751   7.9426   7.9426
     8.1901   8.1901   8.2103   8.2103   8.7466   8.7466   9.3167   9.3167
    10.1628  10.1628

          k = 0.1282-0.3846-0.3846 ( 33152 PWs)   bands (ev):

   -64.2936 -64.2935 -64.2935 -64.2935 -64.2920 -64.2919 -64.2919 -64.2919
   -64.2909 -64.2909 -64.2909 -64.2908 -64.2896 -64.2896 -64.2896 -64.2895
   -34.2733 -34.2733 -34.2733 -34.2733 -34.2708 -34.2708 -34.2708 -34.2708
   -34.2685 -34.2685 -34.2685 -34.2685 -34.2592 -34.2591 -34.2591 -34.2591
   -34.2555 -34.2555 -34.2555 -34.2555 -34.2541 -34.2541 -34.2540 -34.2540
   -34.2444 -34.2444 -34.2444 -34.2444 -34.2427 -34.2427 -34.2427 -34.2427
   -34.2349 -34.2349 -34.2349 -34.2349 -34.2323 -34.2323 -34.2323 -34.2323
   -34.2304 -34.2304 -34.2304 -34.2304 -34.2256 -34.2256 -34.2256 -34.2256
     5.1718   5.1718   5.1718   5.1718   6.0403   6.0403   6.0403   6.0403
     6.1963   6.1963   6.1963   6.1963   6.2244   6.2244   6.2244   6.2245
     6.5131   6.5131   6.5131   6.5131   6.5272   6.5273   6.5273   6.5273
     6.5546   6.5546   6.5546   6.5546   6.5792   6.5792   6.5792   6.5792
     6.7228   6.7228   6.7228   6.7228   6.8336   6.8336   6.8336   6.8336
     6.8907   6.8907   6.8907   6.8908   6.9704   6.9704   6.9704   6.9704
     7.5714   7.5714   7.5714   7.5714   7.5809   7.5809   7.5809   7.5809
     7.6180   7.6180   7.6181   7.6181   7.6322   7.6322   7.6322   7.6322
     7.6534   7.6534   7.6534   7.6534   7.7245   7.7245   7.7245   7.7245
     7.7932   7.7932   7.7932   7.7932   7.8951   7.8951   7.8951   7.8951
     8.2146   8.2146   8.2146   8.2146   9.0229   9.0229   9.0229   9.0229
    10.4666  10.4666

          k = 0.2137 0.2137 0.2137 ( 33170 PWs)   bands (ev):

   -64.2947 -64.2930 -64.2929 -64.2929 -64.2921 -64.2921 -64.2921 -64.2916
   -64.2910 -64.2908 -64.2908 -64.2908 -64.2901 -64.2901 -64.2901 -64.2886
   -34.2754 -34.2754 -34.2754 -34.2700 -34.2700 -34.2700 -34.2699 -34.2699
   -34.2699 -34.2687 -34.2681 -34.2681 -34.2622 -34.2622 -34.2570 -34.2570
   -34.2570 -34.2567 -34.2567 -34.2567 -34.2547 -34.2528 -34.2528 -34.2528
   -34.2421 -34.2421 -34.2421 -34.2419 -34.2419 -34.2419 -34.2407 -34.2397
   -34.2397 -34.2378 -34.2378 -34.2378 -34.2332 -34.2319 -34.2319 -34.2318
   -34.2293 -34.2293 -34.2293 -34.2271 -34.2271 -34.2270 -34.2270 -34.2270
     4.5163   5.4752   5.4752   5.4752   5.7974   5.7974   5.7974   6.0400
     6.0400   6.0400   6.1507   6.1507   6.1903   6.3545   6.3545   6.3545
     6.4159   6.4159   6.4159   6.4299   6.4299   6.4407   6.4408   6.4408
     6.5405   6.5405   6.5405   6.5739   6.7072   6.7072   6.7072   6.7299
     6.7299   6.7300   6.7432   6.7432   6.7491   6.7491   6.9464   6.9464
     6.9464   7.0763   7.0763   7.0763   7.1936   7.1936   7.1936   7.2608
     7.4101   7.4304   7.4304   7.4304   7.5428   7.5428   7.5428   7.5645
     7.5645   7.5645   7.6412   7.6412   7.6412   7.6580   7.6580   7.7253
     7.7253   7.7253   7.7530   7.7530   7.7592   7.7592   7.7592   7.7757
     7.7757   7.9261   7.9261   7.9261   8.0166   8.0166   8.0166   8.0685
     8.0685   8.1081   8.1081   8.1081   8.6583   8.6583   8.6583   9.9669
    10.0446  10.0446

          k = 0.2137 0.2137 0.2991 ( 33182 PWs)   bands (ev):

   -64.2944 -64.2935 -64.2928 -64.2928 -64.2924 -64.2924 -64.2920 -64.2918
   -64.2909 -64.2908 -64.2906 -64.2906 -64.2902 -64.2902 -64.2896 -64.2888
   -34.2744 -34.2744 -34.2730 -34.2713 -34.2713 -34.2704 -34.2697 -34.2695
   -34.2691 -34.2670 -34.2670 -34.2663 -34.2661 -34.2604 -34.2601 -34.2601
   -34.2599 -34.2570 -34.2570 -34.2550 -34.2547 -34.2547 -34.2527 -34.2516
   -34.2451 -34.2445 -34.2419 -34.2406 -34.2405 -34.2405 -34.2391 -34.2391
   -34.2383 -34.2382 -34.2357 -34.2345 -34.2340 -34.2340 -34.2324 -34.2318
   -34.2292 -34.2291 -34.2284 -34.2284 -34.2279 -34.2272 -34.2271 -34.2268
     4.6998   5.1975   5.5787   5.5787   5.7505   5.7505   5.9457   6.1155
     6.1266   6.1266   6.1872   6.2060   6.2322   6.3083   6.3083   6.3178
     6.3556   6.3677   6.4101   6.4134   6.4582   6.4582   6.5207   6.5207
     6.5269   6.6008   6.6008   6.6125   6.6125   6.6279   6.6456   6.6885
     6.7008   6.7184   6.7353   6.7514   6.7514   6.8484   6.8633   6.8633
     6.9257   6.9257   6.9782   6.9921   6.9954   6.9954   7.0205   7.2458
     7.3774   7.4905   7.4962   7.4962   7.5513   7.5513   7.5572   7.5572
     7.6112   7.6138   7.6138   7.6282   7.6334   7.6633   7.6646   7.6946
     7.7253   7.7408   7.7559   7.7590   7.7627   7.7627   7.7765   7.7765
     7.8006   7.8150   7.9396   7.9821   8.0395   8.0395   8.0401   8.0401
     8.0724   8.1039   8.1071   8.1071   8.4194   8.4194   8.9690   9.6169
    10.2851  10.2851

          k = 0.2137 0.2137-0.3846 ( 33148 PWs)   bands (ev):

   -64.2940 -64.2940 -64.2926 -64.2926 -64.2926 -64.2926 -64.2919 -64.2919
   -64.2909 -64.2908 -64.2904 -64.2904 -64.2904 -64.2903 -64.2892 -64.2892
   -34.2729 -34.2729 -34.2729 -34.2729 -34.2703 -34.2702 -34.2699 -34.2699
   -34.2695 -34.2695 -34.2636 -34.2636 -34.2636 -34.2636 -34.2635 -34.2635
   -34.2575 -34.2575 -34.2562 -34.2562 -34.2561 -34.2561 -34.2486 -34.2485
   -34.2483 -34.2483 -34.2414 -34.2413 -34.2392 -34.2392 -34.2392 -34.2391
   -34.2364 -34.2364 -34.2364 -34.2364 -34.2321 -34.2321 -34.2319 -34.2319
   -34.2315 -34.2315 -34.2277 -34.2277 -34.2277 -34.2277 -34.2271 -34.2271
     4.9317   4.9318   5.6771   5.6771   5.6771   5.6771   6.1260   6.1260
     6.1692   6.1692   6.2199   6.2199   6.2199   6.2199   6.2756   6.2756
     6.3147   6.3147   6.4080   6.4080   6.5246   6.5246   6.5246   6.5246
     6.5599   6.5599   6.6115   6.6115   6.6115   6.6115   6.6803   6.6803
     6.7270   6.7270   6.7867   6.7867   6.8321   6.8321   6.8322   6.8322
     6.8391   6.8391   6.8391   6.8391   6.9425   6.9425   7.0989   7.0989
     7.5048   7.5048   7.5519   7.5519   7.5519   7.5519   7.5536   7.5536
     7.5617   7.5617   7.5617   7.5617   7.6898   7.6898   7.6944   7.6944
     7.7389   7.7389   7.7580   7.7580   7.7756   7.7756   7.7756   7.7756
     7.7996   7.7996   7.8822   7.8822   8.0784   8.0784   8.0784   8.0784
     8.1038   8.1038   8.2153   8.2153   8.2153   8.2153   9.2875   9.2875
    10.5578  10.5578

          k = 0.2137 0.2991 0.2991 ( 33151 PWs)   bands (ev):

   -64.2941 -64.2933 -64.2933 -64.2927 -64.2927 -64.2922 -64.2922 -64.2919
   -64.2908 -64.2906 -64.2906 -64.2903 -64.2903 -64.2898 -64.2898 -64.2891
   -34.2737 -34.2722 -34.2721 -34.2713 -34.2713 -34.2711 -34.2698 -34.2687
   -34.2675 -34.2675 -34.2669 -34.2655 -34.2636 -34.2625 -34.2609 -34.2604
   -34.2604 -34.2582 -34.2572 -34.2570 -34.2570 -34.2562 -34.2562 -34.2484
   -34.2482 -34.2420 -34.2420 -34.2400 -34.2400 -34.2392 -34.2383 -34.2382
   -34.2369 -34.2364 -34.2350 -34.2350 -34.2344 -34.2332 -34.2332 -34.2323
   -34.2300 -34.2292 -34.2292 -34.2288 -34.2276 -34.2276 -34.2271 -34.2270
     4.8753   5.3363   5.3363   5.6357   5.6995   5.9028   5.9028   6.1953
     6.1953   6.2075   6.2125   6.2512   6.2566   6.3117   6.3305   6.3305
     6.3518   6.4522   6.4522   6.4678   6.4787   6.4787   6.4849   6.4889
     6.5348   6.5633   6.5633   6.6058   6.6091   6.6092   6.6499   6.6536
     6.6575   6.6631   6.7127   6.7169   6.7170   6.7820   6.8084   6.8109
     6.8109   6.8199   6.8576   6.8629   6.8629   6.8924   6.8924   7.0824
     7.5109   7.5425   7.5425   7.5447   7.5692   7.6133   7.6167   7.6210
     7.6282   7.6282   7.6411   7.6411   7.6547   7.6547   7.6871   7.7068
     7.7394   7.7395   7.7400   7.7400   7.7502   7.7584   7.7584   7.7783
     7.8285   7.8413   7.8413   7.8873   7.9881   7.9881   7.9923   8.0824
     8.0824   8.0913   8.1225   8.1940   8.2349   8.6958   8.6958   9.2881
    10.5367  11.1211

          k = 0.2137 0.2991-0.3846 ( 33152 PWs)   bands (ev):

   -64.2937 -64.2937 -64.2930 -64.2930 -64.2925 -64.2924 -64.2921 -64.2921
   -64.2907 -64.2907 -64.2905 -64.2904 -64.2900 -64.2900 -64.2894 -64.2894
   -34.2726 -34.2726 -34.2714 -34.2714 -34.2708 -34.2708 -34.2695 -34.2695
   -34.2681 -34.2681 -34.2650 -34.2650 -34.2633 -34.2633 -34.2600 -34.2600
   -34.2594 -34.2594 -34.2592 -34.2592 -34.2582 -34.2582 -34.2522 -34.2522
   -34.2452 -34.2452 -34.2394 -34.2394 -34.2391 -34.2391 -34.2388 -34.2388
   -34.2363 -34.2362 -34.2349 -34.2349 -34.2326 -34.2326 -34.2322 -34.2322
   -34.2317 -34.2317 -34.2291 -34.2291 -34.2272 -34.2272 -34.2271 -34.2271
     5.0934   5.0934   5.4911   5.4911   5.8180   5.8180   6.0829   6.0829
     6.2265   6.2265   6.2788   6.2788   6.2846   6.2846   6.3015   6.3015
     6.4057   6.4057   6.4550   6.4550   6.5236   6.5236   6.5356   6.5356
     6.5481   6.5481   6.5857   6.5857   6.6161   6.6161   6.6221   6.6221
     6.6464   6.6464   6.6928   6.6928   6.7078   6.7079   6.7598   6.7598
     6.7623   6.7623   6.8155   6.8155   6.8461   6.8462   6.9440   6.9440
     7.5892   7.5892   7.5906   7.5906   7.5969   7.5969   7.6100   7.6100
     7.6307   7.6307   7.6543   7.6543   7.6745   7.6745   7.6962   7.6962
     7.7212   7.7212   7.7401   7.7401   7.7539   7.7539   7.7687   7.7687
     7.7718   7.7718   7.8900   7.8900   7.9818   7.9818   8.0017   8.0017
     8.0988   8.0988   8.1092   8.1092   8.4547   8.4548   8.9845   8.9845
    10.8250  10.8250

          k = 0.2137-0.3846-0.3846 ( 33136 PWs)   bands (ev):

   -64.2935 -64.2934 -64.2934 -64.2934 -64.2923 -64.2923 -64.2923 -64.2922
   -64.2906 -64.2906 -64.2906 -64.2905 -64.2897 -64.2897 -64.2897 -64.2896
   -34.2717 -34.2717 -34.2717 -34.2717 -34.2701 -34.2701 -34.2701 -34.2700
   -34.2666 -34.2666 -34.2666 -34.2666 -34.2617 -34.2617 -34.2617 -34.2616
   -34.2596 -34.2595 -34.2595 -34.2595 -34.2561 -34.2561 -34.2561 -34.2561
   -34.2421 -34.2421 -34.2420 -34.2420 -34.2387 -34.2387 -34.2387 -34.2387
   -34.2339 -34.2339 -34.2339 -34.2338 -34.2336 -34.2336 -34.2336 -34.2336
   -34.2306 -34.2306 -34.2306 -34.2306 -34.2271 -34.2271 -34.2271 -34.2270
     5.2875   5.2875   5.2875   5.2875   5.9687   5.9687   5.9687   5.9687
     6.2821   6.2821   6.2821   6.2821   6.3039   6.3039   6.3039   6.3039
     6.5237   6.5237   6.5238   6.5238   6.5257   6.5258   6.5258   6.5258
     6.5597   6.5597   6.5597   6.5597   6.5681   6.5681   6.5681   6.5681
     6.5890   6.5890   6.5890   6.5890   6.7201   6.7201   6.7201   6.7201
     6.8061   6.8061   6.8061   6.8061   6.8166   6.8166   6.8166   6.8166
     7.6068   7.6068   7.6068   7.6068   7.6378   7.6378   7.6378   7.6378
     7.6828   7.6828   7.6828   7.6828   7.6916   7.6917   7.6917   7.6917
     7.7149   7.7150   7.7150   7.7150   7.7604   7.7604   7.7604   7.7604
     7.8205   7.8205   7.8205   7.8205   7.9151   7.9151   7.9151   7.9151
     8.1123   8.1123   8.1123   8.1123   8.7105   8.7105   8.7105   8.7105
    11.1274  11.1274

          k = 0.2991 0.2991 0.2991 ( 33116 PWs)   bands (ev):

   -64.2938 -64.2931 -64.2931 -64.2931 -64.2926 -64.2926 -64.2926 -64.2922
   -64.2906 -64.2904 -64.2904 -64.2904 -64.2899 -64.2899 -64.2899 -64.2893
   -34.2714 -34.2714 -34.2714 -34.2706 -34.2706 -34.2706 -34.2677 -34.2677
   -34.2675 -34.2649 -34.2649 -34.2649 -34.2648 -34.2648 -34.2618 -34.2618
   -34.2618 -34.2598 -34.2598 -34.2598 -34.2590 -34.2590 -34.2590 -34.2516
   -34.2454 -34.2395 -34.2395 -34.2394 -34.2373 -34.2373 -34.2373 -34.2354
   -34.2354 -34.2350 -34.2350 -34.2350 -34.2347 -34.2347 -34.2347 -34.2329
   -34.2292 -34.2292 -34.2292 -34.2291 -34.2291 -34.2284 -34.2284 -34.2284
     5.0464   5.4837   5.4837   5.4838   5.7986   5.7986   5.7986   6.1920
     6.2646   6.2843   6.2843   6.2843   6.3490   6.3490   6.4415   6.4415
     6.4415   6.4421   6.4421   6.4421   6.4624   6.4624   6.4743   6.4743
     6.4743   6.5913   6.5913   6.5913   6.6029   6.6029   6.6029   6.6173
     6.6173   6.6173   6.6443   6.6443   6.6951   6.6951   6.6951   6.6974
     6.6974   6.7542   6.7542   6.7542   6.7644   6.7644   6.7644   6.9181
     7.5837   7.5837   7.5837   7.6463   7.6463   7.6463   7.6587   7.6587
     7.6620   7.6635   7.6635   7.6635   7.7135   7.7135   7.7135   7.7174
     7.7174   7.7342   7.7342   7.7342   7.7421   7.7421   7.7421   7.7993
     7.7993   7.9663   7.9663   7.9997   7.9997   7.9997   8.0151   8.0151
     8.0151   8.0165   8.0165   8.0166   8.4407   8.4407   8.4407   8.9811
    11.2661  11.2661

          k = 0.2991 0.2991-0.3846 ( 33128 PWs)   bands (ev):

   -64.2935 -64.2935 -64.2929 -64.2929 -64.2928 -64.2928 -64.2924 -64.2923
   -64.2905 -64.2904 -64.2902 -64.2901 -64.2901 -64.2901 -64.2896 -64.2896
   -34.2706 -34.2706 -34.2706 -34.2706 -34.2694 -34.2694 -34.2684 -34.2684
   -34.2662 -34.2662 -34.2650 -34.2650 -34.2625 -34.2625 -34.2620 -34.2620
   -34.2620 -34.2620 -34.2616 -34.2616 -34.2616 -34.2616 -34.2553 -34.2553
   -34.2423 -34.2423 -34.2371 -34.2371 -34.2371 -34.2371 -34.2364 -34.2363
   -34.2355 -34.2354 -34.2354 -34.2354 -34.2338 -34.2338 -34.2320 -34.2320
   -34.2317 -34.2316 -34.2290 -34.2290 -34.2290 -34.2290 -34.2286 -34.2286
     5.2562   5.2562   5.6491   5.6491   5.6491   5.6491   5.9962   5.9962
     6.3073   6.3073   6.3732   6.3732   6.3732   6.3732   6.3938   6.3938
     6.4355   6.4355   6.4656   6.4656   6.5267   6.5267   6.5267   6.5267
     6.5544   6.5544   6.5598   6.5598   6.5598   6.5598   6.6012   6.6012
     6.6033   6.6033   6.6303   6.6303   6.6318   6.6318   6.6318   6.6318
     6.6977   6.6977   6.6977   6.6977   6.7364   6.7364   6.7868   6.7868
     7.6232   7.6232   7.6242   7.6242   7.6242   7.6242   7.6814   7.6814
     7.7010   7.7010   7.7057   7.7057   7.7057   7.7057   7.7268   7.7268
     7.7320   7.7320   7.7320   7.7320   7.7431   7.7431   7.8285   7.8285
     7.8351   7.8352   7.8874   7.8875   7.9969   7.9969   7.9969   7.9969
     8.0094   8.0094   8.2177   8.2177   8.2177   8.2177   8.7022   8.7023
    11.5603  11.5603

          k = 0.2991-0.3846-0.3846 ( 33144 PWs)   bands (ev):

   -64.2933 -64.2932 -64.2932 -64.2932 -64.2927 -64.2926 -64.2926 -64.2926
   -64.2903 -64.2903 -64.2903 -64.2902 -64.2899 -64.2898 -64.2898 -64.2898
   -34.2695 -34.2695 -34.2695 -34.2695 -34.2687 -34.2687 -34.2687 -34.2686
   -34.2643 -34.2643 -34.2643 -34.2643 -34.2642 -34.2642 -34.2642 -34.2642
   -34.2633 -34.2633 -34.2633 -34.2633 -34.2587 -34.2587 -34.2587 -34.2587
   -34.2396 -34.2396 -34.2396 -34.2395 -34.2353 -34.2353 -34.2352 -34.2352
   -34.2351 -34.2351 -34.2351 -34.2351 -34.2328 -34.2328 -34.2328 -34.2328
   -34.2311 -34.2311 -34.2311 -34.2311 -34.2292 -34.2292 -34.2292 -34.2291
     5.4503   5.4504   5.4504   5.4504   5.8317   5.8317   5.8317   5.8317
     6.3897   6.3897   6.3897   6.3897   6.4145   6.4145   6.4145   6.4145
     6.5226   6.5226   6.5226   6.5226   6.5306   6.5306   6.5306   6.5306
     6.5369   6.5369   6.5369   6.5369   6.5543   6.5543   6.5543   6.5543
     6.5578   6.5578   6.5578   6.5578   6.6151   6.6152   6.6152   6.6152
     6.6623   6.6623   6.6623   6.6623   6.6833   6.6833   6.6833   6.6833
     7.6417   7.6417   7.6417   7.6417   7.6603   7.6603   7.6603   7.6603
     7.7006   7.7006   7.7006   7.7006   7.7230   7.7230   7.7230   7.7230
     7.7626   7.7626   7.7626   7.7626   7.7943   7.7943   7.7943   7.7943
     7.9081   7.9082   7.9082   7.9082   7.9898   7.9898   7.9898   7.9898
     8.0132   8.0132   8.0132   8.0132   8.4506   8.4506   8.4506   8.4506
    11.8514  11.8514

          k =-0.3846-0.3846-0.3846 ( 33168 PWs)   bands (ev):

   -64.2931 -64.2930 -64.2930 -64.2930 -64.2930 -64.2930 -64.2930 -64.2929
   -64.2901 -64.2900 -64.2900 -64.2900 -64.2900 -64.2900 -64.2900 -64.2899
   -34.2667 -34.2667 -34.2667 -34.2667 -34.2667 -34.2667 -34.2666 -34.2666
   -34.2666 -34.2666 -34.2666 -34.2666 -34.2666 -34.2666 -34.2666 -34.2666
   -34.2615 -34.2615 -34.2615 -34.2615 -34.2615 -34.2615 -34.2615 -34.2615
   -34.2373 -34.2373 -34.2373 -34.2373 -34.2373 -34.2373 -34.2372 -34.2372
   -34.2319 -34.2319 -34.2319 -34.2319 -34.2319 -34.2319 -34.2319 -34.2319
   -34.2319 -34.2319 -34.2319 -34.2319 -34.2319 -34.2318 -34.2318 -34.2318
     5.6429   5.6429   5.6429   5.6429   5.6429   5.6429   5.6429   5.6430
     6.5145   6.5145   6.5145   6.5145   6.5145   6.5145   6.5145   6.5145
     6.5409   6.5409   6.5409   6.5409   6.5409   6.5409   6.5409   6.5409
     6.5409   6.5409   6.5409   6.5409   6.5409   6.5409   6.5409   6.5409
     6.5493   6.5493   6.5493   6.5494   6.5494   6.5494   6.5494   6.5494
     6.5494   6.5494   6.5494   6.5494   6.5494   6.5494   6.5494   6.5494
     7.6820   7.6820   7.6820   7.6820   7.6820   7.6820   7.6820   7.6820
     7.6820   7.6820   7.6820   7.6820   7.6820   7.6820   7.6820   7.6820
     7.8680   7.8680   7.8680   7.8680   7.8680   7.8680   7.8680   7.8681
     7.8681   7.8681   7.8681   7.8681   7.8681   7.8681   7.8681   7.8681
     8.2223   8.2223   8.2223   8.2223   8.2223   8.2223   8.2223   8.2223
    12.3909  12.3909

     the Fermi energy is     7.7393 ev

!    total energy              =   -6902.15492010 Ry

     total all-electron energy =   -144990.350090 Ry
     estimated scf accuracy    <       0.00000021 Ry
     smearing contrib. (-TS)   =      -0.11252712 Ry
     internal energy E=F+TS    =   -6902.04239298 Ry

     The total energy is F=E-TS. E is the sum of the following terms:
     one-electron contribution =   -1434.16507298 Ry
     hartree contribution      =     790.08246899 Ry
     xc contribution           =    -456.99460508 Ry
     ewald contribution        =   -2006.49293329 Ry
     one-center paw contrib.   =   -3794.47225061 Ry

     convergence has been achieved in  13 iterations

     Forces acting on atoms (cartesian axes, Ry/au):

     atom    1 type  1   force =     0.00000000    0.00000000    0.00000000
     atom    2 type  1   force =     0.00002087    0.00002087    0.00002087
     atom    3 type  1   force =     0.00000000    0.00000000    0.00000000
     atom    4 type  1   force =     0.00002087    0.00002087   -0.00002087
     atom    5 type  1   force =     0.00000000    0.00000000    0.00000000
     atom    6 type  1   force =     0.00002087   -0.00002087    0.00002087
     atom    7 type  1   force =     0.00000000    0.00000000    0.00000000
     atom    8 type  1   force =     0.00002087   -0.00002087   -0.00002087
     atom    9 type  1   force =     0.00000000    0.00000000    0.00000000
     atom   10 type  1   force =    -0.00002087    0.00002087    0.00002087
     atom   11 type  1   force =     0.00000000    0.00000000    0.00000000
     atom   12 type  1   force =    -0.00002087    0.00002087   -0.00002087
     atom   13 type  1   force =     0.00000000    0.00000000    0.00000000
     atom   14 type  1   force =    -0.00002087   -0.00002087    0.00002087
     atom   15 type  1   force =     0.00000000    0.00000000    0.00000000
     atom   16 type  1   force =    -0.00002087   -0.00002087   -0.00002087

     Total force =     0.000102     Total SCF correction =     0.000450
     SCF correction compared to forces is large: reduce conv_thr to get better values


     Computing stress (Cartesian axis) and pressure

          total   stress  (Ry/bohr**3)                   (kbar)     P=     -298.42
  -0.00202863   0.00000000   0.00000000         -298.42        0.00        0.00
   0.00000000  -0.00202863   0.00000000            0.00     -298.42        0.00
   0.00000000   0.00000000  -0.00202863            0.00        0.00     -298.42


     Writing output data file /scratch/vfAeAVnVflpCFMrU.save/
 
     init_run     :      6.04s CPU      6.25s WALL (       1 calls)
     electrons    :    221.85s CPU    226.16s WALL (       1 calls)
     forces       :      1.88s CPU      1.92s WALL (       1 calls)
     stress       :      7.19s CPU      7.25s WALL (       1 calls)

     Called by init_run:
     wfcinit      :      5.14s CPU      5.27s WALL (       1 calls)
     potinit      :      0.13s CPU      0.15s WALL (       1 calls)
     hinit0       :      0.38s CPU      0.39s WALL (       1 calls)

     Called by electrons:
     c_bands      :    191.46s CPU    194.91s WALL (      14 calls)
     sum_band     :     28.81s CPU     29.41s WALL (      14 calls)
     v_of_rho     :      0.23s CPU      0.25s WALL (      14 calls)
     newd         :      0.39s CPU      0.51s WALL (      14 calls)
     PAW_pot      :      0.83s CPU      0.92s WALL (      14 calls)
     mix_rho      :      0.08s CPU      0.09s WALL (      14 calls)

     Called by c_bands:
     init_us_2    :      1.21s CPU      1.24s WALL (    1085 calls)
     cegterg      :    187.42s CPU    190.74s WALL (     490 calls)

     Called by *egterg:
     cdiaghg      :     27.34s CPU     28.02s WALL (    1780 calls)
     h_psi        :    112.57s CPU    114.70s WALL (    1850 calls)
     s_psi        :      4.34s CPU      4.37s WALL (    1850 calls)
     g_psi        :      0.20s CPU      0.20s WALL (    1325 calls)

     Called by h_psi:
     h_psi:calbec :      8.42s CPU      8.50s WALL (    1850 calls)
     vloc_psi     :     99.03s CPU    101.02s WALL (    1850 calls)
     add_vuspsi   :      4.60s CPU      4.66s WALL (    1850 calls)

     General routines
     calbec       :     14.06s CPU     14.18s WALL (    2515 calls)
     fft          :      0.26s CPU      0.28s WALL (     206 calls)
     ffts         :      0.02s CPU      0.02s WALL (      28 calls)
     fftw         :    118.74s CPU    121.02s WALL (  423164 calls)
     interpolate  :      0.03s CPU      0.04s WALL (      14 calls)
 
     Parallel routines
     fft_scatt_xy :      7.44s CPU      7.56s WALL (  423398 calls)
     fft_scatt_yz :     98.78s CPU    100.77s WALL (  423398 calls)
 
     PWSCF        :   4m 3.28s CPU   4m 9.04s WALL

 
   This run was terminated on:  23:55:11  25Nov2021            

=------------------------------------------------------------------------------=
   JOB DONE.
=------------------------------------------------------------------------------=
