
     Program PWSCF v.6.7MaX starts on 25Nov2021 at 23:44: 8 

     This program is part of the open-source Quantum ESPRESSO suite
     for quantum simulation of materials; please cite
         "P. Giannozzi et al., J. Phys.:Condens. Matter 21 395502 (2009);
         "P. Giannozzi et al., J. Phys.:Condens. Matter 29 465901 (2017);
          URL http://www.quantum-espresso.org", 
     in publications or presentations arising from this work. More details at
     http://www.quantum-espresso.org/quote

     Parallel version (MPI & OpenMP), running on      72 processor cores
     Number of MPI processes:                72
     Threads/MPI process:                     1

     MPI processes distributed on     1 nodes
     R & G space division:  proc/nbgrp/npool/nimage =      72
     Reading input from bcc_2.in
Warning: card &CELL ignored
Warning: card CELL_DYNAMICS = 'BFGS', ignored
Warning: card CELL_FACTOR = 2.0, ignored
Warning: card PRESS = 0.0, ignored
Warning: card / ignored

     Current dimensions of program PWSCF are:
     Max number of different atomic species (ntypx) = 10
     Max number of k-points (npk) =  40000
     Max angular momentum in pseudopotentials (lmaxx) =  3
     file Ru.pbe-spn-kjpaw_psl.1.0.0.UPF: wavefunction(s)  4D renormalized

     Subspace diagonalization in iterative solution of the eigenvalue problem:
     one sub-group per band group will be used
     ELPA distributed-memory algorithm (size of sub-group:  8*  8 procs)

     Found symmetry operation: I + (  0.2500  0.2500  0.2500)
     This is a supercell, fractional translations are disabled
     Message from routine setup:
     using ibrav=0 with symmetry is DISCOURAGED, use correct ibrav instead
 
     Parallelization info
     --------------------
     sticks:   dense  smooth     PW     G-vecs:    dense   smooth      PW
     Min          75      49     13                 4158     2229     321
     Max          77      50     14                 4162     2236     330
     Sum        5417    3569    989               299531   160707   23439
 


     bravais-lattice index     =            0
     lattice parameter (alat)  =      11.4293  a.u.
     unit-cell volume          =    1987.1684 (a.u.)^3
     number of atoms/cell      =           16
     number of atomic types    =            1
     number of electrons       =       256.00
     number of Kohn-Sham states=          154
     kinetic-energy cutoff     =      71.0000  Ry
     charge density cutoff     =     430.0000  Ry
     scf convergence threshold =      1.0E-06
     mixing beta               =       0.1000
     number of iterations used =           10  TF        mixing
     Exchange-correlation= SLA  PW   PBX  PBC
                           (   1   4   3   4   0   0   0)

     celldm(1)=  11.429280  celldm(2)=   0.000000  celldm(3)=   0.000000
     celldm(4)=   0.000000  celldm(5)=   0.000000  celldm(6)=   0.000000

     crystal axes: (cart. coord. in units of alat)
               a(1) = (   1.100000   0.000000   0.000000 )  
               a(2) = (   0.000000   1.100000   0.000000 )  
               a(3) = (   0.000000   0.000000   1.100000 )  

     reciprocal axes: (cart. coord. in units 2 pi/alat)
               b(1) = (  0.909091  0.000000  0.000000 )  
               b(2) = (  0.000000  0.909091  0.000000 )  
               b(3) = (  0.000000  0.000000  0.909091 )  


     PseudoPot. # 1 for Ru read from file:
     /rds/homes/b/bxp912/pp/Ru.pbe-spn-kjpaw_psl.1.0.0.UPF
     MD5 check sum: 0ae1f594dea09af7be8575c3a481d1ae
     Pseudo is Projector augmented-wave + core cor, Zval = 16.0
     Generated using "atomic" code by A. Dal Corso  v.5.1
     Shape of augmentation charge: PSQ
     Using radial grid of 1233 points,  6 beta functions with: 
                l(1) =   0
                l(2) =   0
                l(3) =   1
                l(4) =   1
                l(5) =   2
                l(6) =   2
     Q(r) pseudized with 0 coefficients 


     atomic species   valence    mass     pseudopotential
        Ru            16.00   101.07000     Ru( 1.00)

     48 Sym. Ops., with inversion, found



   Cartesian axes

     site n.     atom                  positions (alat units)
         1           Ru  tau(   1) = (   0.0000000   0.0000000   0.0000000  )
         2           Ru  tau(   2) = (   0.2750000   0.2750000   0.2750000  )
         3           Ru  tau(   3) = (   0.0000000   0.0000000   0.5500000  )
         4           Ru  tau(   4) = (   0.2750000   0.2750000   0.8250000  )
         5           Ru  tau(   5) = (   0.0000000   0.5500000   0.0000000  )
         6           Ru  tau(   6) = (   0.2750000   0.8250000   0.2750000  )
         7           Ru  tau(   7) = (   0.0000000   0.5500000   0.5500000  )
         8           Ru  tau(   8) = (   0.2750000   0.8250000   0.8250000  )
         9           Ru  tau(   9) = (   0.5500000   0.0000000   0.0000000  )
        10           Ru  tau(  10) = (   0.8250000   0.2750000   0.2750000  )
        11           Ru  tau(  11) = (   0.5500000   0.0000000   0.5500000  )
        12           Ru  tau(  12) = (   0.8250000   0.2750000   0.8250000  )
        13           Ru  tau(  13) = (   0.5500000   0.5500000   0.0000000  )
        14           Ru  tau(  14) = (   0.8250000   0.8250000   0.2750000  )
        15           Ru  tau(  15) = (   0.5500000   0.5500000   0.5500000  )
        16           Ru  tau(  16) = (   0.8250000   0.8250000   0.8250000  )

     number of k points=    35  Marzari-Vanderbilt smearing, width (Ry)=  0.0400
                       cart. coord. in units 2pi/alat
        k(    1) = (   0.0505051   0.0505051   0.0505051), wk =   0.0219479
        k(    2) = (   0.0505051   0.0505051   0.1515152), wk =   0.0658436
        k(    3) = (   0.0505051   0.0505051   0.2525253), wk =   0.0658436
        k(    4) = (   0.0505051   0.0505051   0.3535354), wk =   0.0658436
        k(    5) = (   0.0505051   0.0505051  -0.4545455), wk =   0.0329218
        k(    6) = (   0.0505051   0.1515152   0.1515152), wk =   0.0658436
        k(    7) = (   0.0505051   0.1515152   0.2525253), wk =   0.1316872
        k(    8) = (   0.0505051   0.1515152   0.3535354), wk =   0.1316872
        k(    9) = (   0.0505051   0.1515152  -0.4545455), wk =   0.0658436
        k(   10) = (   0.0505051   0.2525253   0.2525253), wk =   0.0658436
        k(   11) = (   0.0505051   0.2525253   0.3535354), wk =   0.1316872
        k(   12) = (   0.0505051   0.2525253  -0.4545455), wk =   0.0658436
        k(   13) = (   0.0505051   0.3535354   0.3535354), wk =   0.0658436
        k(   14) = (   0.0505051   0.3535354  -0.4545455), wk =   0.0658436
        k(   15) = (   0.0505051  -0.4545455  -0.4545455), wk =   0.0164609
        k(   16) = (   0.1515152   0.1515152   0.1515152), wk =   0.0219479
        k(   17) = (   0.1515152   0.1515152   0.2525253), wk =   0.0658436
        k(   18) = (   0.1515152   0.1515152   0.3535354), wk =   0.0658436
        k(   19) = (   0.1515152   0.1515152  -0.4545455), wk =   0.0329218
        k(   20) = (   0.1515152   0.2525253   0.2525253), wk =   0.0658436
        k(   21) = (   0.1515152   0.2525253   0.3535354), wk =   0.1316872
        k(   22) = (   0.1515152   0.2525253  -0.4545455), wk =   0.0658436
        k(   23) = (   0.1515152   0.3535354   0.3535354), wk =   0.0658436
        k(   24) = (   0.1515152   0.3535354  -0.4545455), wk =   0.0658436
        k(   25) = (   0.1515152  -0.4545455  -0.4545455), wk =   0.0164609
        k(   26) = (   0.2525253   0.2525253   0.2525253), wk =   0.0219479
        k(   27) = (   0.2525253   0.2525253   0.3535354), wk =   0.0658436
        k(   28) = (   0.2525253   0.2525253  -0.4545455), wk =   0.0329218
        k(   29) = (   0.2525253   0.3535354   0.3535354), wk =   0.0658436
        k(   30) = (   0.2525253   0.3535354  -0.4545455), wk =   0.0658436
        k(   31) = (   0.2525253  -0.4545455  -0.4545455), wk =   0.0164609
        k(   32) = (   0.3535354   0.3535354   0.3535354), wk =   0.0219479
        k(   33) = (   0.3535354   0.3535354  -0.4545455), wk =   0.0329218
        k(   34) = (   0.3535354  -0.4545455  -0.4545455), wk =   0.0164609
        k(   35) = (  -0.4545455  -0.4545455  -0.4545455), wk =   0.0027435

     Dense  grid:   299531 G-vectors     FFT dimensions: (  90,  90,  90)

     Smooth grid:   160707 G-vectors     FFT dimensions: (  72,  72,  72)

     Estimated max dynamical RAM per process >      44.31 MB

     Estimated total dynamical RAM >       3.12 GB

     Check: negative core charge=   -0.000002

     Initial potential from superposition of free atoms

     starting charge  255.98980, renormalised to  256.00000
     Starting wfcs are  160 randomized atomic wfcs
     Checking if some PAW data can be deallocated... 

     total cpu time spent up to now is        7.7 secs

     Self-consistent Calculation

     iteration #  1     ecut=    71.00 Ry     beta= 0.10
     Davidson diagonalization with overlap
     ethr =  1.00E-02,  avg # of iterations =  3.4

     Threshold (ethr) on eigenvalues was too large:
     Diagonalizing with lowered threshold

     Davidson diagonalization with overlap
     ethr =  1.28E-05,  avg # of iterations =  5.7

     total cpu time spent up to now is       48.5 secs

     total energy              =   -6905.35246066 Ry
     estimated scf accuracy    <       0.09793973 Ry

     iteration #  2     ecut=    71.00 Ry     beta= 0.10
     Davidson diagonalization with overlap
     ethr =  3.83E-05,  avg # of iterations =  1.0

     total cpu time spent up to now is       57.8 secs

     total energy              =   -6905.32461384 Ry
     estimated scf accuracy    <       0.07439333 Ry

     iteration #  3     ecut=    71.00 Ry     beta= 0.10
     Davidson diagonalization with overlap
     ethr =  2.91E-05,  avg # of iterations =  2.2

     total cpu time spent up to now is       71.0 secs

     total energy              =   -6905.33661956 Ry
     estimated scf accuracy    <       0.00388021 Ry

     iteration #  4     ecut=    71.00 Ry     beta= 0.10
     Davidson diagonalization with overlap
     ethr =  1.52E-06,  avg # of iterations =  3.1

     total cpu time spent up to now is       81.4 secs

     total energy              =   -6905.33739086 Ry
     estimated scf accuracy    <       0.00187362 Ry

     iteration #  5     ecut=    71.00 Ry     beta= 0.10
     Davidson diagonalization with overlap
     ethr =  7.32E-07,  avg # of iterations =  1.5

     total cpu time spent up to now is       90.4 secs

     total energy              =   -6905.33740867 Ry
     estimated scf accuracy    <       0.00091020 Ry

     iteration #  6     ecut=    71.00 Ry     beta= 0.10
     Davidson diagonalization with overlap
     ethr =  3.56E-07,  avg # of iterations =  2.3

     total cpu time spent up to now is      105.2 secs

     total energy              =   -6905.33757413 Ry
     estimated scf accuracy    <       0.00008213 Ry

     iteration #  7     ecut=    71.00 Ry     beta= 0.10
     Davidson diagonalization with overlap
     ethr =  3.21E-08,  avg # of iterations =  2.2

     total cpu time spent up to now is      117.2 secs

     total energy              =   -6905.33757496 Ry
     estimated scf accuracy    <       0.00002240 Ry

     iteration #  8     ecut=    71.00 Ry     beta= 0.10
     Davidson diagonalization with overlap
     ethr =  8.75E-09,  avg # of iterations =  2.3

     total cpu time spent up to now is      132.8 secs

     total energy              =   -6905.33757663 Ry
     estimated scf accuracy    <       0.00001125 Ry

     iteration #  9     ecut=    71.00 Ry     beta= 0.10
     Davidson diagonalization with overlap
     ethr =  4.39E-09,  avg # of iterations =  1.0

     total cpu time spent up to now is      142.7 secs

     End of self-consistent calculation

          k = 0.0505 0.0505 0.0505 ( 20098 PWs)   bands (ev):

   -56.4578 -56.4137 -56.4137 -56.4136 -56.4070 -56.4070 -56.4070 -56.4062
   -56.4062 -56.4062 -56.4057 -56.4057 -56.4057 -56.4038 -56.4035 -56.3673
   -26.5654 -26.5654 -26.5654 -26.5634 -26.5634 -26.5634 -26.4671 -26.4671
   -26.4628 -26.4060 -26.4028 -26.4028 -26.4028 -26.3898 -26.3898 -26.3787
   -26.3787 -26.3787 -26.3566 -26.3566 -26.3402 -26.3364 -26.3364 -26.3364
   -26.3279 -26.3279 -26.3279 -26.3206 -26.3206 -26.3206 -26.3184 -26.3183
   -26.3183 -26.3119 -26.3119 -26.3119 -26.3039 -26.3039 -26.3039 -26.1920
   -26.1884 -26.1884 -26.1884 -26.1875 -26.1875 -26.1863 -26.1863 -26.1863
     9.9177  11.9636  11.9636  11.9636  11.9767  11.9767  11.9767  12.1111
    12.1111  12.6412  12.6412  12.6412  12.9071  12.9071  12.9071  13.1800
    13.1800  13.1800  13.1937  13.1937  13.1937  13.4041  13.5111  13.5111
    13.6989  13.6989  13.7237  13.7237  13.7237  13.7751  14.0534  14.0534
    14.0534  14.3129  14.3129  14.3576  14.7196  14.7196  14.7196  14.8171
    14.8171  14.8171  14.9121  14.9121  14.9121  15.0040  15.0040  15.0040
    15.6595  15.6595  15.6595  15.9187  15.9187  15.9187  16.0731  16.0731
    16.0731  16.0872  16.0872  16.0872  16.1481  16.1481  16.2021  16.2021
    16.2021  16.3996  16.3996  16.3996  16.4469  16.4469  16.4471  16.4471
    17.0831  17.0831  17.0831  17.1759  17.1759  17.1759  17.2383  17.3261
    17.3261  17.3304  17.3304  17.3304  17.6064  17.6064  17.6064  17.8706
    17.8706  17.8706

          k = 0.0505 0.0505 0.1515 ( 20053 PWs)   bands (ev):

   -56.4563 -56.4216 -56.4133 -56.4133 -56.4079 -56.4079 -56.4068 -56.4061
   -56.4058 -56.4058 -56.4057 -56.4057 -56.4039 -56.4036 -56.3981 -56.3685
   -26.5604 -26.5604 -26.5595 -26.5577 -26.5544 -26.5544 -26.4688 -26.4626
   -26.4558 -26.4304 -26.4247 -26.4247 -26.4230 -26.4225 -26.4015 -26.4015
   -26.3795 -26.3612 -26.3607 -26.3519 -26.3517 -26.3362 -26.3362 -26.3241
   -26.3241 -26.3230 -26.3230 -26.3215 -26.3166 -26.3166 -26.3152 -26.3122
   -26.3122 -26.3075 -26.3075 -26.2880 -26.2842 -26.2842 -26.2805 -26.2018
   -26.1948 -26.1948 -26.1937 -26.1919 -26.1916 -26.1893 -26.1885 -26.1885
    10.0214  11.9994  11.9994  12.0392  12.0392  12.0473  12.0593  12.1611
    12.1780  12.2534  12.6379  12.6379  12.8965  12.8965  13.0201  13.1758
    13.1888  13.2242  13.2242  13.2652  13.2652  13.2719  13.3711  13.4015
    13.4593  13.5776  13.7085  13.7085  13.9380  13.9440  13.9876  13.9876
    14.2913  14.3126  14.3436  14.4189  14.5091  14.5091  14.5641  14.6876
    14.6876  14.7218  14.9954  14.9954  15.1137  15.1137  15.1440  15.2458
    15.4105  15.7859  15.7859  15.9056  15.9056  15.9806  15.9806  16.0234
    16.0234  16.0734  16.0949  16.1049  16.1158  16.1601  16.1601  16.1777
    16.1811  16.2035  16.2035  16.4026  16.4239  16.4241  16.4443  16.4449
    16.5060  16.8175  16.8860  17.0474  17.0592  17.0592  17.1740  17.1934
    17.1934  17.3166  17.4803  17.4803  17.6652  17.6652  17.7474  17.7474
    18.1028  18.1028

          k = 0.0505 0.0505 0.2525 ( 20048 PWs)   bands (ev):

   -56.4532 -56.4294 -56.4127 -56.4127 -56.4088 -56.4088 -56.4064 -56.4057
   -56.4055 -56.4055 -56.4055 -56.4055 -56.4043 -56.4039 -56.3910 -56.3709
   -26.5487 -26.5487 -26.5479 -26.5464 -26.5388 -26.5388 -26.4682 -26.4579
   -26.4540 -26.4539 -26.4530 -26.4530 -26.4456 -26.4392 -26.4314 -26.4314
   -26.3840 -26.3748 -26.3702 -26.3586 -26.3350 -26.3350 -26.3306 -26.3274
   -26.3256 -26.3256 -26.3227 -26.3151 -26.3151 -26.3124 -26.3124 -26.2932
   -26.2881 -26.2828 -26.2828 -26.2653 -26.2609 -26.2609 -26.2583 -26.2178
   -26.2052 -26.2052 -26.2040 -26.2029 -26.1995 -26.1957 -26.1950 -26.1950
    10.2253  11.7991  12.0810  12.0810  12.1482  12.1482  12.2088  12.2178
    12.2601  12.3047  12.5942  12.5942  12.8187  12.8187  12.9899  13.1011
    13.1399  13.1704  13.1829  13.2622  13.2740  13.3248  13.3248  13.3926
    13.3926  13.4038  13.7851  13.7851  13.9943  13.9943  14.2183  14.2304
    14.2450  14.2450  14.2822  14.3147  14.3928  14.3928  14.4261  14.4458
    14.5094  14.8722  15.1781  15.2539  15.2539  15.2908  15.2908  15.3108
    15.3108  15.4189  15.5339  15.5416  15.5416  15.8329  15.9282  15.9306
    15.9306  15.9323  16.0587  16.0587  16.1361  16.1556  16.2270  16.2270
    16.2348  16.3806  16.3815  16.4081  16.4390  16.4392  16.4417  16.4750
    16.4750  16.5422  16.6874  16.7670  16.9061  17.0981  17.0981  17.2284
    17.2284  17.2325  17.4482  17.4482  17.5997  17.5997  17.7749  17.7749
    18.1851  18.1851

          k = 0.0505 0.0505 0.3535 ( 20069 PWs)   bands (ev):

   -56.4488 -56.4367 -56.4120 -56.4119 -56.4099 -56.4099 -56.4060 -56.4054
   -56.4054 -56.4053 -56.4053 -56.4053 -56.4048 -56.4043 -56.3846 -56.3744
   -26.5310 -26.5310 -26.5308 -26.5301 -26.5176 -26.5176 -26.4848 -26.4832
   -26.4817 -26.4817 -26.4654 -26.4623 -26.4623 -26.4515 -26.4412 -26.4322
   -26.4057 -26.3964 -26.3601 -26.3521 -26.3394 -26.3353 -26.3331 -26.3331
   -26.3283 -26.3283 -26.3140 -26.3140 -26.3128 -26.3128 -26.2934 -26.2649
   -26.2621 -26.2590 -26.2590 -26.2446 -26.2393 -26.2392 -26.2392 -26.2382
   -26.2197 -26.2197 -26.2193 -26.2191 -26.2112 -26.2063 -26.2058 -26.2058
    10.5215  11.3329  12.2008  12.2008  12.2977  12.2977  12.4067  12.4353
    12.4385  12.4771  12.4882  12.4882  12.6628  12.6628  12.8313  12.8575
    12.9521  12.9950  13.1697  13.1836  13.2132  13.2645  13.4784  13.4784
    13.5721  13.5721  13.9098  13.9098  13.9606  13.9606  14.1526  14.1526
    14.2444  14.2444  14.2879  14.3239  14.3635  14.3841  14.5615  14.5758
    14.6312  14.8332  14.8332  14.9680  15.0281  15.0281  15.1680  15.4045
    15.4242  15.4804  15.4804  15.5145  15.5145  15.7205  15.7342  15.8076
    15.8076  15.8603  15.9254  15.9254  16.1922  16.2023  16.3159  16.3224
    16.3251  16.4155  16.4320  16.4320  16.4395  16.4630  16.5387  16.5492
    16.5492  16.5714  16.6831  16.7888  16.7888  17.0300  17.0300  17.0906
    17.2808  17.2808  17.2978  17.2978  17.4567  17.4567  17.9173  17.9173
    18.1662  18.1662

          k = 0.0505 0.0505-0.4545 ( 20102 PWs)   bands (ev):

   -56.4433 -56.4433 -56.4110 -56.4110 -56.4110 -56.4110 -56.4054 -56.4054
   -56.4054 -56.4053 -56.4053 -56.4053 -56.4048 -56.4048 -56.3790 -56.3790
   -26.5093 -26.5093 -26.5091 -26.5090 -26.5082 -26.5082 -26.5082 -26.5082
   -26.4916 -26.4916 -26.4916 -26.4916 -26.4601 -26.4601 -26.4250 -26.4249
   -26.4156 -26.4156 -26.3496 -26.3496 -26.3439 -26.3439 -26.3308 -26.3308
   -26.3308 -26.3308 -26.3133 -26.3133 -26.3133 -26.3133 -26.2650 -26.2650
   -26.2400 -26.2400 -26.2389 -26.2389 -26.2377 -26.2377 -26.2377 -26.2377
   -26.2264 -26.2264 -26.2208 -26.2208 -26.2207 -26.2206 -26.2206 -26.2206
    10.8972  10.8973  12.3448  12.3448  12.3448  12.3448  12.4763  12.4763
    12.4763  12.4763  12.5983  12.5983  12.6722  12.6722  12.6973  12.6973
    12.7069  12.7069  13.1812  13.1812  13.2031  13.2031  13.6791  13.6791
    13.6791  13.6791  13.7946  13.7946  13.7946  13.7946  14.3129  14.3129
    14.3459  14.3459  14.4036  14.4036  14.4036  14.4036  14.5746  14.5747
    14.5747  14.5747  14.7847  14.7847  14.9647  14.9647  14.9710  14.9710
    15.4617  15.4617  15.6562  15.6562  15.6562  15.6562  15.7438  15.7438
    15.7438  15.7438  16.0784  16.0784  16.2127  16.2127  16.2569  16.2569
    16.2626  16.2627  16.4174  16.4174  16.4238  16.4238  16.4428  16.4428
    16.8324  16.8324  16.8324  16.8324  16.9038  16.9038  17.0702  17.0702
    17.0702  17.0702  17.3530  17.3530  17.3530  17.3530  18.0618  18.0618
    18.0618  18.0618

          k = 0.0505 0.1515 0.1515 ( 20037 PWs)   bands (ev):

   -56.4548 -56.4211 -56.4211 -56.4130 -56.4101 -56.4076 -56.4076 -56.4056
   -56.4056 -56.4056 -56.4043 -56.4039 -56.4036 -56.3983 -56.3983 -56.3697
   -26.5595 -26.5548 -26.5548 -26.5493 -26.5493 -26.5416 -26.4731 -26.4598
   -26.4461 -26.4451 -26.4437 -26.4437 -26.4379 -26.4326 -26.4161 -26.3865
   -26.3750 -26.3750 -26.3600 -26.3600 -26.3538 -26.3395 -26.3310 -26.3310
   -26.3296 -26.3270 -26.3270 -26.3196 -26.3196 -26.3145 -26.3113 -26.3105
   -26.2969 -26.2922 -26.2888 -26.2888 -26.2708 -26.2620 -26.2620 -26.2154
   -26.2050 -26.1990 -26.1990 -26.1949 -26.1937 -26.1937 -26.1875 -26.1864
    10.1233  12.0027  12.0832  12.0832  12.1195  12.1195  12.1226  12.2166
    12.2378  12.2716  12.2716  12.6499  12.9084  13.0165  13.0165  13.1514
    13.2181  13.2181  13.2407  13.2566  13.2566  13.2765  13.3632  13.4205
    13.4205  13.4945  13.6541  13.6587  13.8890  13.9645  13.9662  14.2031
    14.2031  14.2351  14.3035  14.3729  14.3729  14.4672  14.5204  14.6019
    14.9034  14.9034  14.9607  14.9607  15.0546  15.1627  15.2865  15.2865
    15.4270  15.6555  15.6555  15.7017  15.7017  15.9006  15.9258  15.9258
    15.9871  16.0406  16.0406  16.0601  16.0947  16.1425  16.1425  16.1556
    16.3079  16.3754  16.4081  16.4084  16.4143  16.4143  16.4347  16.4366
    16.4990  16.6599  16.6599  16.8000  16.8762  16.8762  17.0214  17.0214
    17.0616  17.2357  17.3478  17.5140  17.6070  17.7560  18.3101  18.3101
    18.3644  18.3644

          k = 0.0505 0.1515 0.2525 ( 20065 PWs)   bands (ev):

   -56.4518 -56.4286 -56.4200 -56.4125 -56.4123 -56.4086 -56.4072 -56.4055
   -56.4053 -56.4053 -56.4048 -56.4038 -56.4023 -56.3986 -56.3914 -56.3720
   -26.5519 -26.5438 -26.5436 -26.5394 -26.5348 -26.5225 -26.4764 -26.4699
   -26.4658 -26.4592 -26.4583 -26.4568 -26.4515 -26.4392 -26.4313 -26.4058
   -26.3829 -26.3796 -26.3574 -26.3541 -26.3519 -26.3462 -26.3405 -26.3363
   -26.3346 -26.3303 -26.3253 -26.3183 -26.3159 -26.3056 -26.3050 -26.2905
   -26.2865 -26.2757 -26.2726 -26.2667 -26.2532 -26.2415 -26.2408 -26.2349
   -26.2192 -26.2079 -26.2075 -26.2040 -26.2026 -26.1991 -26.1899 -26.1886
    10.3231  11.8423  12.0440  12.1633  12.2255  12.2441  12.2468  12.2722
    12.2823  12.3134  12.3636  12.6318  12.8632  12.9320  12.9902  13.0394
    13.1535  13.1554  13.2098  13.2457  13.3132  13.3134  13.3750  13.4055
    13.5162  13.5425  13.5510  13.6650  13.8317  14.0606  14.1375  14.1731
    14.1868  14.2276  14.2407  14.2993  14.3153  14.3310  14.4150  14.5918
    14.6509  15.0062  15.0703  15.1584  15.2431  15.2488  15.2585  15.3144
    15.3539  15.4149  15.4361  15.4945  15.5186  15.6311  15.6495  15.7816
    15.9478  15.9508  15.9764  16.0437  16.0835  16.1218  16.1285  16.1981
    16.3375  16.3637  16.3650  16.4303  16.4371  16.4850  16.4861  16.5139
    16.5581  16.6608  16.6645  16.7098  16.7173  16.7547  16.8040  16.8571
    17.0805  17.2759  17.3280  17.3300  17.5832  17.9258  18.1644  18.4941
    18.7195  18.9176

          k = 0.0505 0.1515 0.3535 ( 20066 PWs)   bands (ev):

   -56.4475 -56.4357 -56.4185 -56.4146 -56.4117 -56.4097 -56.4067 -56.4054
   -56.4053 -56.4052 -56.4049 -56.4041 -56.4010 -56.3992 -56.3852 -56.3753
   -26.5381 -26.5274 -26.5273 -26.5251 -26.5152 -26.4981 -26.4957 -26.4869
   -26.4832 -26.4828 -26.4771 -26.4686 -26.4655 -26.4390 -26.4381 -26.4151
   -26.4041 -26.3761 -26.3686 -26.3534 -26.3473 -26.3448 -26.3427 -26.3394
   -26.3338 -26.3326 -26.3175 -26.3166 -26.3162 -26.3002 -26.2929 -26.2805
   -26.2613 -26.2592 -26.2548 -26.2530 -26.2465 -26.2367 -26.2357 -26.2234
   -26.2218 -26.2200 -26.2198 -26.2190 -26.2140 -26.2081 -26.1969 -26.1954
    10.6124  11.3975  12.1133  12.2567  12.2796  12.3714  12.4053  12.4529
    12.4677  12.4794  12.5374  12.5477  12.7250  12.7725  12.8334  12.9037
    12.9351  12.9798  13.2072  13.2456  13.2807  13.3799  13.4391  13.4555
    13.5342  13.7194  13.7571  13.7823  13.8023  13.8283  14.1594  14.1855
    14.2733  14.2825  14.2834  14.3001  14.3271  14.3487  14.4313  14.4741
    14.5764  14.7933  14.8063  14.9429  15.1133  15.1772  15.1897  15.2088
    15.2913  15.4429  15.4548  15.5005  15.5025  15.5300  15.6622  15.7649
    15.8074  15.8290  15.9122  15.9722  16.1374  16.1480  16.1740  16.2804
    16.2988  16.3048  16.3050  16.4281  16.4405  16.4477  16.4797  16.5101
    16.5461  16.5487  16.6376  16.7193  16.7576  16.8324  16.8888  17.0131
    17.0185  17.0273  17.2367  17.4644  17.4880  17.9380  18.1481  18.5889
    18.7160  19.0151

          k = 0.0505 0.1515-0.4545 ( 20066 PWs)   bands (ev):

   -56.4421 -56.4421 -56.4167 -56.4167 -56.4107 -56.4107 -56.4060 -56.4060
   -56.4053 -56.4052 -56.4045 -56.4045 -56.4000 -56.4000 -56.3798 -56.3798
   -26.5189 -26.5189 -26.5072 -26.5072 -26.5068 -26.5068 -26.5066 -26.5066
   -26.4915 -26.4915 -26.4746 -26.4746 -26.4695 -26.4695 -26.4231 -26.4231
   -26.3966 -26.3966 -26.3566 -26.3566 -26.3484 -26.3484 -26.3404 -26.3404
   -26.3369 -26.3369 -26.3170 -26.3170 -26.2962 -26.2962 -26.2867 -26.2867
   -26.2573 -26.2573 -26.2384 -26.2384 -26.2358 -26.2358 -26.2352 -26.2352
   -26.2288 -26.2288 -26.2204 -26.2204 -26.2083 -26.2083 -26.2065 -26.2065
    10.9775  10.9775  12.1927  12.1927  12.4169  12.4169  12.5456  12.5456
    12.5866  12.5866  12.6313  12.6313  12.7076  12.7076  12.7285  12.7285
    12.7357  12.7357  13.2230  13.2230  13.2792  13.2792  13.6134  13.6134
    13.6286  13.6286  13.7023  13.7023  13.9508  13.9508  14.1575  14.1575
    14.1917  14.1917  14.3101  14.3101  14.4195  14.4195  14.5284  14.5284
    14.6582  14.6582  14.7962  14.7962  14.8192  14.8192  14.9863  14.9863
    15.5377  15.5378  15.5475  15.5475  15.6773  15.6773  15.7288  15.7288
    15.7776  15.7776  15.7864  15.7864  16.1361  16.1361  16.2235  16.2235
    16.2376  16.2377  16.3852  16.3852  16.4292  16.4292  16.4773  16.4773
    16.5820  16.5820  16.6868  16.6868  16.8358  16.8358  16.8976  16.8976
    17.0854  17.0854  17.2690  17.2690  17.7017  17.7017  18.3840  18.3840
    18.9165  18.9165

          k = 0.0505 0.2525 0.2525 ( 20083 PWs)   bands (ev):

   -56.4491 -56.4271 -56.4271 -56.4158 -56.4119 -56.4082 -56.4082 -56.4054
   -56.4053 -56.4051 -56.4051 -56.4039 -56.3995 -56.3922 -56.3922 -56.3741
   -26.5485 -26.5342 -26.5342 -26.5272 -26.5272 -26.5003 -26.4842 -26.4818
   -26.4818 -26.4768 -26.4709 -26.4681 -26.4535 -26.4436 -26.4139 -26.3804
   -26.3789 -26.3789 -26.3771 -26.3771 -26.3488 -26.3467 -26.3456 -26.3390
   -26.3390 -26.3288 -26.3288 -26.3240 -26.3240 -26.3196 -26.2957 -26.2709
   -26.2698 -26.2698 -26.2607 -26.2585 -26.2584 -26.2420 -26.2364 -26.2229
   -26.2229 -26.2132 -26.2132 -26.2098 -26.2073 -26.2073 -26.1874 -26.1865
    10.5141  11.9109  11.9109  12.0304  12.3194  12.3194  12.3698  12.3698
    12.3729  12.4031  12.4896  12.6657  12.8911  12.9222  12.9222  12.9594
    13.0570  13.2976  13.2976  13.3229  13.3229  13.3511  13.3511  13.3568
    13.4739  13.5702  13.5961  13.6933  13.7128  14.0061  14.0061  14.0929
    14.1018  14.1631  14.2775  14.2850  14.2850  14.2858  14.3640  14.6508
    14.8274  14.8332  14.8332  15.0892  15.0892  15.1948  15.1948  15.3215
    15.3215  15.3662  15.4135  15.4433  15.4772  15.4772  15.6438  15.7244
    15.7244  15.9379  15.9981  15.9981  16.0524  16.0524  16.0607  16.1446
    16.1720  16.3190  16.3199  16.3335  16.4281  16.4401  16.4598  16.5619
    16.5674  16.5674  16.5781  16.6194  16.6194  16.7880  16.7880  16.9429
    16.9429  16.9969  17.3888  17.5367  17.6126  18.1872  18.7775  18.7775
    19.3546  19.3546

          k = 0.0505 0.2525 0.3535 ( 20107 PWs)   bands (ev):

   -56.4450 -56.4338 -56.4250 -56.4192 -56.4111 -56.4092 -56.4076 -56.4061
   -56.4052 -56.4050 -56.4048 -56.4041 -56.3971 -56.3934 -56.3864 -56.3772
   -26.5389 -26.5205 -26.5205 -26.5164 -26.5108 -26.5043 -26.4898 -26.4895
   -26.4888 -26.4867 -26.4852 -26.4733 -26.4719 -26.4319 -26.4101 -26.3990
   -26.3947 -26.3735 -26.3730 -26.3566 -26.3517 -26.3503 -26.3475 -26.3466
   -26.3448 -26.3432 -26.3313 -26.3234 -26.3219 -26.3032 -26.2874 -26.2857
   -26.2743 -26.2565 -26.2523 -26.2509 -26.2458 -26.2444 -26.2306 -26.2214
   -26.2213 -26.2205 -26.2192 -26.2129 -26.2080 -26.2073 -26.1897 -26.1888
    10.7883  11.5144  11.9755  12.0268  12.4251  12.5048  12.5177  12.5236
    12.5295  12.5568  12.6375  12.6698  12.8088  12.8150  12.8153  12.8739
    12.9382  13.1024  13.2917  13.3433  13.4026  13.4233  13.4531  13.4805
    13.4980  13.5809  13.5876  13.6544  13.7854  13.9181  13.9756  14.0223
    14.2508  14.2524  14.2769  14.2774  14.2911  14.2991  14.3237  14.3694
    14.5047  14.6933  14.7616  14.8540  14.8678  14.9985  15.0255  15.1164
    15.4544  15.4612  15.4909  15.5370  15.5526  15.5702  15.5717  15.6814
    15.7869  15.8301  15.8811  15.9249  15.9563  16.0500  16.0719  16.1010
    16.2245  16.2474  16.2516  16.2604  16.3714  16.4342  16.4555  16.4604
    16.4850  16.5436  16.5550  16.5983  16.6064  16.6551  16.7055  16.7851
    17.1377  17.2058  17.3743  17.5547  17.8249  18.4754  18.5057  19.1268
    19.4094  19.6368

          k = 0.0505 0.2525-0.4545 ( 20088 PWs)   bands (ev):

   -56.4399 -56.4399 -56.4223 -56.4223 -56.4102 -56.4102 -56.4068 -56.4068
   -56.4051 -56.4050 -56.4044 -56.4044 -56.3950 -56.3950 -56.3814 -56.3814
   -26.5238 -26.5238 -26.5040 -26.5040 -26.5036 -26.5036 -26.5035 -26.5035
   -26.4918 -26.4918 -26.4911 -26.4911 -26.4427 -26.4427 -26.4169 -26.4169
   -26.3738 -26.3738 -26.3654 -26.3654 -26.3625 -26.3625 -26.3464 -26.3464
   -26.3387 -26.3387 -26.3229 -26.3229 -26.3156 -26.3156 -26.2802 -26.2802
   -26.2788 -26.2788 -26.2346 -26.2346 -26.2343 -26.2343 -26.2324 -26.2324
   -26.2317 -26.2317 -26.2207 -26.2207 -26.1968 -26.1968 -26.1959 -26.1959
    11.1296  11.1296  12.0141  12.0141  12.5429  12.5429  12.6637  12.6637
    12.6679  12.6679  12.6684  12.6684  12.7413  12.7414  12.7553  12.7553
    12.8815  12.8815  13.3192  13.3192  13.3860  13.3860  13.5600  13.5600
    13.5851  13.5851  13.5979  13.5979  13.9008  13.9008  13.9817  13.9817
    14.2012  14.2012  14.2803  14.2803  14.3934  14.3934  14.4151  14.4151
    14.5340  14.5340  14.5802  14.5802  14.6115  14.6115  15.2424  15.2424
    15.4380  15.4380  15.4724  15.4724  15.6604  15.6604  15.7352  15.7352
    15.7518  15.7518  15.7915  15.7915  15.9531  15.9531  16.1602  16.1602
    16.1735  16.1735  16.3269  16.3269  16.3564  16.3564  16.4497  16.4497
    16.4919  16.4920  16.5086  16.5086  16.5883  16.5883  16.7312  16.7312
    17.2865  17.2866  17.4158  17.4158  18.1503  18.1503  18.8330  18.8330
    19.8593  19.8593

          k = 0.0505 0.3535 0.3535 ( 20076 PWs)   bands (ev):

   -56.4413 -56.4311 -56.4311 -56.4236 -56.4104 -56.4085 -56.4085 -56.4069
   -56.4050 -56.4047 -56.4047 -56.4042 -56.3936 -56.3882 -56.3882 -56.3800
   -26.5335 -26.5112 -26.5112 -26.5074 -26.5074 -26.5052 -26.5052 -26.4993
   -26.4939 -26.4928 -26.4915 -26.4813 -26.4444 -26.4213 -26.3912 -26.3912
   -26.3794 -26.3794 -26.3726 -26.3723 -26.3696 -26.3546 -26.3546 -26.3537
   -26.3420 -26.3305 -26.3305 -26.3264 -26.3264 -26.3264 -26.3157 -26.2782
   -26.2757 -26.2573 -26.2573 -26.2410 -26.2370 -26.2359 -26.2300 -26.2259
   -26.2243 -26.2243 -26.2202 -26.2202 -26.1963 -26.1963 -26.1872 -26.1867
    11.0363  11.6597  11.6597  11.9276  12.6084  12.6084  12.6097  12.6244
    12.6635  12.6635  12.6966  12.7771  12.7771  12.8489  12.8496  12.8631
    12.8815  13.3407  13.3407  13.4069  13.4069  13.4492  13.4492  13.4693
    13.5151  13.5182  13.5368  13.5794  13.7859  13.7859  13.9090  13.9528
    14.1653  14.1663  14.1955  14.2583  14.2679  14.2714  14.3289  14.3289
    14.5179  14.5179  14.5335  14.5335  14.7272  14.7747  14.7747  15.2648
    15.4281  15.4688  15.5549  15.5549  15.6663  15.6663  15.6776  15.6921
    15.7860  15.7860  15.8564  15.9294  15.9655  15.9655  15.9840  15.9840
    15.9961  16.1675  16.1696  16.1989  16.2842  16.3823  16.3823  16.4029
    16.4492  16.4846  16.5164  16.5164  16.5405  16.6247  16.6247  16.6256
    17.3511  17.3511  17.4440  17.5671  18.2212  18.9122  19.0343  19.0343
    19.6973  19.6973

          k = 0.0505 0.3535-0.4545 ( 20068 PWs)   bands (ev):

   -56.4366 -56.4366 -56.4276 -56.4276 -56.4095 -56.4095 -56.4077 -56.4077
   -56.4048 -56.4048 -56.4045 -56.4045 -56.3906 -56.3906 -56.3837 -56.3837
   -26.5227 -26.5227 -26.5055 -26.5055 -26.5014 -26.5014 -26.5009 -26.5009
   -26.4992 -26.4992 -26.4929 -26.4929 -26.4125 -26.4125 -26.4075 -26.4075
   -26.3813 -26.3813 -26.3652 -26.3652 -26.3561 -26.3561 -26.3497 -26.3497
   -26.3474 -26.3474 -26.3371 -26.3371 -26.3293 -26.3293 -26.3016 -26.3016
   -26.2656 -26.2656 -26.2424 -26.2424 -26.2298 -26.2298 -26.2296 -26.2296
   -26.2292 -26.2292 -26.2223 -26.2223 -26.1894 -26.1894 -26.1892 -26.1892
    11.3360  11.3360  11.8044  11.8044  12.6787  12.6787  12.7012  12.7012
    12.7134  12.7134  12.7763  12.7763  12.7787  12.7787  12.7895  12.7895
    13.0947  13.0948  13.4339  13.4339  13.4795  13.4795  13.5102  13.5102
    13.5155  13.5155  13.6308  13.6308  13.6321  13.6321  13.8283  13.8283
    14.2643  14.2643  14.2844  14.2844  14.2851  14.2851  14.3182  14.3182
    14.3582  14.3582  14.4532  14.4532  14.4755  14.4755  15.0855  15.0855
    15.4757  15.4757  15.5179  15.5179  15.7456  15.7457  15.7871  15.7871
    15.8336  15.8336  15.8339  15.8339  15.8347  15.8347  16.0678  16.0679
    16.0736  16.0736  16.0947  16.0947  16.2609  16.2609  16.3095  16.3096
    16.4737  16.4737  16.5327  16.5327  16.5331  16.5331  16.6226  16.6226
    17.4345  17.4345  17.4984  17.4984  18.6331  18.6331  19.3212  19.3212
    19.5916  19.5916

          k = 0.0505-0.4545-0.4545 ( 20088 PWs)   bands (ev):

   -56.4325 -56.4325 -56.4325 -56.4325 -56.4087 -56.4086 -56.4086 -56.4086
   -56.4046 -56.4046 -56.4046 -56.4046 -56.3868 -56.3868 -56.3868 -56.3868
   -26.5164 -26.5164 -26.5164 -26.5164 -26.5001 -26.5001 -26.5001 -26.5000
   -26.4955 -26.4955 -26.4955 -26.4955 -26.3955 -26.3955 -26.3955 -26.3955
   -26.3803 -26.3803 -26.3803 -26.3803 -26.3630 -26.3630 -26.3630 -26.3630
   -26.3342 -26.3342 -26.3342 -26.3342 -26.3255 -26.3255 -26.3255 -26.3255
   -26.2529 -26.2529 -26.2529 -26.2529 -26.2284 -26.2284 -26.2284 -26.2284
   -26.2254 -26.2254 -26.2254 -26.2254 -26.1870 -26.1870 -26.1869 -26.1869
    11.5708  11.5708  11.5708  11.5708  12.7211  12.7211  12.7211  12.7211
    12.7626  12.7626  12.7626  12.7626  12.8201  12.8201  12.8201  12.8201
    13.3533  13.3533  13.3533  13.3533  13.4998  13.4998  13.4998  13.4998
    13.5047  13.5047  13.5047  13.5047  13.7091  13.7091  13.7091  13.7091
    14.1799  14.1799  14.1799  14.1799  14.2688  14.2688  14.2688  14.2688
    14.3496  14.3497  14.3497  14.3497  14.7527  14.7527  14.7527  14.7527
    15.5727  15.5727  15.5727  15.5727  15.8002  15.8002  15.8002  15.8002
    15.8611  15.8611  15.8611  15.8611  15.9526  15.9527  15.9527  15.9527
    15.9534  15.9534  15.9534  15.9534  16.2371  16.2372  16.2372  16.2372
    16.4994  16.4994  16.4994  16.4994  16.5636  16.5636  16.5636  16.5636
    17.5065  17.5065  17.5065  17.5065  19.1198  19.1198  19.1198  19.1198
    19.8083  19.8083

          k = 0.1515 0.1515 0.1515 ( 20041 PWs)   bands (ev):

   -56.4533 -56.4205 -56.4205 -56.4205 -56.4098 -56.4098 -56.4098 -56.4050
   -56.4038 -56.4038 -56.4038 -56.4033 -56.3984 -56.3984 -56.3984 -56.3708
   -26.5537 -26.5537 -26.5537 -26.5375 -26.5375 -26.5375 -26.4685 -26.4685
   -26.4598 -26.4553 -26.4553 -26.4553 -26.4318 -26.4188 -26.4188 -26.3906
   -26.3906 -26.3906 -26.3644 -26.3644 -26.3644 -26.3348 -26.3348 -26.3348
   -26.3219 -26.3219 -26.3142 -26.3142 -26.3142 -26.3128 -26.3128 -26.3128
   -26.2901 -26.2901 -26.2901 -26.2804 -26.2508 -26.2508 -26.2508 -26.2294
   -26.2077 -26.2077 -26.2077 -26.1919 -26.1919 -26.1919 -26.1916 -26.1916
    10.2236  12.0892  12.0892  12.0892  12.1994  12.1994  12.1994  12.2843
    12.2843  12.3000  12.3000  12.3000  13.0460  13.0489  13.0489  13.0489
    13.2340  13.2340  13.2340  13.3477  13.3477  13.3477  13.3728  13.3728
    13.3945  13.3945  13.3945  13.8664  13.8664  13.9259  14.0611  14.0611
    14.0611  14.2289  14.2289  14.3300  14.3300  14.3300  14.6356  14.7396
    14.7396  14.7396  15.0589  15.0589  15.0589  15.3554  15.3554  15.3554
    15.3564  15.3564  15.3564  15.8715  15.8715  15.8715  15.8895  15.8895
    15.8895  15.9387  15.9387  15.9387  16.0940  16.0940  16.1671  16.1671
    16.1671  16.3784  16.3784  16.3784  16.4082  16.4082  16.4120  16.4120
    16.5076  16.5235  16.5235  16.5235  16.8790  16.8790  16.8790  17.1967
    17.1967  17.2302  17.2302  17.2302  18.0322  18.0322  18.0322  18.4421
    18.4421  18.4421

          k = 0.1515 0.1515 0.2525 ( 20055 PWs)   bands (ev):

   -56.4504 -56.4279 -56.4195 -56.4195 -56.4120 -56.4120 -56.4093 -56.4058
   -56.4037 -56.4031 -56.4023 -56.4023 -56.3988 -56.3988 -56.3917 -56.3730
   -26.5464 -26.5464 -26.5422 -26.5295 -26.5198 -26.5198 -26.4752 -26.4744
   -26.4742 -26.4742 -26.4680 -26.4596 -26.4498 -26.4160 -26.4151 -26.4151
   -26.4041 -26.3882 -26.3650 -26.3650 -26.3624 -26.3445 -26.3427 -26.3427
   -26.3364 -26.3277 -26.3170 -26.3068 -26.3068 -26.2932 -26.2932 -26.2919
   -26.2919 -26.2915 -26.2670 -26.2632 -26.2500 -26.2355 -26.2355 -26.2328
   -26.2197 -26.2197 -26.2132 -26.2027 -26.1998 -26.1937 -26.1937 -26.1917
    10.4200  11.8923  12.1319  12.1319  12.2562  12.3208  12.3208  12.3294
    12.3294  12.3433  12.3762  12.4124  12.9590  13.0011  13.0011  13.0570
    13.1370  13.2241  13.2903  13.3001  13.3037  13.3037  13.3272  13.4692
    13.4692  13.4860  13.4860  13.6925  13.9351  13.9351  14.0138  14.1147
    14.1501  14.1595  14.2132  14.2184  14.2198  14.2198  14.5122  14.5122
    14.7898  14.9175  14.9573  14.9573  15.1822  15.2055  15.2761  15.2761
    15.4359  15.4359  15.4513  15.4513  15.4780  15.6119  15.6342  15.8309
    15.8309  15.9748  16.0082  16.0678  16.0678  16.1253  16.1568  16.1568
    16.1585  16.1654  16.3607  16.3612  16.3838  16.4067  16.4252  16.4450
    16.4450  16.6470  16.7040  16.7040  16.7386  16.8910  16.8964  16.8964
    16.9317  17.2456  17.2891  17.2891  17.7296  17.7296  18.6577  18.6715
    18.6715  19.2706

          k = 0.1515 0.1515 0.3535 ( 20089 PWs)   bands (ev):

   -56.4463 -56.4348 -56.4181 -56.4181 -56.4142 -56.4142 -56.4085 -56.4067
   -56.4035 -56.4032 -56.4011 -56.4010 -56.3993 -56.3993 -56.3858 -56.3763
   -26.5335 -26.5335 -26.5254 -26.5183 -26.4973 -26.4973 -26.4955 -26.4955
   -26.4896 -26.4791 -26.4785 -26.4760 -26.4466 -26.4430 -26.4430 -26.4104
   -26.3981 -26.3884 -26.3620 -26.3620 -26.3581 -26.3575 -26.3502 -26.3502
   -26.3328 -26.3288 -26.3220 -26.3019 -26.3019 -26.2945 -26.2945 -26.2751
   -26.2720 -26.2720 -26.2636 -26.2472 -26.2458 -26.2346 -26.2346 -26.2218
   -26.2207 -26.2207 -26.2187 -26.2173 -26.2117 -26.1992 -26.1992 -26.1962
    10.7036  11.4660  12.1996  12.1996  12.3235  12.3235  12.4777  12.4777
    12.4904  12.5115  12.5317  12.5853  12.8464  12.8464  12.8645  12.8978
    12.9509  13.0609  13.2168  13.2417  13.3231  13.4233  13.4233  13.5023
    13.6565  13.6565  13.6714  13.6714  13.7714  13.7714  14.1152  14.1365
    14.1830  14.2069  14.2690  14.2730  14.2730  14.2923  14.2923  14.3954
    14.5584  14.5584  14.9512  14.9512  14.9695  14.9748  15.0266  15.1615
    15.3811  15.3965  15.5225  15.5225  15.5240  15.5240  15.7221  15.7221
    15.8060  15.8087  15.9168  15.9411  15.9411  16.0978  16.1700  16.2477
    16.2859  16.2997  16.3906  16.4005  16.4005  16.4031  16.4578  16.4851
    16.5067  16.5067  16.6031  16.6604  16.9085  16.9085  16.9372  16.9699
    16.9699  17.2089  17.2334  17.2334  17.4356  17.4356  18.9456  18.9456
    19.3093  19.3693

          k = 0.1515 0.1515-0.4545 ( 20064 PWs)   bands (ev):

   -56.4410 -56.4410 -56.4163 -56.4163 -56.4163 -56.4163 -56.4076 -56.4076
   -56.4033 -56.4033 -56.4001 -56.4000 -56.4000 -56.4000 -56.3806 -56.3805
   -26.5160 -26.5160 -26.5160 -26.5160 -26.5046 -26.5046 -26.5040 -26.5040
   -26.4795 -26.4795 -26.4711 -26.4711 -26.4711 -26.4711 -26.4300 -26.4300
   -26.3788 -26.3788 -26.3726 -26.3726 -26.3568 -26.3568 -26.3568 -26.3568
   -26.3264 -26.3264 -26.3032 -26.3032 -26.2977 -26.2977 -26.2977 -26.2977
   -26.2522 -26.2522 -26.2522 -26.2522 -26.2391 -26.2391 -26.2332 -26.2332
   -26.2272 -26.2272 -26.2084 -26.2084 -26.2084 -26.2084 -26.2048 -26.2048
    11.0596  11.0596  12.2729  12.2729  12.2729  12.2729  12.6592  12.6592
    12.6592  12.6592  12.6870  12.6870  12.7220  12.7220  12.7703  12.7703
    12.7773  12.7773  13.2199  13.2199  13.3703  13.3703  13.5853  13.5853
    13.5853  13.5853  13.7911  13.7911  13.7911  13.7911  14.1051  14.1051
    14.1963  14.1963  14.2571  14.2571  14.2571  14.2571  14.5364  14.5364
    14.5364  14.5364  14.6169  14.6169  14.6919  14.6919  15.1726  15.1726
    15.4656  15.4656  15.6009  15.6010  15.6181  15.6181  15.6181  15.6181
    15.7549  15.7549  15.7549  15.7549  16.1946  16.1947  16.2327  16.2327
    16.2544  16.2544  16.3566  16.3566  16.3974  16.3974  16.5107  16.5107
    16.5107  16.5107  16.5271  16.5271  17.0963  17.0963  17.0963  17.0963
    17.1002  17.1002  17.1616  17.1616  17.1616  17.1616  19.2032  19.2032
    19.2032  19.2032

          k = 0.1515 0.2525 0.2525 ( 20081 PWs)   bands (ev):

   -56.4477 -56.4264 -56.4264 -56.4185 -56.4154 -56.4114 -56.4114 -56.4069
   -56.4027 -56.4023 -56.4023 -56.3996 -56.3991 -56.3925 -56.3925 -56.3750
   -26.5428 -26.5356 -26.5356 -26.5147 -26.5147 -26.4993 -26.4842 -26.4842
   -26.4832 -26.4827 -26.4795 -26.4569 -26.4565 -26.4315 -26.4118 -26.3977
   -26.3885 -26.3885 -26.3876 -26.3876 -26.3714 -26.3548 -26.3543 -26.3543
   -26.3178 -26.3146 -26.3146 -26.3101 -26.3101 -26.2965 -26.2942 -26.2803
   -26.2768 -26.2725 -26.2693 -26.2693 -26.2509 -26.2344 -26.2276 -26.2214
   -26.2214 -26.2202 -26.2202 -26.2047 -26.2037 -26.2037 -26.1918 -26.1917
    10.6090  11.9734  11.9734  12.1228  12.3007  12.3007  12.3959  12.4459
    12.4567  12.4567  12.4736  12.5290  12.9070  13.0107  13.0107  13.0666
    13.1974  13.2789  13.2789  13.2890  13.2890  13.3461  13.3852  13.3985
    13.4434  13.4434  13.6404  13.7484  13.8179  13.9205  13.9633  13.9633
    14.0793  14.0934  14.1388  14.1581  14.1581  14.1778  14.3876  14.6168
    14.6399  14.6399  14.8520  14.8520  14.9792  15.0939  15.0939  15.1778
    15.3750  15.3750  15.4019  15.5455  15.6285  15.6285  15.7198  15.8066
    15.9203  15.9203  15.9376  15.9376  15.9763  16.0346  16.0697  16.0697
    16.1300  16.3269  16.3323  16.3357  16.3553  16.3919  16.4061  16.4061
    16.4233  16.6162  16.6162  16.7220  16.8002  16.8948  16.8948  16.9709
    16.9709  17.0171  17.2385  17.3680  17.3735  18.2943  18.2944  18.9662
    19.5446  19.5446

          k = 0.1515 0.2525 0.3535 ( 20091 PWs)   bands (ev):

   -56.4438 -56.4329 -56.4243 -56.4187 -56.4171 -56.4135 -56.4105 -56.4082
   -56.4024 -56.4022 -56.4011 -56.3995 -56.3972 -56.3937 -56.3869 -56.3781
   -26.5336 -26.5246 -26.5199 -26.5077 -26.5025 -26.4961 -26.4959 -26.4912
   -26.4891 -26.4858 -26.4776 -26.4743 -26.4522 -26.4455 -26.4166 -26.4102
   -26.4014 -26.3839 -26.3781 -26.3730 -26.3693 -26.3661 -26.3631 -26.3582
   -26.3361 -26.3172 -26.3135 -26.3045 -26.2991 -26.2969 -26.2924 -26.2874
   -26.2737 -26.2602 -26.2585 -26.2517 -26.2487 -26.2401 -26.2321 -26.2252
   -26.2193 -26.2182 -26.2158 -26.2084 -26.2077 -26.2068 -26.1937 -26.1933
    10.8797  11.5904  12.0531  12.1206  12.3632  12.4351  12.5353  12.5926
    12.5953  12.6076  12.6254  12.7047  12.8598  12.8930  12.8989  12.9659
    13.0519  13.0998  13.2777  13.3309  13.4002  13.4222  13.4391  13.5043
    13.5285  13.5669  13.6102  13.6982  13.7583  13.8192  13.9537  14.0036
    14.0518  14.1343  14.1386  14.1558  14.2246  14.2588  14.2675  14.2682
    14.3705  14.5040  14.6719  14.6878  14.7032  14.7769  14.8397  15.1952
    15.4476  15.5299  15.5887  15.5909  15.6072  15.6401  15.6474  15.6874
    15.8296  15.8685  15.8866  15.9485  15.9521  16.0336  16.1183  16.1958
    16.2417  16.2568  16.2620  16.3526  16.3908  16.3951  16.4377  16.4498
    16.4581  16.4658  16.5109  16.5957  16.7233  16.7909  16.9584  17.0347
    17.0621  17.0829  17.2430  17.2622  17.3534  17.9393  18.8888  19.3092
    19.8592  19.8873

          k = 0.1515 0.2525-0.4545 ( 20078 PWs)   bands (ev):

   -56.4388 -56.4388 -56.4217 -56.4217 -56.4154 -56.4154 -56.4094 -56.4094
   -56.4023 -56.4022 -56.4002 -56.4002 -56.3953 -56.3952 -56.3821 -56.3821
   -26.5196 -26.5196 -26.5107 -26.5107 -26.5001 -26.5001 -26.4997 -26.4997
   -26.4894 -26.4894 -26.4744 -26.4744 -26.4461 -26.4461 -26.4295 -26.4295
   -26.3857 -26.3857 -26.3761 -26.3761 -26.3697 -26.3697 -26.3574 -26.3574
   -26.3282 -26.3282 -26.3162 -26.3162 -26.3002 -26.3002 -26.2798 -26.2797
   -26.2712 -26.2712 -26.2450 -26.2450 -26.2369 -26.2369 -26.2314 -26.2314
   -26.2307 -26.2306 -26.2121 -26.2121 -26.1993 -26.1993 -26.1986 -26.1986
    11.2151  11.2151  12.1033  12.1033  12.4188  12.4188  12.7428  12.7429
    12.7474  12.7474  12.7739  12.7739  12.7854  12.7854  12.8063  12.8063
    12.9053  12.9053  13.2838  13.2838  13.4707  13.4708  13.5461  13.5461
    13.5789  13.5789  13.6181  13.6181  13.8126  13.8126  13.9606  13.9606
    14.1414  14.1414  14.1480  14.1480  14.2701  14.2701  14.3248  14.3248
    14.3425  14.3425  14.4346  14.4346  14.4793  14.4793  15.1163  15.1163
    15.4317  15.4317  15.6029  15.6029  15.7080  15.7081  15.7396  15.7396
    15.7838  15.7838  15.7921  15.7921  16.1517  16.1517  16.1877  16.1877
    16.1904  16.1904  16.3045  16.3045  16.3823  16.3823  16.3919  16.3920
    16.4755  16.4755  16.5598  16.5598  16.7311  16.7311  16.8846  16.8846
    17.1838  17.1838  17.2483  17.2483  17.5884  17.5884  19.4842  19.4842
    19.6390  19.6390

          k = 0.1515 0.3535 0.3535 ( 20087 PWs)   bands (ev):

   -56.4402 -56.4303 -56.4303 -56.4230 -56.4158 -56.4124 -56.4124 -56.4097
   -56.4018 -56.4012 -56.4012 -56.3999 -56.3939 -56.3887 -56.3887 -56.3808
   -26.5281 -26.5122 -26.5122 -26.5041 -26.5041 -26.4987 -26.4943 -26.4943
   -26.4943 -26.4921 -26.4846 -26.4649 -26.4474 -26.4362 -26.4041 -26.4041
   -26.4023 -26.3875 -26.3875 -26.3809 -26.3808 -26.3784 -26.3784 -26.3568
   -26.3272 -26.3136 -26.3136 -26.3123 -26.3074 -26.3074 -26.2998 -26.2746
   -26.2709 -26.2549 -26.2549 -26.2484 -26.2463 -26.2346 -26.2307 -26.2307
   -26.2253 -26.2182 -26.2179 -26.2179 -26.1992 -26.1992 -26.1918 -26.1918
    11.1276  11.7455  11.7455  12.0250  12.5436  12.5812  12.5812  12.6866
    12.7038  12.7559  12.7559  12.8623  12.8623  12.8710  12.8918  12.9698
    13.0186  13.3366  13.3366  13.3859  13.3859  13.4229  13.4331  13.5030
    13.5054  13.5054  13.6190  13.6306  13.7666  13.7666  13.8908  13.9345
    13.9462  14.0217  14.0243  14.1338  14.1681  14.1681  14.1999  14.2220
    14.3567  14.3567  14.4049  14.4049  14.5130  14.5333  14.5333  15.0962
    15.4487  15.6182  15.6997  15.6997  15.7175  15.7743  15.7747  15.7747
    15.8937  15.9411  15.9615  15.9615  16.0048  16.0048  16.0122  16.0122
    16.1758  16.1879  16.1942  16.2756  16.2829  16.3759  16.3759  16.3960
    16.4236  16.4236  16.4674  16.4968  16.6824  16.7249  16.7325  16.7325
    17.2157  17.2157  17.2925  17.3857  17.6442  18.4742  18.4742  19.5446
    19.7227  20.4639

          k = 0.1515 0.3535-0.4545 ( 20100 PWs)   bands (ev):

   -56.4356 -56.4356 -56.4269 -56.4269 -56.4142 -56.4142 -56.4111 -56.4111
   -56.4015 -56.4014 -56.4005 -56.4004 -56.3910 -56.3910 -56.3843 -56.3843
   -26.5178 -26.5178 -26.5044 -26.5044 -26.5011 -26.5011 -26.4978 -26.4978
   -26.4930 -26.4930 -26.4795 -26.4795 -26.4219 -26.4219 -26.4179 -26.4179
   -26.3939 -26.3939 -26.3928 -26.3928 -26.3827 -26.3827 -26.3572 -26.3572
   -26.3352 -26.3352 -26.3098 -26.3098 -26.3030 -26.3030 -26.2916 -26.2916
   -26.2636 -26.2636 -26.2386 -26.2386 -26.2384 -26.2384 -26.2316 -26.2316
   -26.2314 -26.2314 -26.2177 -26.2177 -26.1937 -26.1937 -26.1936 -26.1936
    11.4260  11.4260  11.8988  11.8988  12.5951  12.5951  12.7823  12.7823
    12.7969  12.7969  12.8066  12.8066  12.8535  12.8535  12.9073  12.9073
    13.1137  13.1137  13.4023  13.4023  13.5029  13.5029  13.5213  13.5213
    13.5324  13.5324  13.6134  13.6134  13.6275  13.6275  13.8095  13.8095
    14.0758  14.0758  14.0955  14.0955  14.1356  14.1357  14.2347  14.2347
    14.2583  14.2583  14.2816  14.2816  14.2909  14.2909  14.7825  14.7825
    15.6685  15.6685  15.7168  15.7168  15.8262  15.8262  15.8529  15.8530
    15.8699  15.8699  15.8784  15.8784  16.0099  16.0100  16.0910  16.0910
    16.0979  16.0980  16.2457  16.2457  16.2753  16.2753  16.3718  16.3718
    16.4077  16.4077  16.4518  16.4518  16.5799  16.5799  16.7175  16.7175
    17.2883  17.2883  17.3350  17.3350  18.0571  18.0571  19.0138  19.0138
    20.1274  20.1274

          k = 0.1515-0.4545-0.4545 ( 20096 PWs)   bands (ev):

   -56.4316 -56.4316 -56.4316 -56.4316 -56.4128 -56.4128 -56.4128 -56.4128
   -56.4009 -56.4008 -56.4008 -56.4008 -56.3873 -56.3873 -56.3873 -56.3873
   -26.5113 -26.5113 -26.5112 -26.5112 -26.4993 -26.4993 -26.4993 -26.4993
   -26.4860 -26.4860 -26.4860 -26.4860 -26.4095 -26.4095 -26.4095 -26.4095
   -26.3916 -26.3916 -26.3916 -26.3916 -26.3877 -26.3877 -26.3877 -26.3877
   -26.3131 -26.3131 -26.3131 -26.3131 -26.3061 -26.3061 -26.3061 -26.3061
   -26.2497 -26.2497 -26.2497 -26.2497 -26.2337 -26.2337 -26.2337 -26.2337
   -26.2246 -26.2246 -26.2246 -26.2246 -26.1917 -26.1917 -26.1917 -26.1917
    11.6647  11.6648  11.6648  11.6648  12.7402  12.7402  12.7402  12.7402
    12.8049  12.8050  12.8050  12.8050  12.9257  12.9257  12.9257  12.9257
    13.3669  13.3670  13.3670  13.3670  13.5008  13.5008  13.5008  13.5008
    13.5080  13.5080  13.5080  13.5080  13.6908  13.6908  13.6908  13.6908
    13.9649  13.9649  13.9649  13.9649  14.1824  14.1824  14.1824  14.1824
    14.2058  14.2058  14.2058  14.2058  14.4888  14.4888  14.4888  14.4888
    15.8151  15.8151  15.8151  15.8151  15.8803  15.8803  15.8803  15.8803
    15.9839  15.9839  15.9839  15.9839  16.0014  16.0014  16.0014  16.0014
    16.0316  16.0317  16.0317  16.0317  16.2278  16.2278  16.2278  16.2278
    16.4297  16.4297  16.4297  16.4297  16.6201  16.6201  16.6201  16.6201
    17.3474  17.3474  17.3474  17.3474  18.5374  18.5374  18.5374  18.5374
    20.6127  20.6127

          k = 0.2525 0.2525 0.2525 ( 20099 PWs)   bands (ev):

   -56.4452 -56.4250 -56.4250 -56.4250 -56.4146 -56.4146 -56.4146 -56.4086
   -56.4017 -56.3997 -56.3997 -56.3997 -56.3932 -56.3932 -56.3932 -56.3770
   -26.5317 -26.5317 -26.5317 -26.4974 -26.4974 -26.4974 -26.4901 -26.4901
   -26.4901 -26.4869 -26.4703 -26.4703 -26.4419 -26.4419 -26.4059 -26.4059
   -26.4059 -26.3962 -26.3962 -26.3962 -26.3783 -26.3690 -26.3690 -26.3690
   -26.2976 -26.2976 -26.2976 -26.2962 -26.2962 -26.2962 -26.2945 -26.2883
   -26.2883 -26.2702 -26.2702 -26.2702 -26.2427 -26.2321 -26.2321 -26.2321
   -26.2157 -26.2157 -26.2157 -26.2024 -26.2024 -26.2024 -26.2002 -26.2002
    10.7935  12.0797  12.0797  12.0797  12.3019  12.3019  12.3019  12.5786
    12.5786  12.5786  12.6065  12.6065  12.8911  13.1568  13.1568  13.1568
    13.2134  13.2134  13.2134  13.3283  13.3283  13.3283  13.3291  13.3291
    13.5629  13.5629  13.5629  13.7068  13.8899  13.8899  13.8899  13.9233
    13.9233  14.0050  14.0050  14.0050  14.0542  14.0542  14.4123  14.4123
    14.4123  14.5454  14.5454  14.5454  14.8008  14.8008  14.8008  15.1955
    15.4366  15.5032  15.5032  15.5032  15.7523  15.7523  15.7523  15.8495
    15.8495  15.8495  16.0486  16.0486  16.0577  16.0577  16.0577  16.2157
    16.2157  16.2157  16.3348  16.3348  16.3391  16.3391  16.3391  16.3711
    16.3711  16.6359  16.6359  16.6359  16.8722  16.8722  16.8722  16.9780
    16.9780  17.0667  17.0667  17.0667  17.8759  17.8759  17.8759  19.8605
    19.8605  19.8605

          k = 0.2525 0.2525 0.3535 ( 20077 PWs)   bands (ev):

   -56.4414 -56.4312 -56.4231 -56.4231 -56.4177 -56.4177 -56.4134 -56.4103
   -56.4009 -56.4000 -56.3975 -56.3975 -56.3943 -56.3943 -56.3880 -56.3798
   -26.5233 -26.5233 -26.5154 -26.5000 -26.4999 -26.4950 -26.4918 -26.4899
   -26.4812 -26.4762 -26.4762 -26.4697 -26.4568 -26.4285 -26.4285 -26.4247
   -26.4191 -26.3974 -26.3974 -26.3868 -26.3820 -26.3820 -26.3779 -26.3578
   -26.3206 -26.3164 -26.2982 -26.2940 -26.2872 -26.2872 -26.2776 -26.2776
   -26.2733 -26.2733 -26.2613 -26.2481 -26.2452 -26.2452 -26.2362 -26.2311
   -26.2177 -26.2126 -26.2104 -26.2104 -26.2066 -26.2032 -26.2032 -26.1987
    11.0560  11.7300  12.1929  12.1929  12.3018  12.3018  12.5554  12.7193
    12.7283  12.7283  12.7361  12.7836  12.8891  13.0306  13.0500  13.0500
    13.1186  13.1781  13.3021  13.3096  13.4163  13.4163  13.4225  13.4226
    13.5108  13.6793  13.6793  13.7141  13.7227  13.7227  13.7807  13.9235
    13.9415  13.9581  14.0112  14.0112  14.0213  14.1075  14.2110  14.2110
    14.2355  14.2355  14.4166  14.4334  14.4526  14.4526  14.5297  15.0785
    15.4426  15.6426  15.6707  15.6707  15.7941  15.7941  15.8061  15.8061
    15.9331  15.9812  15.9812  15.9865  16.0025  16.0197  16.1131  16.1467
    16.2628  16.2795  16.3405  16.3420  16.3443  16.3443  16.3763  16.3763
    16.4068  16.4503  16.6602  16.7930  16.7987  16.7987  16.9229  16.9229
    16.9977  17.0679  17.0728  17.0728  17.4908  17.4908  18.4254  19.5327
    20.2233  20.2233

          k = 0.2525 0.2525-0.4545 ( 20072 PWs)   bands (ev):

   -56.4367 -56.4367 -56.4206 -56.4206 -56.4206 -56.4205 -56.4120 -56.4120
   -56.4003 -56.4003 -56.3957 -56.3957 -56.3957 -56.3957 -56.3835 -56.3835
   -26.5119 -26.5119 -26.5119 -26.5119 -26.4945 -26.4945 -26.4925 -26.4925
   -26.4886 -26.4886 -26.4527 -26.4527 -26.4527 -26.4527 -26.4396 -26.4396
   -26.4058 -26.4058 -26.3920 -26.3920 -26.3920 -26.3920 -26.3490 -26.3490
   -26.3371 -26.3371 -26.2972 -26.2972 -26.2790 -26.2790 -26.2790 -26.2790
   -26.2604 -26.2604 -26.2604 -26.2604 -26.2376 -26.2376 -26.2323 -26.2323
   -26.2288 -26.2288 -26.2060 -26.2060 -26.2060 -26.2060 -26.2009 -26.2009
    11.3774  11.3774  12.2718  12.2718  12.2718  12.2718  12.8526  12.8526
    12.8618  12.8618  12.8629  12.8629  12.8921  12.8922  12.8922  12.8922
    12.9722  12.9722  13.2981  13.2981  13.5508  13.5508  13.5508  13.5508
    13.5523  13.5523  13.6541  13.6541  13.6542  13.6542  13.9098  13.9098
    13.9836  13.9836  14.0661  14.0661  14.0923  14.0923  14.0923  14.0924
    14.1686  14.1686  14.1686  14.1686  14.2835  14.2835  14.7636  14.7636
    15.7110  15.7110  15.7929  15.7929  15.7946  15.7946  15.7946  15.7946
    15.8408  15.8408  15.8408  15.8408  16.1525  16.1525  16.1853  16.1853
    16.2634  16.2634  16.3300  16.3300  16.3429  16.3429  16.3778  16.3779
    16.3779  16.3779  16.5867  16.5867  17.0106  17.0106  17.0107  17.0107
    17.0702  17.0702  17.1236  17.1236  17.1236  17.1236  18.9824  18.9824
    20.5465  20.5465

          k = 0.2525 0.3535 0.3535 ( 20086 PWs)   bands (ev):

   -56.4380 -56.4287 -56.4286 -56.4218 -56.4212 -56.4163 -56.4163 -56.4125
   -56.3997 -56.3980 -56.3980 -56.3952 -56.3944 -56.3896 -56.3896 -56.3823
   -26.5174 -26.5085 -26.5085 -26.4990 -26.4986 -26.4986 -26.4867 -26.4847
   -26.4792 -26.4792 -26.4733 -26.4540 -26.4530 -26.4442 -26.4312 -26.4199
   -26.4199 -26.4069 -26.4020 -26.4020 -26.4006 -26.4006 -26.3989 -26.3464
   -26.3370 -26.2966 -26.2966 -26.2863 -26.2863 -26.2841 -26.2744 -26.2722
   -26.2630 -26.2604 -26.2522 -26.2519 -26.2519 -26.2394 -26.2394 -26.2346
   -26.2190 -26.2170 -26.2170 -26.2130 -26.2045 -26.2045 -26.2019 -26.2007
    11.3031  11.9065  11.9065  12.2146  12.3589  12.5558  12.5558  12.8320
    12.8517  12.8838  12.8838  12.9428  12.9473  13.0255  13.0255  13.1061
    13.1941  13.3215  13.3215  13.3352  13.3943  13.3943  13.4000  13.4763
    13.5694  13.5694  13.6131  13.6756  13.7064  13.7394  13.7394  13.8171
    13.8418  13.8576  13.9304  13.9435  13.9435  13.9618  14.0227  14.0878
    14.1140  14.1140  14.1736  14.1736  14.2072  14.2460  14.2460  14.7290
    15.7244  15.7794  15.7794  15.7930  15.8363  15.9286  15.9651  15.9858
    15.9895  15.9895  16.0085  16.0085  16.0468  16.0468  16.1300  16.2127
    16.2640  16.2684  16.2685  16.2791  16.3241  16.3380  16.3380  16.3875
    16.4215  16.4215  16.4704  16.5378  16.8059  16.8059  16.8146  17.0185
    17.0185  17.0353  17.0938  17.1115  17.1621  17.9919  17.9919  19.0184
    20.6425  21.2240

          k = 0.2525 0.3535-0.4545 ( 20096 PWs)   bands (ev):

   -56.4337 -56.4337 -56.4255 -56.4255 -56.4189 -56.4189 -56.4145 -56.4145
   -56.3987 -56.3987 -56.3964 -56.3964 -56.3918 -56.3918 -56.3856 -56.3856
   -26.5083 -26.5083 -26.5020 -26.5020 -26.4929 -26.4929 -26.4905 -26.4905
   -26.4829 -26.4829 -26.4617 -26.4617 -26.4394 -26.4394 -26.4278 -26.4278
   -26.4186 -26.4186 -26.4123 -26.4123 -26.4081 -26.4081 -26.3741 -26.3741
   -26.3164 -26.3164 -26.2846 -26.2846 -26.2784 -26.2784 -26.2777 -26.2777
   -26.2602 -26.2602 -26.2501 -26.2501 -26.2356 -26.2356 -26.2342 -26.2342
   -26.2334 -26.2334 -26.2154 -26.2154 -26.2026 -26.2026 -26.2014 -26.2014
    11.5977  11.5978  12.0802  12.0803  12.4943  12.4943  12.8513  12.8513
    12.9358  12.9358  12.9564  12.9564  12.9682  12.9682  13.0552  13.0552
    13.1504  13.1504  13.3892  13.3892  13.5015  13.5015  13.5315  13.5315
    13.5812  13.5812  13.5841  13.5841  13.6066  13.6066  13.7768  13.7768
    13.8064  13.8064  13.8948  13.8948  13.9362  13.9362  14.0105  14.0105
    14.0277  14.0277  14.0438  14.0438  14.0891  14.0891  14.4343  14.4343
    15.8900  15.8900  15.9099  15.9099  15.9177  15.9177  15.9282  15.9282
    15.9807  15.9807  16.0271  16.0271  16.1296  16.1296  16.1538  16.1538
    16.2174  16.2174  16.2712  16.2712  16.2804  16.2804  16.3305  16.3306
    16.3639  16.3639  16.5968  16.5968  16.7247  16.7247  16.7915  16.7915
    17.0550  17.0550  17.0812  17.0812  17.5706  17.5706  18.5054  18.5054
    21.0388  21.0388

          k = 0.2525-0.4545-0.4545 ( 20100 PWs)   bands (ev):

   -56.4299 -56.4299 -56.4299 -56.4299 -56.4169 -56.4169 -56.4169 -56.4169
   -56.3975 -56.3974 -56.3974 -56.3974 -56.3884 -56.3884 -56.3884 -56.3883
   -26.5010 -26.5010 -26.5010 -26.5010 -26.4932 -26.4932 -26.4932 -26.4932
   -26.4722 -26.4722 -26.4722 -26.4722 -26.4289 -26.4289 -26.4289 -26.4289
   -26.4190 -26.4190 -26.4190 -26.4190 -26.4010 -26.4010 -26.4010 -26.4010
   -26.2965 -26.2965 -26.2965 -26.2965 -26.2793 -26.2793 -26.2793 -26.2793
   -26.2446 -26.2446 -26.2446 -26.2446 -26.2416 -26.2416 -26.2416 -26.2416
   -26.2259 -26.2259 -26.2259 -26.2259 -26.2013 -26.2013 -26.2013 -26.2013
    11.8453  11.8453  11.8453  11.8453  12.7161  12.7161  12.7161  12.7161
    12.9665  12.9665  12.9665  12.9665  13.0827  13.0827  13.0827  13.0827
    13.3920  13.3920  13.3920  13.3920  13.5027  13.5027  13.5027  13.5027
    13.5130  13.5130  13.5130  13.5130  13.6578  13.6578  13.6578  13.6578
    13.7090  13.7090  13.7090  13.7090  13.9508  13.9508  13.9508  13.9508
    14.0176  14.0176  14.0176  14.0176  14.1626  14.1626  14.1626  14.1626
    15.9449  15.9449  15.9449  15.9449  16.0324  16.0324  16.0324  16.0324
    16.0946  16.0946  16.0946  16.0946  16.1092  16.1093  16.1093  16.1093
    16.2083  16.2083  16.2083  16.2083  16.3454  16.3454  16.3454  16.3454
    16.3655  16.3655  16.3655  16.3655  16.6475  16.6475  16.6475  16.6475
    17.0878  17.0878  17.0878  17.0878  18.0357  18.0357  18.0357  18.0357
    21.5258  21.5258

          k = 0.3535 0.3535 0.3535 ( 20108 PWs)   bands (ev):

   -56.4349 -56.4263 -56.4263 -56.4263 -56.4200 -56.4200 -56.4200 -56.4152
   -56.3979 -56.3953 -56.3953 -56.3953 -56.3910 -56.3910 -56.3910 -56.3845
   -26.5018 -26.5018 -26.5018 -26.4940 -26.4940 -26.4940 -26.4789 -26.4706
   -26.4706 -26.4608 -26.4608 -26.4608 -26.4580 -26.4580 -26.4310 -26.4310
   -26.4310 -26.4205 -26.4205 -26.4205 -26.4193 -26.4193 -26.4193 -26.3699
   -26.3169 -26.2795 -26.2795 -26.2795 -26.2686 -26.2686 -26.2686 -26.2582
   -26.2582 -26.2512 -26.2512 -26.2512 -26.2505 -26.2505 -26.2505 -26.2372
   -26.2166 -26.2166 -26.2166 -26.2139 -26.2139 -26.2107 -26.2107 -26.2107
    11.5472  12.1173  12.1173  12.1173  12.4850  12.4850  12.4850  13.0260
    13.0260  13.0329  13.0329  13.0329  13.0484  13.1444  13.2284  13.2284
    13.2284  13.3034  13.3034  13.3034  13.3993  13.3993  13.4448  13.4448
    13.4448  13.6328  13.6328  13.6328  13.7204  13.7204  13.7204  13.7323
    13.7323  13.7323  13.7876  13.7876  13.8145  13.8145  13.8916  13.8916
    13.8916  13.9010  13.9010  13.9010  13.9921  13.9921  13.9921  14.3839
    15.8855  15.8855  15.8855  16.0400  16.0569  16.0569  16.0569  16.0590
    16.0590  16.0590  16.0632  16.0632  16.1498  16.1498  16.1498  16.2371
    16.2371  16.2710  16.2710  16.2710  16.2891  16.2891  16.2891  16.3900
    16.3900  16.7303  16.7303  16.7488  16.7488  16.7488  16.8268  16.8268
    16.8268  16.8612  16.8612  16.8612  17.5562  17.5562  17.5562  18.5221
    21.6518  21.6518

          k = 0.3535 0.3535-0.4545 ( 20088 PWs)   bands (ev):

   -56.4309 -56.4309 -56.4234 -56.4234 -56.4234 -56.4234 -56.4178 -56.4178
   -56.3964 -56.3964 -56.3929 -56.3929 -56.3929 -56.3929 -56.3875 -56.3874
   -26.4952 -26.4952 -26.4952 -26.4952 -26.4843 -26.4843 -26.4817 -26.4817
   -26.4699 -26.4699 -26.4525 -26.4525 -26.4407 -26.4407 -26.4407 -26.4407
   -26.4395 -26.4395 -26.4310 -26.4310 -26.4310 -26.4310 -26.3952 -26.3952
   -26.2976 -26.2976 -26.2639 -26.2639 -26.2639 -26.2639 -26.2638 -26.2638
   -26.2563 -26.2563 -26.2563 -26.2563 -26.2425 -26.2425 -26.2355 -26.2355
   -26.2308 -26.2308 -26.2150 -26.2150 -26.2150 -26.2150 -26.2109 -26.2109
    11.8323  11.8323  12.3306  12.3307  12.3307  12.3307  12.8158  12.8158
    13.1222  13.1222  13.1263  13.1263  13.1712  13.1712  13.1712  13.1712
    13.2217  13.2217  13.4165  13.4165  13.5304  13.5305  13.5305  13.5305
    13.5539  13.5539  13.5539  13.5539  13.5997  13.5997  13.6045  13.6045
    13.7282  13.7282  13.7633  13.7634  13.7634  13.7634  13.7673  13.7673
    13.8205  13.8205  13.8205  13.8205  13.8539  13.8539  14.1057  14.1057
    15.9793  15.9793  15.9932  15.9932  15.9932  15.9932  16.1431  16.1431
    16.1431  16.1431  16.1442  16.1442  16.1764  16.1764  16.2503  16.2503
    16.2571  16.2571  16.2639  16.2639  16.2639  16.2639  16.3802  16.3802
    16.4243  16.4243  16.5791  16.5791  16.8170  16.8170  16.8170  16.8170
    16.8380  16.8380  17.1438  17.1438  17.1438  17.1438  18.0361  18.0361
    22.0203  22.0203

          k = 0.3535-0.4545-0.4545 ( 20096 PWs)   bands (ev):

   -56.4274 -56.4274 -56.4274 -56.4274 -56.4208 -56.4208 -56.4208 -56.4207
   -56.3945 -56.3945 -56.3945 -56.3944 -56.3899 -56.3899 -56.3899 -56.3899
   -26.4862 -26.4862 -26.4862 -26.4862 -26.4823 -26.4823 -26.4823 -26.4823
   -26.4553 -26.4553 -26.4553 -26.4553 -26.4489 -26.4489 -26.4489 -26.4488
   -26.4445 -26.4445 -26.4445 -26.4445 -26.4180 -26.4180 -26.4180 -26.4180
   -26.2799 -26.2799 -26.2799 -26.2799 -26.2547 -26.2547 -26.2547 -26.2547
   -26.2520 -26.2520 -26.2520 -26.2520 -26.2387 -26.2387 -26.2387 -26.2387
   -26.2287 -26.2287 -26.2287 -26.2287 -26.2152 -26.2152 -26.2152 -26.2152
    12.0945  12.0945  12.0945  12.0945  12.6087  12.6087  12.6087  12.6088
    13.1930  13.1930  13.1930  13.1930  13.2899  13.2899  13.2899  13.2899
    13.4242  13.4242  13.4242  13.4242  13.4854  13.4854  13.4854  13.4854
    13.5382  13.5382  13.5382  13.5382  13.5496  13.5496  13.5496  13.5496
    13.6165  13.6165  13.6165  13.6165  13.7306  13.7306  13.7306  13.7306
    13.7554  13.7554  13.7554  13.7554  13.8415  13.8415  13.8415  13.8415
    16.0325  16.0325  16.0325  16.0326  16.0861  16.0861  16.0861  16.0861
    16.1777  16.1778  16.1778  16.1778  16.2447  16.2448  16.2448  16.2448
    16.2823  16.2823  16.2823  16.2823  16.3375  16.3375  16.3375  16.3376
    16.6185  16.6185  16.6185  16.6185  16.7512  16.7512  16.7512  16.7512
    16.7945  16.7945  16.7945  16.7945  17.5844  17.5844  17.5844  17.5844
    22.5277  22.5277

          k =-0.4545-0.4545-0.4545 ( 19952 PWs)   bands (ev):

   -56.4243 -56.4243 -56.4243 -56.4243 -56.4243 -56.4243 -56.4243 -56.4243
   -56.3920 -56.3920 -56.3920 -56.3919 -56.3919 -56.3919 -56.3919 -56.3919
   -26.4672 -26.4672 -26.4672 -26.4672 -26.4672 -26.4672 -26.4672 -26.4672
   -26.4671 -26.4671 -26.4671 -26.4671 -26.4671 -26.4671 -26.4671 -26.4671
   -26.4366 -26.4366 -26.4366 -26.4366 -26.4366 -26.4366 -26.4366 -26.4366
   -26.2649 -26.2649 -26.2649 -26.2649 -26.2649 -26.2649 -26.2649 -26.2649
   -26.2330 -26.2330 -26.2330 -26.2330 -26.2330 -26.2330 -26.2330 -26.2330
   -26.2330 -26.2330 -26.2330 -26.2330 -26.2330 -26.2330 -26.2330 -26.2330
    12.3747  12.3748  12.3748  12.3748  12.3748  12.3748  12.3748  12.3748
    13.4574  13.4574  13.4575  13.4575  13.4575  13.4575  13.4575  13.4575
    13.4575  13.4575  13.4575  13.4575  13.4575  13.4575  13.4575  13.4575
    13.5549  13.5549  13.5549  13.5549  13.5549  13.5550  13.5550  13.5550
    13.5743  13.5743  13.5743  13.5743  13.5743  13.5743  13.5743  13.5743
    13.5744  13.5744  13.5744  13.5744  13.5744  13.5744  13.5744  13.5744
    16.1362  16.1362  16.1362  16.1362  16.1362  16.1362  16.1362  16.1362
    16.1363  16.1363  16.1363  16.1363  16.1363  16.1363  16.1363  16.1363
    16.5161  16.5161  16.5161  16.5161  16.5161  16.5161  16.5161  16.5161
    16.5161  16.5161  16.5161  16.5161  16.5161  16.5161  16.5161  16.5161
    17.1596  17.1596  17.1596  17.1596  17.1596  17.1596  17.1596  17.1596
    23.5475  23.5475

     the Fermi energy is    16.2114 ev

!    total energy              =   -6905.33757892 Ry

     total all-electron energy =   -144993.532749 Ry
     estimated scf accuracy    <       0.00000071 Ry
     smearing contrib. (-TS)   =      -0.11362300 Ry
     internal energy E=F+TS    =   -6905.22395593 Ry

     The total energy is F=E-TS. E is the sum of the following terms:
     one-electron contribution =    -852.35779857 Ry
     hartree contribution      =     573.05235345 Ry
     xc contribution           =    -460.03108114 Ry
     ewald contribution        =   -2371.30983025 Ry
     one-center paw contrib.   =   -3794.57759942 Ry

     convergence has been achieved in   9 iterations

     Forces acting on atoms (cartesian axes, Ry/au):

     atom    1 type  1   force =     0.00000000    0.00000000    0.00000000
     atom    2 type  1   force =    -0.00001918   -0.00001918   -0.00001918
     atom    3 type  1   force =     0.00000000    0.00000000    0.00000000
     atom    4 type  1   force =    -0.00001918   -0.00001918    0.00001918
     atom    5 type  1   force =     0.00000000    0.00000000    0.00000000
     atom    6 type  1   force =    -0.00001918    0.00001918   -0.00001918
     atom    7 type  1   force =     0.00000000    0.00000000    0.00000000
     atom    8 type  1   force =    -0.00001918    0.00001918    0.00001918
     atom    9 type  1   force =     0.00000000    0.00000000    0.00000000
     atom   10 type  1   force =     0.00001918   -0.00001918   -0.00001918
     atom   11 type  1   force =     0.00000000    0.00000000    0.00000000
     atom   12 type  1   force =     0.00001918   -0.00001918    0.00001918
     atom   13 type  1   force =     0.00000000    0.00000000    0.00000000
     atom   14 type  1   force =     0.00001918    0.00001918   -0.00001918
     atom   15 type  1   force =     0.00000000    0.00000000    0.00000000
     atom   16 type  1   force =     0.00001918    0.00001918    0.00001918

     Total force =     0.000094     Total SCF correction =     0.000185
     SCF correction compared to forces is large: reduce conv_thr to get better values


     Computing stress (Cartesian axis) and pressure

          total   stress  (Ry/bohr**3)                   (kbar)     P=     -376.19
  -0.00255731   0.00000000   0.00000000         -376.19        0.00        0.00
   0.00000000  -0.00255731   0.00000000            0.00     -376.19        0.00
   0.00000000   0.00000000  -0.00255731            0.00        0.00     -376.19


     Writing output data file /scratch/noHBYOTUYcQaCdpC.save/
 
     init_run     :      4.58s CPU      4.71s WALL (       1 calls)
     electrons    :    131.63s CPU    135.12s WALL (       1 calls)
     forces       :      1.15s CPU      1.19s WALL (       1 calls)
     stress       :      3.17s CPU      3.21s WALL (       1 calls)

     Called by init_run:
     wfcinit      :      3.80s CPU      3.86s WALL (       1 calls)
     potinit      :      0.39s CPU      0.40s WALL (       1 calls)
     hinit0       :      0.09s CPU      0.10s WALL (       1 calls)

     Called by electrons:
     c_bands      :    117.40s CPU    120.46s WALL (      10 calls)
     sum_band     :     13.06s CPU     13.35s WALL (      10 calls)
     v_of_rho     :      0.26s CPU      0.27s WALL (      10 calls)
     newd         :      0.20s CPU      0.25s WALL (      10 calls)
     PAW_pot      :      0.69s CPU      0.74s WALL (      10 calls)
     mix_rho      :      0.04s CPU      0.05s WALL (      10 calls)

     Called by c_bands:
     init_us_2    :      0.42s CPU      0.44s WALL (     805 calls)
     cegterg      :    115.57s CPU    118.57s WALL (     350 calls)

     Called by *egterg:
     cdiaghg      :     16.76s CPU     16.97s WALL (    1179 calls)
     h_psi        :     71.17s CPU     73.05s WALL (    1249 calls)
     s_psi        :      2.01s CPU      2.03s WALL (    1249 calls)
     g_psi        :      0.08s CPU      0.08s WALL (     864 calls)

     Called by h_psi:
     h_psi:calbec :      5.14s CPU      5.21s WALL (    1249 calls)
     vloc_psi     :     63.63s CPU     65.41s WALL (    1249 calls)
     add_vuspsi   :      2.20s CPU      2.23s WALL (    1249 calls)

     General routines
     calbec       :      8.16s CPU      8.26s WALL (    1774 calls)
     fft          :      0.30s CPU      0.32s WALL (     154 calls)
     ffts         :      0.03s CPU      0.03s WALL (      20 calls)
     fftw         :     72.69s CPU     74.60s WALL (  318936 calls)
     interpolate  :      0.05s CPU      0.05s WALL (      10 calls)
 
     Parallel routines
     fft_scatt_xy :      2.43s CPU      2.48s WALL (  319110 calls)
     fft_scatt_yz :     65.92s CPU     67.75s WALL (  319110 calls)
 
     PWSCF        :   2m26.32s CPU   2m30.94s WALL

 
   This run was terminated on:  23:46:39  25Nov2021            

=------------------------------------------------------------------------------=
   JOB DONE.
=------------------------------------------------------------------------------=
