
     Program PWSCF v.6.7MaX starts on 26Nov2021 at  0: 7:27 

     This program is part of the open-source Quantum ESPRESSO suite
     for quantum simulation of materials; please cite
         "P. Giannozzi et al., J. Phys.:Condens. Matter 21 395502 (2009);
         "P. Giannozzi et al., J. Phys.:Condens. Matter 29 465901 (2017);
          URL http://www.quantum-espresso.org", 
     in publications or presentations arising from this work. More details at
     http://www.quantum-espresso.org/quote

     Parallel version (MPI & OpenMP), running on      72 processor cores
     Number of MPI processes:                72
     Threads/MPI process:                     1

     MPI processes distributed on     1 nodes
     R & G space division:  proc/nbgrp/npool/nimage =      72
     Reading input from bcc_7.in
Warning: card &CELL ignored
Warning: card CELL_DYNAMICS = 'BFGS', ignored
Warning: card CELL_FACTOR = 2.0, ignored
Warning: card PRESS = 0.0, ignored
Warning: card / ignored

     Current dimensions of program PWSCF are:
     Max number of different atomic species (ntypx) = 10
     Max number of k-points (npk) =  40000
     Max angular momentum in pseudopotentials (lmaxx) =  3
     file Ru.pbe-spn-kjpaw_psl.1.0.0.UPF: wavefunction(s)  4D renormalized

     Subspace diagonalization in iterative solution of the eigenvalue problem:
     one sub-group per band group will be used
     ELPA distributed-memory algorithm (size of sub-group:  8*  8 procs)

     Found symmetry operation: I + (  0.2500  0.2500  0.2500)
     This is a supercell, fractional translations are disabled
     Message from routine setup:
     using ibrav=0 with symmetry is DISCOURAGED, use correct ibrav instead
 
     Parallelization info
     --------------------
     sticks:   dense  smooth     PW     G-vecs:    dense   smooth      PW
     Min         158     105     28                12786     6857     950
     Max         159     106     29                12795     6863     955
     Sum       11441    7573   2025               921081   493959   68507
 


     bravais-lattice index     =            0
     lattice parameter (alat)  =      11.4293  a.u.
     unit-cell volume          =    6115.2831 (a.u.)^3
     number of atoms/cell      =           16
     number of atomic types    =            1
     number of electrons       =       256.00
     number of Kohn-Sham states=          154
     kinetic-energy cutoff     =      71.0000  Ry
     charge density cutoff     =     430.0000  Ry
     scf convergence threshold =      1.0E-06
     mixing beta               =       0.1000
     number of iterations used =           10  TF        mixing
     Exchange-correlation= SLA  PW   PBX  PBC
                           (   1   4   3   4   0   0   0)

     celldm(1)=  11.429280  celldm(2)=   0.000000  celldm(3)=   0.000000
     celldm(4)=   0.000000  celldm(5)=   0.000000  celldm(6)=   0.000000

     crystal axes: (cart. coord. in units of alat)
               a(1) = (   1.600000   0.000000   0.000000 )  
               a(2) = (   0.000000   1.600000   0.000000 )  
               a(3) = (   0.000000   0.000000   1.600000 )  

     reciprocal axes: (cart. coord. in units 2 pi/alat)
               b(1) = (  0.625000  0.000000  0.000000 )  
               b(2) = (  0.000000  0.625000  0.000000 )  
               b(3) = (  0.000000  0.000000  0.625000 )  


     PseudoPot. # 1 for Ru read from file:
     /rds/homes/b/bxp912/pp/Ru.pbe-spn-kjpaw_psl.1.0.0.UPF
     MD5 check sum: 0ae1f594dea09af7be8575c3a481d1ae
     Pseudo is Projector augmented-wave + core cor, Zval = 16.0
     Generated using "atomic" code by A. Dal Corso  v.5.1
     Shape of augmentation charge: PSQ
     Using radial grid of 1233 points,  6 beta functions with: 
                l(1) =   0
                l(2) =   0
                l(3) =   1
                l(4) =   1
                l(5) =   2
                l(6) =   2
     Q(r) pseudized with 0 coefficients 


     atomic species   valence    mass     pseudopotential
        Ru            16.00   101.07000     Ru( 1.00)

     48 Sym. Ops., with inversion, found



   Cartesian axes

     site n.     atom                  positions (alat units)
         1           Ru  tau(   1) = (   0.0000000   0.0000000   0.0000000  )
         2           Ru  tau(   2) = (   0.4000000   0.4000000   0.4000000  )
         3           Ru  tau(   3) = (   0.0000000   0.0000000   0.8000000  )
         4           Ru  tau(   4) = (   0.4000000   0.4000000   1.2000000  )
         5           Ru  tau(   5) = (   0.0000000   0.8000000   0.0000000  )
         6           Ru  tau(   6) = (   0.4000000   1.2000000   0.4000000  )
         7           Ru  tau(   7) = (   0.0000000   0.8000000   0.8000000  )
         8           Ru  tau(   8) = (   0.4000000   1.2000000   1.2000000  )
         9           Ru  tau(   9) = (   0.8000000   0.0000000   0.0000000  )
        10           Ru  tau(  10) = (   1.2000000   0.4000000   0.4000000  )
        11           Ru  tau(  11) = (   0.8000000   0.0000000   0.8000000  )
        12           Ru  tau(  12) = (   1.2000000   0.4000000   1.2000000  )
        13           Ru  tau(  13) = (   0.8000000   0.8000000   0.0000000  )
        14           Ru  tau(  14) = (   1.2000000   1.2000000   0.4000000  )
        15           Ru  tau(  15) = (   0.8000000   0.8000000   0.8000000  )
        16           Ru  tau(  16) = (   1.2000000   1.2000000   1.2000000  )

     number of k points=    35  Marzari-Vanderbilt smearing, width (Ry)=  0.0400
                       cart. coord. in units 2pi/alat
        k(    1) = (   0.0347222   0.0347222   0.0347222), wk =   0.0219479
        k(    2) = (   0.0347222   0.0347222   0.1041667), wk =   0.0658436
        k(    3) = (   0.0347222   0.0347222   0.1736111), wk =   0.0658436
        k(    4) = (   0.0347222   0.0347222   0.2430556), wk =   0.0658436
        k(    5) = (   0.0347222   0.0347222  -0.3125000), wk =   0.0329218
        k(    6) = (   0.0347222   0.1041667   0.1041667), wk =   0.0658436
        k(    7) = (   0.0347222   0.1041667   0.1736111), wk =   0.1316872
        k(    8) = (   0.0347222   0.1041667   0.2430556), wk =   0.1316872
        k(    9) = (   0.0347222   0.1041667  -0.3125000), wk =   0.0658436
        k(   10) = (   0.0347222   0.1736111   0.1736111), wk =   0.0658436
        k(   11) = (   0.0347222   0.1736111   0.2430556), wk =   0.1316872
        k(   12) = (   0.0347222   0.1736111  -0.3125000), wk =   0.0658436
        k(   13) = (   0.0347222   0.2430556   0.2430556), wk =   0.0658436
        k(   14) = (   0.0347222   0.2430556  -0.3125000), wk =   0.0658436
        k(   15) = (   0.0347222  -0.3125000  -0.3125000), wk =   0.0164609
        k(   16) = (   0.1041667   0.1041667   0.1041667), wk =   0.0219479
        k(   17) = (   0.1041667   0.1041667   0.1736111), wk =   0.0658436
        k(   18) = (   0.1041667   0.1041667   0.2430556), wk =   0.0658436
        k(   19) = (   0.1041667   0.1041667  -0.3125000), wk =   0.0329218
        k(   20) = (   0.1041667   0.1736111   0.1736111), wk =   0.0658436
        k(   21) = (   0.1041667   0.1736111   0.2430556), wk =   0.1316872
        k(   22) = (   0.1041667   0.1736111  -0.3125000), wk =   0.0658436
        k(   23) = (   0.1041667   0.2430556   0.2430556), wk =   0.0658436
        k(   24) = (   0.1041667   0.2430556  -0.3125000), wk =   0.0658436
        k(   25) = (   0.1041667  -0.3125000  -0.3125000), wk =   0.0164609
        k(   26) = (   0.1736111   0.1736111   0.1736111), wk =   0.0219479
        k(   27) = (   0.1736111   0.1736111   0.2430556), wk =   0.0658436
        k(   28) = (   0.1736111   0.1736111  -0.3125000), wk =   0.0329218
        k(   29) = (   0.1736111   0.2430556   0.2430556), wk =   0.0658436
        k(   30) = (   0.1736111   0.2430556  -0.3125000), wk =   0.0658436
        k(   31) = (   0.1736111  -0.3125000  -0.3125000), wk =   0.0164609
        k(   32) = (   0.2430556   0.2430556   0.2430556), wk =   0.0219479
        k(   33) = (   0.2430556   0.2430556  -0.3125000), wk =   0.0329218
        k(   34) = (   0.2430556  -0.3125000  -0.3125000), wk =   0.0164609
        k(   35) = (  -0.3125000  -0.3125000  -0.3125000), wk =   0.0027435

     Dense  grid:   921081 G-vectors     FFT dimensions: ( 125, 125, 125)

     Smooth grid:   493959 G-vectors     FFT dimensions: ( 100, 100, 100)

     Estimated max dynamical RAM per process >     131.67 MB

     Estimated total dynamical RAM >       9.26 GB

     Check: negative core charge=   -0.000001

     Initial potential from superposition of free atoms

     starting charge  255.98980, renormalised to  256.00000
     Starting wfcs are  160 randomized atomic wfcs
     Checking if some PAW data can be deallocated... 

     total cpu time spent up to now is       11.6 secs

     Self-consistent Calculation

     iteration #  1     ecut=    71.00 Ry     beta= 0.10
     Davidson diagonalization with overlap
     ethr =  1.00E-02,  avg # of iterations =  2.0

     total cpu time spent up to now is       35.4 secs

     total energy              =   -6899.46065205 Ry
     estimated scf accuracy    <       6.80006089 Ry

     iteration #  2     ecut=    71.00 Ry     beta= 0.10
     Davidson diagonalization with overlap
     ethr =  2.66E-03,  avg # of iterations =  1.0

     total cpu time spent up to now is       51.3 secs

     total energy              =   -6898.60362633 Ry
     estimated scf accuracy    <       4.01277454 Ry

     iteration #  3     ecut=    71.00 Ry     beta= 0.10
     Davidson diagonalization with overlap
     ethr =  1.57E-03,  avg # of iterations =  2.0

     total cpu time spent up to now is       70.7 secs

     total energy              =   -6898.79635744 Ry
     estimated scf accuracy    <       5.71911346 Ry

     iteration #  4     ecut=    71.00 Ry     beta= 0.10
     Davidson diagonalization with overlap
     ethr =  1.57E-03,  avg # of iterations =  1.0

     total cpu time spent up to now is       86.7 secs

     total energy              =   -6898.89335257 Ry
     estimated scf accuracy    <       0.23593849 Ry

     iteration #  5     ecut=    71.00 Ry     beta= 0.10
     Davidson diagonalization with overlap
     ethr =  9.22E-05,  avg # of iterations =  4.6

     total cpu time spent up to now is      115.5 secs

     total energy              =   -6898.88655960 Ry
     estimated scf accuracy    <       0.07549307 Ry

     iteration #  6     ecut=    71.00 Ry     beta= 0.10
     Davidson diagonalization with overlap
     ethr =  2.95E-05,  avg # of iterations =  2.2

     total cpu time spent up to now is      142.6 secs

     total energy              =   -6898.88005924 Ry
     estimated scf accuracy    <       0.57197970 Ry

     iteration #  7     ecut=    71.00 Ry     beta= 0.10
     Davidson diagonalization with overlap
     ethr =  2.95E-05,  avg # of iterations =  2.0

     total cpu time spent up to now is      165.9 secs

     total energy              =   -6898.88786432 Ry
     estimated scf accuracy    <       0.09364729 Ry

     iteration #  8     ecut=    71.00 Ry     beta= 0.10
     Davidson diagonalization with overlap
     ethr =  2.95E-05,  avg # of iterations =  1.0

     total cpu time spent up to now is      182.2 secs

     total energy              =   -6898.88823399 Ry
     estimated scf accuracy    <       0.06314505 Ry

     iteration #  9     ecut=    71.00 Ry     beta= 0.10
     Davidson diagonalization with overlap
     ethr =  2.47E-05,  avg # of iterations =  1.0

     total cpu time spent up to now is      199.3 secs

     total energy              =   -6898.88955865 Ry
     estimated scf accuracy    <       0.03172151 Ry

     iteration # 10     ecut=    71.00 Ry     beta= 0.10
     Davidson diagonalization with overlap
     ethr =  1.24E-05,  avg # of iterations =  1.0

     total cpu time spent up to now is      215.1 secs

     total energy              =   -6898.89044758 Ry
     estimated scf accuracy    <       0.02562348 Ry

     iteration # 11     ecut=    71.00 Ry     beta= 0.10
     Davidson diagonalization with overlap
     ethr =  1.00E-05,  avg # of iterations =  1.0

     total cpu time spent up to now is      232.0 secs

     total energy              =   -6898.88867640 Ry
     estimated scf accuracy    <       0.01650646 Ry

     iteration # 12     ecut=    71.00 Ry     beta= 0.10
     Davidson diagonalization with overlap
     ethr =  6.45E-06,  avg # of iterations =  1.0

     total cpu time spent up to now is      248.7 secs

     total energy              =   -6898.88853908 Ry
     estimated scf accuracy    <       0.00789403 Ry

     iteration # 13     ecut=    71.00 Ry     beta= 0.10
     Davidson diagonalization with overlap
     ethr =  3.08E-06,  avg # of iterations =  1.0

     total cpu time spent up to now is      265.8 secs

     total energy              =   -6898.88768996 Ry
     estimated scf accuracy    <       0.00519305 Ry

     iteration # 14     ecut=    71.00 Ry     beta= 0.10
     Davidson diagonalization with overlap
     ethr =  2.03E-06,  avg # of iterations =  2.0

     total cpu time spent up to now is      283.8 secs

     total energy              =   -6898.88803452 Ry
     estimated scf accuracy    <       0.00017398 Ry

     iteration # 15     ecut=    71.00 Ry     beta= 0.10
     Davidson diagonalization with overlap
     ethr =  6.80E-08,  avg # of iterations =  5.5

     total cpu time spent up to now is      314.3 secs

     total energy              =   -6898.88809732 Ry
     estimated scf accuracy    <       0.00002138 Ry

     iteration # 16     ecut=    71.00 Ry     beta= 0.10
     Davidson diagonalization with overlap
     ethr =  8.35E-09,  avg # of iterations =  4.0

     total cpu time spent up to now is      341.3 secs

     total energy              =   -6898.88810458 Ry
     estimated scf accuracy    <       0.00001078 Ry

     iteration # 17     ecut=    71.00 Ry     beta= 0.10
     Davidson diagonalization with overlap
     ethr =  4.21E-09,  avg # of iterations =  1.0

     total cpu time spent up to now is      356.7 secs

     total energy              =   -6898.88810475 Ry
     estimated scf accuracy    <       0.00000509 Ry

     iteration # 18     ecut=    71.00 Ry     beta= 0.10
     Davidson diagonalization with overlap
     ethr =  1.99E-09,  avg # of iterations =  3.8

     total cpu time spent up to now is      378.7 secs

     End of self-consistent calculation

          k = 0.0347 0.0347 0.0347 ( 61850 PWs)   bands (ev):

   -69.3482 -69.3481 -69.3480 -69.3480 -69.3480 -69.3480 -69.3480 -69.3480
   -69.3480 -69.3480 -69.3480 -69.3480 -69.3480 -69.3480 -69.3479 -69.3475
   -39.3849 -39.3849 -39.3849 -39.3849 -39.3849 -39.3849 -39.3844 -39.3844
   -39.3844 -39.3835 -39.3835 -39.3835 -39.3834 -39.3834 -39.3834 -39.3832
   -39.3832 -39.3832 -39.3831 -39.3831 -39.3831 -39.3830 -39.3830 -39.3830
   -39.3830 -39.3830 -39.3830 -39.3830 -39.3830 -39.3830 -39.3829 -39.3829
   -39.3829 -39.3829 -39.3828 -39.3828 -39.3828 -39.3828 -39.3827 -39.3817
   -39.3817 -39.3817 -39.3816 -39.3816 -39.3816 -39.3815 -39.3815 -39.3815
     0.1688   1.2907   1.2907   1.2908   1.2964   1.2964   1.2964   1.4208
     1.4208   1.4208   1.4292   1.4292   1.5442   1.5442   1.5442   1.5445
     1.5446   1.5446   1.5470   1.5470   1.5470   1.6267   1.6521   1.6521
     1.6965   1.6965   1.7019   1.7019   1.7019   1.7128   1.7128   1.7144
     1.7201   1.7495   1.7495   1.7495   1.8156   1.8156   1.8156   1.8317
     1.8317   1.8317   1.8502   1.8502   1.8502   1.8651   1.8651   1.8651
     1.9453   1.9453   1.9453   1.9864   1.9864   1.9864   1.9926   1.9926
     1.9926   1.9945   1.9945   1.9945   2.0201   2.0201   2.0296   2.0296
     2.0296   2.0374   2.0374   2.0375   2.0420   2.0420   2.0421   2.0421
     2.1797   2.1897   2.1897   2.2336   2.2336   2.2336   2.2381   2.2382
     2.2382   2.2679   2.2680   2.2680   2.4903   2.4904   2.4904   3.6114
     3.6114   3.6114

          k = 0.0347 0.0347 0.1042 ( 61841 PWs)   bands (ev):

   -69.3482 -69.3481 -69.3481 -69.3480 -69.3480 -69.3480 -69.3480 -69.3480
   -69.3480 -69.3480 -69.3480 -69.3480 -69.3480 -69.3480 -69.3479 -69.3475
   -39.3849 -39.3849 -39.3849 -39.3848 -39.3848 -39.3848 -39.3844 -39.3843
   -39.3842 -39.3837 -39.3837 -39.3837 -39.3837 -39.3836 -39.3835 -39.3835
   -39.3833 -39.3833 -39.3832 -39.3831 -39.3831 -39.3831 -39.3830 -39.3830
   -39.3830 -39.3830 -39.3830 -39.3829 -39.3829 -39.3829 -39.3829 -39.3828
   -39.3828 -39.3828 -39.3827 -39.3826 -39.3826 -39.3826 -39.3825 -39.3818
   -39.3818 -39.3817 -39.3817 -39.3817 -39.3816 -39.3816 -39.3816 -39.3816
     0.2111   1.2251   1.2952   1.2952   1.3119   1.3124   1.3124   1.3170
     1.4185   1.4185   1.4385   1.4420   1.5336   1.5336   1.5452   1.5480
     1.5519   1.5520   1.5601   1.5602   1.5937   1.5946   1.6174   1.6423
     1.6519   1.6698   1.7012   1.7012   1.7105   1.7144   1.7312   1.7389
     1.7389   1.7509   1.7528   1.7753   1.7806   1.7806   1.7846   1.8118
     1.8118   1.8252   1.8661   1.8661   1.8851   1.8851   1.8894   1.9047
     1.9072   1.9827   1.9827   1.9856   1.9857   1.9889   1.9889   1.9959
     1.9976   2.0079   2.0079   2.0117   2.0233   2.0249   2.0249   2.0270
     2.0291   2.0297   2.0297   2.0377   2.0397   2.0398   2.0418   2.0420
     2.1495   2.1582   2.1739   2.1883   2.1959   2.2030   2.2191   2.2191
     2.2326   2.2326   2.2913   2.2913   2.5313   2.5313   2.8164   3.2761
     3.2761   3.6516

          k = 0.0347 0.0347 0.1736 ( 61821 PWs)   bands (ev):

   -69.3482 -69.3481 -69.3481 -69.3480 -69.3480 -69.3480 -69.3480 -69.3480
   -69.3480 -69.3480 -69.3480 -69.3480 -69.3480 -69.3480 -69.3479 -69.3475
   -39.3848 -39.3848 -39.3848 -39.3847 -39.3847 -39.3847 -39.3843 -39.3842
   -39.3841 -39.3840 -39.3840 -39.3840 -39.3839 -39.3838 -39.3838 -39.3837
   -39.3836 -39.3834 -39.3833 -39.3832 -39.3831 -39.3831 -39.3831 -39.3830
   -39.3830 -39.3830 -39.3829 -39.3829 -39.3829 -39.3828 -39.3828 -39.3825
   -39.3825 -39.3825 -39.3825 -39.3824 -39.3824 -39.3823 -39.3823 -39.3819
   -39.3818 -39.3818 -39.3818 -39.3817 -39.3817 -39.3817 -39.3816 -39.3816
     0.2950   0.9985   1.3089   1.3089   1.3383   1.3383   1.3522   1.3560
     1.4073   1.4073   1.4568   1.4661   1.5037   1.5037   1.5476   1.5507
     1.5634   1.5698   1.5698   1.5833   1.5834   1.5913   1.5947   1.5997
     1.6033   1.6297   1.7116   1.7178   1.7187   1.7187   1.7198   1.7198
     1.7478   1.7589   1.7620   1.7656   1.7656   1.7668   1.7668   1.8129
     1.8151   1.8614   1.8657   1.9096   1.9096   1.9131   1.9131   1.9347
     1.9509   1.9509   1.9546   1.9686   1.9686   1.9886   1.9886   1.9952
     2.0021   2.0034   2.0132   2.0132   2.0271   2.0295   2.0342   2.0342
     2.0350   2.0351   2.0383   2.0413   2.0421   2.0658   2.0720   2.0721
     2.0945   2.1252   2.1305   2.1425   2.1441   2.1774   2.1954   2.1954
     2.2171   2.2171   2.3431   2.3431   2.6130   2.6130   2.9864   2.9865
     3.2161   3.3560

          k = 0.0347 0.0347 0.2431 ( 61786 PWs)   bands (ev):

   -69.3482 -69.3481 -69.3481 -69.3480 -69.3480 -69.3480 -69.3480 -69.3480
   -69.3480 -69.3480 -69.3480 -69.3480 -69.3480 -69.3479 -69.3479 -69.3475
   -39.3846 -39.3846 -39.3846 -39.3846 -39.3845 -39.3845 -39.3842 -39.3842
   -39.3842 -39.3842 -39.3842 -39.3841 -39.3841 -39.3840 -39.3840 -39.3840
   -39.3838 -39.3836 -39.3832 -39.3831 -39.3831 -39.3831 -39.3831 -39.3831
   -39.3830 -39.3830 -39.3829 -39.3829 -39.3828 -39.3828 -39.3825 -39.3823
   -39.3823 -39.3823 -39.3823 -39.3822 -39.3822 -39.3822 -39.3821 -39.3821
   -39.3820 -39.3819 -39.3819 -39.3819 -39.3818 -39.3818 -39.3818 -39.3817
     0.4193   0.7777   1.3305   1.3305   1.3731   1.3731   1.3851   1.3851
     1.4078   1.4091   1.4606   1.4606   1.4834   1.4988   1.5243   1.5398
     1.5522   1.5564   1.5579   1.5706   1.5727   1.5907   1.5971   1.5972
     1.6157   1.6157   1.6752   1.6752   1.7007   1.7008   1.7164   1.7237
     1.7393   1.7455   1.7699   1.7793   1.7793   1.8083   1.8083   1.8295
     1.8855   1.8874   1.8978   1.8978   1.9025   1.9259   1.9259   1.9383
     1.9383   1.9475   1.9475   1.9709   1.9746   1.9746   1.9842   1.9963
     1.9963   2.0051   2.0103   2.0111   2.0158   2.0280   2.0281   2.0384
     2.0390   2.0406   2.0429   2.0505   2.0669   2.0764   2.0814   2.0814
     2.0830   2.1015   2.1035   2.1177   2.1177   2.1585   2.1635   2.1636
     2.1920   2.1920   2.4313   2.4313   2.7354   2.7354   2.7486   2.7486
     3.1055   3.1055

          k = 0.0347 0.0347-0.3125 ( 61782 PWs)   bands (ev):

   -69.3482 -69.3481 -69.3481 -69.3480 -69.3480 -69.3480 -69.3480 -69.3480
   -69.3480 -69.3480 -69.3480 -69.3480 -69.3480 -69.3479 -69.3479 -69.3475
   -39.3844 -39.3844 -39.3844 -39.3844 -39.3844 -39.3844 -39.3844 -39.3844
   -39.3842 -39.3842 -39.3842 -39.3842 -39.3841 -39.3841 -39.3840 -39.3839
   -39.3838 -39.3838 -39.3832 -39.3831 -39.3831 -39.3831 -39.3831 -39.3830
   -39.3830 -39.3830 -39.3829 -39.3829 -39.3828 -39.3828 -39.3823 -39.3823
   -39.3821 -39.3821 -39.3821 -39.3821 -39.3821 -39.3821 -39.3821 -39.3821
   -39.3821 -39.3820 -39.3820 -39.3820 -39.3819 -39.3818 -39.3818 -39.3818
     0.5817   0.5817   1.3574   1.3574   1.3574   1.3574   1.4150   1.4150
     1.4150   1.4150   1.4692   1.4692   1.4729   1.4729   1.5175   1.5175
     1.5356   1.5356   1.5602   1.5602   1.5678   1.5678   1.6329   1.6329
     1.6329   1.6329   1.6559   1.6559   1.6559   1.6559   1.7254   1.7254
     1.7327   1.7327   1.7973   1.7973   1.8368   1.8368   1.8368   1.8368
     1.8677   1.8677   1.8677   1.8677   1.9397   1.9397   1.9585   1.9585
     1.9585   1.9585   1.9627   1.9627   1.9663   1.9663   1.9760   1.9760
     1.9760   1.9760   2.0193   2.0193   2.0198   2.0198   2.0348   2.0348
     2.0398   2.0398   2.0473   2.0473   2.0503   2.0503   2.0559   2.0559
     2.1250   2.1250   2.1250   2.1250   2.1328   2.1328   2.1584   2.1584
     2.1584   2.1584   2.5643   2.5644   2.5644   2.5644   2.8990   2.8990
     2.8990   2.8990

          k = 0.0347 0.1042 0.1042 ( 61817 PWs)   bands (ev):

   -69.3482 -69.3481 -69.3481 -69.3480 -69.3480 -69.3480 -69.3480 -69.3480
   -69.3480 -69.3480 -69.3480 -69.3480 -69.3480 -69.3480 -69.3479 -69.3475
   -39.3849 -39.3848 -39.3848 -39.3847 -39.3847 -39.3847 -39.3844 -39.3843
   -39.3841 -39.3839 -39.3839 -39.3839 -39.3838 -39.3837 -39.3836 -39.3834
   -39.3834 -39.3833 -39.3832 -39.3832 -39.3831 -39.3831 -39.3831 -39.3831
   -39.3830 -39.3830 -39.3830 -39.3829 -39.3829 -39.3829 -39.3828 -39.3827
   -39.3827 -39.3827 -39.3826 -39.3826 -39.3824 -39.3824 -39.3823 -39.3820
   -39.3818 -39.3817 -39.3817 -39.3817 -39.3817 -39.3816 -39.3816 -39.3815
     0.2529   1.2387   1.2387   1.2858   1.3164   1.3165   1.3319   1.3319
     1.3381   1.4201   1.4489   1.4533   1.5289   1.5528   1.5528   1.5541
     1.5611   1.5611   1.5648   1.5786   1.5849   1.5849   1.5950   1.6491
     1.6579   1.6579   1.6887   1.6890   1.7023   1.7148   1.7183   1.7438
     1.7438   1.7490   1.7579   1.7594   1.7693   1.7694   1.7866   1.8101
     1.8484   1.8485   1.8607   1.8607   1.8695   1.8880   1.9122   1.9122
     1.9462   1.9462   1.9707   1.9739   1.9864   1.9864   1.9897   1.9923
     1.9923   2.0060   2.0061   2.0099   2.0137   2.0208   2.0289   2.0289
     2.0360   2.0380   2.0385   2.0409   2.0418   2.0451   2.0635   2.0636
     2.1281   2.1561   2.1561   2.1616   2.1799   2.1800   2.1927   2.1960
     2.2001   2.2001   2.2360   2.3227   2.5760   2.8665   2.8665   2.9424
     3.3272   3.3272

          k = 0.0347 0.1042 0.1736 ( 61795 PWs)   bands (ev):

   -69.3482 -69.3481 -69.3481 -69.3480 -69.3480 -69.3480 -69.3480 -69.3480
   -69.3480 -69.3480 -69.3480 -69.3480 -69.3480 -69.3480 -69.3479 -69.3475
   -39.3848 -39.3847 -39.3847 -39.3847 -39.3846 -39.3845 -39.3844 -39.3842
   -39.3842 -39.3841 -39.3840 -39.3840 -39.3839 -39.3839 -39.3838 -39.3836
   -39.3835 -39.3833 -39.3833 -39.3832 -39.3831 -39.3831 -39.3831 -39.3831
   -39.3830 -39.3830 -39.3830 -39.3829 -39.3829 -39.3828 -39.3827 -39.3827
   -39.3825 -39.3825 -39.3824 -39.3824 -39.3823 -39.3822 -39.3821 -39.3821
   -39.3819 -39.3818 -39.3818 -39.3818 -39.3817 -39.3817 -39.3817 -39.3816
     0.3360   1.0244   1.2585   1.2826   1.3298   1.3563   1.3568   1.3684
     1.3721   1.4152   1.4667   1.4772   1.5075   1.5369   1.5536   1.5552
     1.5641   1.5656   1.5663   1.5705   1.5837   1.5875   1.6067   1.6175
     1.6289   1.6634   1.6870   1.6886   1.6965   1.6993   1.7013   1.7179
     1.7240   1.7613   1.7723   1.7784   1.7825   1.7898   1.7968   1.7972
     1.8039   1.8815   1.8906   1.9018   1.9047   1.9065   1.9115   1.9199
     1.9211   1.9501   1.9516   1.9629   1.9711   1.9795   1.9887   1.9909
     1.9964   1.9968   1.9982   2.0021   2.0101   2.0253   2.0255   2.0287
     2.0333   2.0338   2.0408   2.0430   2.0455   2.0742   2.0879   2.0933
     2.0999   2.1081   2.1160   2.1321   2.1463   2.1572   2.1643   2.1736
     2.1874   2.1905   2.2290   2.3874   2.6609   2.6625   2.9633   3.0446
     3.2686   3.4023

          k = 0.0347 0.1042 0.2431 ( 61788 PWs)   bands (ev):

   -69.3482 -69.3481 -69.3481 -69.3480 -69.3480 -69.3480 -69.3480 -69.3480
   -69.3480 -69.3480 -69.3480 -69.3480 -69.3480 -69.3479 -69.3479 -69.3475
   -39.3847 -39.3846 -39.3846 -39.3845 -39.3845 -39.3843 -39.3843 -39.3843
   -39.3842 -39.3842 -39.3842 -39.3841 -39.3841 -39.3840 -39.3838 -39.3838
   -39.3837 -39.3834 -39.3833 -39.3833 -39.3832 -39.3831 -39.3831 -39.3831
   -39.3830 -39.3830 -39.3829 -39.3829 -39.3828 -39.3827 -39.3827 -39.3825
   -39.3823 -39.3823 -39.3823 -39.3822 -39.3822 -39.3821 -39.3821 -39.3820
   -39.3820 -39.3819 -39.3819 -39.3818 -39.3818 -39.3818 -39.3818 -39.3816
     0.4590   0.8109   1.2745   1.2827   1.3503   1.3891   1.3988   1.4117
     1.4134   1.4162   1.4702   1.4918   1.5065   1.5087   1.5100   1.5282
     1.5587   1.5605   1.5721   1.5834   1.5881   1.5940   1.5974   1.6145
     1.6228   1.6435   1.6562   1.6698   1.6815   1.6952   1.7085   1.7228
     1.7237   1.7460   1.7564   1.7946   1.8001   1.8071   1.8279   1.8599
     1.8625   1.8666   1.8678   1.8978   1.9143   1.9248   1.9295   1.9378
     1.9386   1.9387   1.9480   1.9486   1.9515   1.9750   1.9756   1.9762
     1.9918   1.9960   1.9976   2.0065   2.0112   2.0114   2.0261   2.0261
     2.0342   2.0408   2.0413   2.0439   2.0471   2.0587   2.0636   2.0744
     2.0914   2.0916   2.1062   2.1264   2.1303   2.1323   2.1500   2.1660
     2.1790   2.2119   2.2133   2.4424   2.4878   2.7880   2.8114   3.1026
     3.1564   3.4985

          k = 0.0347 0.1042-0.3125 ( 61756 PWs)   bands (ev):

   -69.3482 -69.3481 -69.3481 -69.3480 -69.3480 -69.3480 -69.3480 -69.3480
   -69.3480 -69.3480 -69.3480 -69.3480 -69.3480 -69.3479 -69.3479 -69.3475
   -39.3845 -39.3845 -39.3844 -39.3844 -39.3844 -39.3844 -39.3844 -39.3844
   -39.3843 -39.3843 -39.3842 -39.3842 -39.3840 -39.3840 -39.3840 -39.3839
   -39.3836 -39.3836 -39.3833 -39.3832 -39.3832 -39.3832 -39.3831 -39.3831
   -39.3830 -39.3830 -39.3829 -39.3829 -39.3827 -39.3827 -39.3825 -39.3825
   -39.3823 -39.3823 -39.3821 -39.3821 -39.3821 -39.3821 -39.3821 -39.3821
   -39.3820 -39.3820 -39.3819 -39.3819 -39.3818 -39.3818 -39.3817 -39.3817
     0.6190   0.6190   1.2818   1.2818   1.3749   1.3749   1.4283   1.4283
     1.4601   1.4601   1.4659   1.4659   1.4731   1.4731   1.5234   1.5234
     1.5472   1.5472   1.5715   1.5715   1.5900   1.5900   1.6185   1.6185
     1.6317   1.6317   1.6502   1.6502   1.6871   1.6871   1.6990   1.6990
     1.7329   1.7329   1.8011   1.8011   1.8321   1.8321   1.8398   1.8398
     1.8640   1.8640   1.8926   1.8926   1.9303   1.9303   1.9334   1.9334
     1.9402   1.9402   1.9468   1.9468   1.9592   1.9592   1.9693   1.9693
     1.9848   1.9848   1.9898   1.9898   2.0164   2.0164   2.0174   2.0174
     2.0438   2.0438   2.0447   2.0447   2.0463   2.0463   2.0590   2.0590
     2.0861   2.0861   2.1023   2.1023   2.1379   2.1379   2.1592   2.1592
     2.1852   2.1852   2.2956   2.2956   2.6272   2.6273   2.9521   2.9521
     3.2816   3.2816

          k = 0.0347 0.1736 0.1736 ( 61783 PWs)   bands (ev):

   -69.3482 -69.3481 -69.3481 -69.3480 -69.3480 -69.3480 -69.3480 -69.3480
   -69.3480 -69.3480 -69.3480 -69.3480 -69.3480 -69.3480 -69.3479 -69.3475
   -39.3848 -39.3846 -39.3846 -39.3846 -39.3846 -39.3844 -39.3843 -39.3843
   -39.3842 -39.3842 -39.3841 -39.3841 -39.3841 -39.3839 -39.3838 -39.3835
   -39.3835 -39.3833 -39.3833 -39.3832 -39.3832 -39.3832 -39.3831 -39.3831
   -39.3831 -39.3830 -39.3830 -39.3830 -39.3829 -39.3829 -39.3827 -39.3825
   -39.3825 -39.3824 -39.3823 -39.3823 -39.3823 -39.3821 -39.3821 -39.3820
   -39.3819 -39.3819 -39.3818 -39.3818 -39.3818 -39.3817 -39.3817 -39.3815
     0.4174   1.0709   1.0710   1.2559   1.3687   1.3687   1.3890   1.3890
     1.4105   1.4222   1.4829   1.5010   1.5027   1.5149   1.5392   1.5657
     1.5657   1.5727   1.5732   1.5732   1.5867   1.5867   1.6392   1.6455
     1.6516   1.6517   1.6731   1.6773   1.6827   1.6828   1.6828   1.6875
     1.7211   1.7764   1.7764   1.7771   1.7906   1.7956   1.8028   1.8029
     1.8369   1.8369   1.8745   1.9116   1.9117   1.9128   1.9220   1.9398
     1.9398   1.9452   1.9468   1.9468   1.9570   1.9571   1.9701   1.9701
     1.9812   1.9916   1.9916   1.9944   2.0033   2.0033   2.0222   2.0285
     2.0296   2.0334   2.0411   2.0414   2.0453   2.0577   2.0808   2.0920
     2.0920   2.1025   2.1030   2.1030   2.1229   2.1403   2.1403   2.1405
     2.1405   2.1985   2.2310   2.3926   2.4698   2.7549   3.1454   3.1454
     3.3695   3.3695

          k = 0.0347 0.1736 0.2431 ( 61799 PWs)   bands (ev):

   -69.3482 -69.3481 -69.3481 -69.3481 -69.3480 -69.3480 -69.3480 -69.3480
   -69.3480 -69.3480 -69.3480 -69.3480 -69.3480 -69.3479 -69.3479 -69.3475
   -39.3847 -39.3845 -39.3845 -39.3845 -39.3845 -39.3844 -39.3844 -39.3843
   -39.3843 -39.3842 -39.3842 -39.3841 -39.3840 -39.3840 -39.3837 -39.3836
   -39.3835 -39.3835 -39.3833 -39.3833 -39.3832 -39.3832 -39.3831 -39.3831
   -39.3831 -39.3830 -39.3830 -39.3829 -39.3829 -39.3827 -39.3826 -39.3825
   -39.3825 -39.3823 -39.3823 -39.3822 -39.3822 -39.3821 -39.3820 -39.3820
   -39.3819 -39.3819 -39.3819 -39.3819 -39.3818 -39.3817 -39.3817 -39.3816
     0.5372   0.8741   1.1276   1.2239   1.3857   1.4166   1.4186   1.4192
     1.4291   1.4522   1.4806   1.4934   1.5041   1.5103   1.5337   1.5349
     1.5525   1.5808   1.5885   1.5970   1.6003   1.6143   1.6160   1.6269
     1.6449   1.6542   1.6667   1.6667   1.6730   1.6735   1.6798   1.6988
     1.7278   1.7569   1.7826   1.7943   1.8021   1.8178   1.8207   1.8228
     1.8364   1.8374   1.8837   1.8912   1.9114   1.9151   1.9257   1.9317
     1.9339   1.9343   1.9386   1.9399   1.9431   1.9443   1.9643   1.9743
     1.9799   1.9805   1.9868   1.9891   1.9996   2.0028   2.0075   2.0182
     2.0207   2.0216   2.0276   2.0437   2.0515   2.0572   2.0624   2.0644
     2.0684   2.0751   2.0907   2.0933   2.0943   2.0953   2.1272   2.1668
     2.1762   2.1971   2.2055   2.2227   2.5848   2.8841   2.9177   3.2484
     3.2735   3.5131

          k = 0.0347 0.1736-0.3125 ( 61736 PWs)   bands (ev):

   -69.3482 -69.3481 -69.3481 -69.3480 -69.3480 -69.3480 -69.3480 -69.3480
   -69.3480 -69.3480 -69.3480 -69.3480 -69.3480 -69.3479 -69.3479 -69.3475
   -39.3846 -39.3846 -39.3844 -39.3844 -39.3844 -39.3844 -39.3844 -39.3844
   -39.3844 -39.3843 -39.3842 -39.3842 -39.3839 -39.3838 -39.3838 -39.3838
   -39.3834 -39.3834 -39.3834 -39.3833 -39.3832 -39.3832 -39.3831 -39.3831
   -39.3830 -39.3830 -39.3829 -39.3829 -39.3827 -39.3827 -39.3826 -39.3825
   -39.3825 -39.3824 -39.3822 -39.3822 -39.3821 -39.3821 -39.3821 -39.3820
   -39.3820 -39.3820 -39.3819 -39.3818 -39.3817 -39.3817 -39.3816 -39.3816
     0.6917   0.6917   1.1813   1.1813   1.4043   1.4043   1.4488   1.4488
     1.4660   1.4660   1.4703   1.4704   1.4945   1.4945   1.5288   1.5288
     1.5743   1.5743   1.5983   1.5983   1.6129   1.6129   1.6202   1.6202
     1.6337   1.6337   1.6463   1.6463   1.6701   1.6701   1.7246   1.7246
     1.7395   1.7395   1.7607   1.7607   1.8371   1.8371   1.8458   1.8458
     1.8751   1.8751   1.8808   1.8808   1.8849   1.8849   1.8986   1.8986
     1.9297   1.9297   1.9355   1.9355   1.9586   1.9586   1.9638   1.9638
     1.9653   1.9653   1.9772   1.9772   2.0108   2.0108   2.0112   2.0112
     2.0176   2.0176   2.0392   2.0392   2.0469   2.0469   2.0492   2.0492
     2.0659   2.0659   2.0791   2.0791   2.1100   2.1100   2.1179   2.1179
     2.1862   2.1862   2.2042   2.2042   2.7325   2.7326   3.0482   3.0483
     3.4206   3.4206

          k = 0.0347 0.2431 0.2431 ( 61775 PWs)   bands (ev):

   -69.3482 -69.3481 -69.3481 -69.3481 -69.3480 -69.3480 -69.3480 -69.3480
   -69.3480 -69.3480 -69.3480 -69.3480 -69.3480 -69.3479 -69.3479 -69.3475
   -39.3847 -39.3845 -39.3845 -39.3845 -39.3845 -39.3844 -39.3844 -39.3844
   -39.3843 -39.3843 -39.3842 -39.3842 -39.3839 -39.3838 -39.3836 -39.3836
   -39.3834 -39.3834 -39.3833 -39.3833 -39.3833 -39.3832 -39.3832 -39.3831
   -39.3830 -39.3830 -39.3830 -39.3829 -39.3829 -39.3829 -39.3827 -39.3825
   -39.3824 -39.3824 -39.3824 -39.3821 -39.3821 -39.3821 -39.3821 -39.3820
   -39.3820 -39.3819 -39.3819 -39.3818 -39.3817 -39.3817 -39.3816 -39.3816
     0.6511   0.9601   0.9601   1.1483   1.4281   1.4281   1.4326   1.4466
     1.4466   1.4795   1.4827   1.4877   1.4914   1.5182   1.5391   1.5391
     1.5712   1.5980   1.6106   1.6106   1.6267   1.6267   1.6414   1.6414
     1.6447   1.6565   1.6581   1.6582   1.6628   1.6643   1.6664   1.7234
     1.7377   1.7656   1.7849   1.7876   1.7876   1.8027   1.8036   1.8219
     1.8274   1.8274   1.8707   1.8707   1.8735   1.8735   1.8782   1.9279
     1.9338   1.9467   1.9509   1.9509   1.9529   1.9534   1.9534   1.9575
     1.9666   1.9667   1.9808   1.9884   1.9892   1.9892   1.9903   1.9903
     2.0118   2.0133   2.0241   2.0243   2.0303   2.0473   2.0484   2.0484
     2.0575   2.0655   2.0655   2.0657   2.0804   2.0868   2.0922   2.0922
     2.1952   2.1952   2.2062   2.2236   2.7115   3.0151   3.0522   3.0522
     3.3706   3.3706

          k = 0.0347 0.2431-0.3125 ( 61766 PWs)   bands (ev):

   -69.3482 -69.3481 -69.3481 -69.3481 -69.3480 -69.3480 -69.3480 -69.3480
   -69.3480 -69.3480 -69.3480 -69.3480 -69.3480 -69.3479 -69.3479 -69.3475
   -39.3846 -39.3846 -39.3845 -39.3845 -39.3844 -39.3844 -39.3844 -39.3844
   -39.3843 -39.3843 -39.3843 -39.3842 -39.3838 -39.3838 -39.3836 -39.3835
   -39.3835 -39.3835 -39.3833 -39.3833 -39.3832 -39.3832 -39.3832 -39.3832
   -39.3830 -39.3830 -39.3830 -39.3830 -39.3829 -39.3829 -39.3827 -39.3827
   -39.3825 -39.3824 -39.3823 -39.3822 -39.3820 -39.3820 -39.3820 -39.3820
   -39.3820 -39.3819 -39.3819 -39.3819 -39.3817 -39.3817 -39.3816 -39.3816
     0.7954   0.7955   1.0567   1.0567   1.4346   1.4346   1.4654   1.4654
     1.4655   1.4655   1.4690   1.4690   1.5174   1.5174   1.5315   1.5315
     1.6139   1.6139   1.6160   1.6160   1.6308   1.6308   1.6434   1.6434
     1.6455   1.6455   1.6490   1.6490   1.6523   1.6523   1.7103   1.7103
     1.7569   1.7569   1.7733   1.7733   1.8138   1.8138   1.8245   1.8245
     1.8266   1.8266   1.8405   1.8405   1.8511   1.8512   1.8789   1.8789
     1.9212   1.9212   1.9338   1.9338   1.9703   1.9703   1.9717   1.9717
     1.9726   1.9726   1.9747   1.9747   1.9843   1.9843   2.0005   2.0005
     2.0017   2.0017   2.0163   2.0163   2.0308   2.0308   2.0403   2.0403
     2.0533   2.0533   2.0651   2.0651   2.0694   2.0694   2.0876   2.0876
     2.2055   2.2055   2.2144   2.2144   2.8662   2.8663   3.1773   3.1774
     3.2085   3.2085

          k = 0.0347-0.3125-0.3125 ( 61816 PWs)   bands (ev):

   -69.3482 -69.3481 -69.3481 -69.3481 -69.3481 -69.3480 -69.3480 -69.3480
   -69.3480 -69.3480 -69.3480 -69.3480 -69.3480 -69.3479 -69.3479 -69.3475
   -39.3847 -39.3847 -39.3846 -39.3846 -39.3844 -39.3844 -39.3844 -39.3844
   -39.3843 -39.3843 -39.3843 -39.3843 -39.3838 -39.3837 -39.3837 -39.3836
   -39.3833 -39.3833 -39.3833 -39.3833 -39.3833 -39.3833 -39.3832 -39.3832
   -39.3830 -39.3830 -39.3830 -39.3830 -39.3830 -39.3830 -39.3829 -39.3829
   -39.3824 -39.3823 -39.3823 -39.3823 -39.3820 -39.3820 -39.3820 -39.3820
   -39.3820 -39.3819 -39.3819 -39.3819 -39.3817 -39.3817 -39.3816 -39.3816
     0.9218   0.9219   0.9219   0.9219   1.4553   1.4553   1.4553   1.4553
     1.4710   1.4710   1.4711   1.4711   1.5289   1.5289   1.5289   1.5289
     1.6271   1.6271   1.6271   1.6271   1.6502   1.6502   1.6502   1.6502
     1.6607   1.6607   1.6607   1.6607   1.6611   1.6611   1.6611   1.6611
     1.7928   1.7928   1.7928   1.7928   1.7976   1.7976   1.7976   1.7976
     1.8178   1.8178   1.8178   1.8178   1.8238   1.8238   1.8238   1.8238
     1.9537   1.9537   1.9537   1.9537   1.9688   1.9688   1.9688   1.9688
     1.9758   1.9758   1.9758   1.9758   1.9865   1.9865   1.9865   1.9865
     1.9889   1.9889   1.9889   1.9889   2.0271   2.0271   2.0271   2.0271
     2.0577   2.0577   2.0578   2.0578   2.0749   2.0749   2.0749   2.0749
     2.2150   2.2150   2.2150   2.2150   3.0244   3.0244   3.0244   3.0245
     3.3339   3.3339

          k = 0.1042 0.1042 0.1042 ( 61840 PWs)   bands (ev):

   -69.3482 -69.3481 -69.3481 -69.3481 -69.3480 -69.3480 -69.3480 -69.3480
   -69.3480 -69.3480 -69.3480 -69.3480 -69.3480 -69.3480 -69.3479 -69.3475
   -39.3848 -39.3848 -39.3848 -39.3846 -39.3846 -39.3846 -39.3843 -39.3843
   -39.3840 -39.3840 -39.3840 -39.3840 -39.3839 -39.3836 -39.3836 -39.3834
   -39.3834 -39.3834 -39.3834 -39.3833 -39.3833 -39.3831 -39.3831 -39.3830
   -39.3829 -39.3829 -39.3829 -39.3828 -39.3828 -39.3828 -39.3828 -39.3828
   -39.3827 -39.3826 -39.3826 -39.3825 -39.3823 -39.3823 -39.3822 -39.3821
   -39.3818 -39.3818 -39.3817 -39.3817 -39.3817 -39.3816 -39.3816 -39.3816
     0.2945   1.2538   1.2538   1.2538   1.3086   1.3086   1.3086   1.3557
     1.3557   1.3557   1.4618   1.4618   1.5380   1.5547   1.5548   1.5548
     1.5791   1.5791   1.5791   1.5861   1.5861   1.5861   1.6178   1.6178
     1.6503   1.6503   1.6503   1.7032   1.7032   1.7314   1.7314   1.7314
     1.7371   1.7371   1.7528   1.7543   1.7543   1.7543   1.7694   1.8272
     1.8272   1.8273   1.8727   1.8727   1.8727   1.9215   1.9215   1.9215
     1.9674   1.9674   1.9674   1.9792   1.9792   1.9792   1.9832   1.9832
     1.9833   1.9928   1.9928   1.9928   2.0136   2.0136   2.0362   2.0362
     2.0362   2.0379   2.0379   2.0400   2.0400   2.0788   2.0788   2.0788
     2.0914   2.1481   2.1481   2.1481   2.1695   2.1695   2.1695   2.1770
     2.1770   2.2080   2.2080   2.2080   2.9168   2.9168   2.9168   3.0044
     3.0044   3.0044

          k = 0.1042 0.1042 0.1736 ( 61800 PWs)   bands (ev):

   -69.3482 -69.3481 -69.3481 -69.3480 -69.3480 -69.3480 -69.3480 -69.3480
   -69.3480 -69.3480 -69.3480 -69.3480 -69.3480 -69.3480 -69.3479 -69.3475
   -39.3847 -39.3847 -39.3847 -39.3846 -39.3845 -39.3845 -39.3844 -39.3842
   -39.3842 -39.3842 -39.3841 -39.3841 -39.3839 -39.3838 -39.3836 -39.3836
   -39.3836 -39.3835 -39.3834 -39.3833 -39.3832 -39.3832 -39.3831 -39.3831
   -39.3831 -39.3829 -39.3829 -39.3828 -39.3828 -39.3827 -39.3827 -39.3826
   -39.3826 -39.3825 -39.3824 -39.3823 -39.3823 -39.3821 -39.3821 -39.3820
   -39.3819 -39.3819 -39.3818 -39.3818 -39.3817 -39.3817 -39.3816 -39.3816
     0.3768   1.0509   1.2766   1.2766   1.3065   1.3065   1.3520   1.3877
     1.3877   1.3877   1.4785   1.4862   1.5152   1.5565   1.5626   1.5626
     1.5668   1.5668   1.5822   1.5943   1.6015   1.6037   1.6057   1.6058
     1.6094   1.6646   1.6646   1.6939   1.6977   1.6977   1.6998   1.7053
     1.7243   1.7295   1.7614   1.7614   1.7722   1.7921   1.7970   1.7973
     1.7973   1.8524   1.8945   1.9027   1.9027   1.9186   1.9186   1.9310
     1.9310   1.9472   1.9588   1.9640   1.9690   1.9690   1.9822   1.9822
     1.9889   1.9986   1.9995   2.0205   2.0223   2.0223   2.0255   2.0255
     2.0327   2.0349   2.0365   2.0378   2.0440   2.0454   2.0720   2.0947
     2.1056   2.1056   2.1107   2.1108   2.1115   2.1474   2.1613   2.1824
     2.2038   2.2038   2.2043   2.2043   2.7343   2.7343   3.0134   3.0134
     3.1096   3.3196

          k = 0.1042 0.1042 0.2431 ( 61785 PWs)   bands (ev):

   -69.3482 -69.3481 -69.3481 -69.3480 -69.3480 -69.3480 -69.3480 -69.3480
   -69.3480 -69.3480 -69.3480 -69.3480 -69.3480 -69.3479 -69.3479 -69.3475
   -39.3847 -39.3847 -39.3846 -39.3845 -39.3844 -39.3844 -39.3843 -39.3843
   -39.3843 -39.3843 -39.3842 -39.3842 -39.3841 -39.3838 -39.3838 -39.3838
   -39.3837 -39.3834 -39.3834 -39.3833 -39.3833 -39.3832 -39.3832 -39.3832
   -39.3829 -39.3829 -39.3829 -39.3828 -39.3827 -39.3827 -39.3827 -39.3824
   -39.3824 -39.3824 -39.3823 -39.3822 -39.3822 -39.3821 -39.3821 -39.3820
   -39.3819 -39.3819 -39.3819 -39.3818 -39.3818 -39.3818 -39.3817 -39.3816
     0.4984   0.8442   1.2959   1.2959   1.3070   1.3070   1.4118   1.4271
     1.4271   1.4274   1.4929   1.5028   1.5188   1.5195   1.5195   1.5502
     1.5602   1.5698   1.5778   1.5862   1.5885   1.5885   1.5925   1.6388
     1.6388   1.6553   1.6564   1.6564   1.6866   1.6866   1.6898   1.7035
     1.7090   1.7221   1.7792   1.7792   1.8043   1.8043   1.8271   1.8293
     1.8500   1.8621   1.8622   1.8920   1.9062   1.9238   1.9375   1.9375
     1.9395   1.9399   1.9399   1.9439   1.9439   1.9589   1.9589   1.9790
     1.9836   1.9941   1.9993   1.9994   2.0013   2.0090   2.0116   2.0254
     2.0261   2.0302   2.0369   2.0376   2.0491   2.0491   2.0531   2.0610
     2.0828   2.0829   2.1073   2.1111   2.1371   2.1371   2.1403   2.1773
     2.1899   2.1899   2.2692   2.2692   2.5240   2.5240   3.1513   3.1513
     3.2408   3.5395

          k = 0.1042 0.1042-0.3125 ( 61716 PWs)   bands (ev):

   -69.3482 -69.3481 -69.3481 -69.3480 -69.3480 -69.3480 -69.3480 -69.3480
   -69.3480 -69.3480 -69.3480 -69.3480 -69.3480 -69.3479 -69.3479 -69.3475
   -39.3845 -39.3845 -39.3845 -39.3845 -39.3844 -39.3844 -39.3843 -39.3843
   -39.3843 -39.3843 -39.3841 -39.3841 -39.3841 -39.3840 -39.3840 -39.3839
   -39.3835 -39.3835 -39.3833 -39.3833 -39.3833 -39.3833 -39.3832 -39.3832
   -39.3829 -39.3829 -39.3828 -39.3827 -39.3827 -39.3827 -39.3826 -39.3826
   -39.3822 -39.3822 -39.3822 -39.3822 -39.3821 -39.3821 -39.3821 -39.3820
   -39.3820 -39.3819 -39.3818 -39.3818 -39.3818 -39.3818 -39.3817 -39.3817
     0.6562   0.6562   1.3053   1.3054   1.3054   1.3054   1.4647   1.4647
     1.4721   1.4721   1.4721   1.4721   1.4811   1.4811   1.5336   1.5337
     1.5547   1.5547   1.5668   1.5668   1.6164   1.6164   1.6189   1.6189
     1.6189   1.6189   1.6725   1.6725   1.6726   1.6726   1.6925   1.6925
     1.7147   1.7147   1.8077   1.8077   1.8077   1.8077   1.8660   1.8660
     1.8737   1.8737   1.8737   1.8737   1.9010   1.9011   1.9026   1.9026
     1.9413   1.9413   1.9491   1.9491   1.9491   1.9491   1.9532   1.9532
     1.9702   1.9702   1.9702   1.9702   2.0143   2.0143   2.0167   2.0167
     2.0373   2.0373   2.0428   2.0428   2.0606   2.0606   2.0661   2.0661
     2.0661   2.0661   2.0734   2.0734   2.1628   2.1628   2.1666   2.1666
     2.1667   2.1667   2.3725   2.3725   2.3725   2.3725   3.3273   3.3274
     3.3274   3.3274

          k = 0.1042 0.1736 0.1736 ( 61797 PWs)   bands (ev):

   -69.3482 -69.3481 -69.3481 -69.3481 -69.3480 -69.3480 -69.3480 -69.3480
   -69.3480 -69.3480 -69.3480 -69.3480 -69.3480 -69.3480 -69.3479 -69.3475
   -39.3847 -39.3847 -39.3847 -39.3845 -39.3844 -39.3844 -39.3843 -39.3843
   -39.3843 -39.3842 -39.3842 -39.3842 -39.3839 -39.3837 -39.3837 -39.3836
   -39.3836 -39.3836 -39.3834 -39.3833 -39.3833 -39.3833 -39.3833 -39.3832
   -39.3829 -39.3828 -39.3828 -39.3828 -39.3828 -39.3827 -39.3827 -39.3825
   -39.3825 -39.3824 -39.3824 -39.3824 -39.3822 -39.3821 -39.3820 -39.3820
   -39.3819 -39.3819 -39.3819 -39.3818 -39.3818 -39.3817 -39.3817 -39.3816
     0.4576   1.0985   1.0985   1.2827   1.3054   1.3518   1.3518   1.4150
     1.4150   1.4243   1.4964   1.4995   1.5080   1.5611   1.5684   1.5684
     1.5719   1.5729   1.5817   1.5817   1.6074   1.6074   1.6201   1.6351
     1.6388   1.6388   1.6505   1.6828   1.6850   1.6850   1.6929   1.7028
     1.7146   1.7375   1.7408   1.7408   1.7521   1.7888   1.7915   1.8097
     1.8097   1.8306   1.8713   1.9106   1.9106   1.9173   1.9173   1.9178
     1.9456   1.9558   1.9632   1.9632   1.9804   1.9804   1.9807   1.9807
     1.9832   1.9940   1.9969   1.9969   1.9986   2.0073   2.0073   2.0169
     2.0290   2.0333   2.0335   2.0364   2.0420   2.0455   2.0466   2.0541
     2.0541   2.1020   2.1020   2.1081   2.1317   2.1350   2.1351   2.1629
     2.1629   2.1828   2.2092   2.2672   2.4870   2.8506   2.8506   3.1086
     3.4178   3.4178

          k = 0.1042 0.1736 0.2431 ( 61781 PWs)   bands (ev):

   -69.3482 -69.3481 -69.3481 -69.3481 -69.3480 -69.3480 -69.3480 -69.3480
   -69.3480 -69.3480 -69.3480 -69.3480 -69.3480 -69.3479 -69.3479 -69.3475
   -39.3847 -39.3846 -39.3845 -39.3845 -39.3844 -39.3844 -39.3844 -39.3843
   -39.3843 -39.3842 -39.3841 -39.3841 -39.3840 -39.3839 -39.3838 -39.3836
   -39.3836 -39.3835 -39.3835 -39.3834 -39.3834 -39.3833 -39.3833 -39.3831
   -39.3831 -39.3828 -39.3828 -39.3828 -39.3827 -39.3826 -39.3826 -39.3826
   -39.3825 -39.3823 -39.3823 -39.3822 -39.3822 -39.3821 -39.3820 -39.3820
   -39.3820 -39.3819 -39.3819 -39.3818 -39.3818 -39.3817 -39.3817 -39.3816
     0.5762   0.9076   1.1564   1.2527   1.3323   1.3522   1.4131   1.4458
     1.4495   1.4651   1.4866   1.5179   1.5306   1.5378   1.5410   1.5481
     1.5685   1.5727   1.5885   1.5907   1.6035   1.6120   1.6184   1.6357
     1.6460   1.6602   1.6607   1.6688   1.6729   1.6738   1.6801   1.6841
     1.7059   1.7240   1.7624   1.7722   1.7785   1.7791   1.7885   1.8168
     1.8229   1.8396   1.8574   1.8693   1.8931   1.9079   1.9192   1.9392
     1.9397   1.9397   1.9419   1.9433   1.9489   1.9547   1.9569   1.9580
     1.9729   1.9847   1.9873   1.9887   1.9960   2.0034   2.0047   2.0215
     2.0238   2.0252   2.0322   2.0368   2.0403   2.0406   2.0512   2.0548
     2.0565   2.0579   2.0948   2.1177   2.1201   2.1320   2.1538   2.1591
     2.1627   2.1834   2.2030   2.3128   2.3605   2.6435   2.9906   3.2432
     3.3234   3.5572

          k = 0.1042 0.1736-0.3125 ( 61748 PWs)   bands (ev):

   -69.3482 -69.3481 -69.3481 -69.3481 -69.3480 -69.3480 -69.3480 -69.3480
   -69.3480 -69.3480 -69.3480 -69.3480 -69.3480 -69.3479 -69.3479 -69.3475
   -39.3846 -39.3846 -39.3845 -39.3845 -39.3844 -39.3844 -39.3844 -39.3843
   -39.3843 -39.3843 -39.3841 -39.3841 -39.3840 -39.3839 -39.3838 -39.3838
   -39.3835 -39.3835 -39.3834 -39.3834 -39.3833 -39.3833 -39.3833 -39.3833
   -39.3828 -39.3828 -39.3828 -39.3828 -39.3827 -39.3827 -39.3826 -39.3825
   -39.3824 -39.3824 -39.3822 -39.3822 -39.3821 -39.3821 -39.3821 -39.3821
   -39.3820 -39.3820 -39.3818 -39.3818 -39.3818 -39.3818 -39.3817 -39.3817
     0.7287   0.7287   1.2109   1.2109   1.3478   1.3478   1.4705   1.4705
     1.4809   1.4809   1.4894   1.4894   1.5077   1.5077   1.5432   1.5432
     1.5781   1.5781   1.5826   1.5826   1.6132   1.6132   1.6225   1.6225
     1.6452   1.6452   1.6582   1.6582   1.6695   1.6695   1.6973   1.6973
     1.7127   1.7127   1.7690   1.7690   1.8106   1.8106   1.8263   1.8263
     1.8423   1.8423   1.8485   1.8485   1.8629   1.8629   1.8856   1.8856
     1.9122   1.9122   1.9486   1.9486   1.9639   1.9639   1.9653   1.9653
     1.9666   1.9666   1.9675   1.9675   2.0118   2.0118   2.0122   2.0122
     2.0363   2.0363   2.0379   2.0379   2.0420   2.0420   2.0504   2.0504
     2.0544   2.0544   2.0809   2.0809   2.1377   2.1377   2.1756   2.1756
     2.1868   2.1868   2.2010   2.2010   2.4835   2.4835   3.1483   3.1483
     3.4132   3.4132

          k = 0.1042 0.2431 0.2431 ( 61748 PWs)   bands (ev):

   -69.3482 -69.3481 -69.3481 -69.3481 -69.3480 -69.3480 -69.3480 -69.3480
   -69.3480 -69.3480 -69.3480 -69.3480 -69.3480 -69.3479 -69.3479 -69.3475
   -39.3846 -39.3845 -39.3845 -39.3845 -39.3845 -39.3844 -39.3844 -39.3843
   -39.3843 -39.3842 -39.3842 -39.3841 -39.3840 -39.3838 -39.3837 -39.3837
   -39.3836 -39.3835 -39.3834 -39.3834 -39.3833 -39.3833 -39.3833 -39.3833
   -39.3829 -39.3829 -39.3828 -39.3828 -39.3828 -39.3827 -39.3827 -39.3825
   -39.3824 -39.3823 -39.3823 -39.3822 -39.3821 -39.3821 -39.3821 -39.3820
   -39.3820 -39.3819 -39.3819 -39.3818 -39.3818 -39.3817 -39.3816 -39.3816
     0.6893   0.9939   0.9939   1.1805   1.3710   1.4108   1.4108   1.4706
     1.4707   1.4846   1.5014   1.5110   1.5237   1.5331   1.5553   1.5553
     1.5760   1.5976   1.5981   1.5981   1.6269   1.6416   1.6417   1.6438
     1.6438   1.6552   1.6552   1.6560   1.6563   1.6623   1.6903   1.7029
     1.7113   1.7354   1.7469   1.7469   1.7483   1.7647   1.7895   1.7895
     1.7915   1.8103   1.8411   1.8411   1.8445   1.8445   1.8705   1.8827
     1.9148   1.9500   1.9574   1.9581   1.9581   1.9733   1.9824   1.9840
     1.9840   1.9854   1.9907   1.9907   1.9922   1.9922   2.0107   2.0108
     2.0133   2.0201   2.0209   2.0296   2.0383   2.0451   2.0452   2.0507
     2.0555   2.0555   2.0621   2.0659   2.1096   2.1153   2.1153   2.1796
     2.1808   2.1808   2.1903   2.2053   2.4756   2.7834   2.7834   3.1201
     3.3717   3.7179

          k = 0.1042 0.2431-0.3125 ( 61778 PWs)   bands (ev):

   -69.3482 -69.3481 -69.3481 -69.3481 -69.3480 -69.3480 -69.3480 -69.3480
   -69.3480 -69.3480 -69.3480 -69.3480 -69.3480 -69.3479 -69.3479 -69.3475
   -39.3846 -39.3846 -39.3845 -39.3845 -39.3844 -39.3844 -39.3844 -39.3843
   -39.3843 -39.3842 -39.3842 -39.3842 -39.3839 -39.3838 -39.3836 -39.3836
   -39.3836 -39.3836 -39.3835 -39.3835 -39.3834 -39.3834 -39.3831 -39.3831
   -39.3830 -39.3830 -39.3828 -39.3828 -39.3827 -39.3827 -39.3826 -39.3826
   -39.3824 -39.3824 -39.3822 -39.3822 -39.3821 -39.3821 -39.3821 -39.3820
   -39.3820 -39.3820 -39.3819 -39.3818 -39.3817 -39.3817 -39.3816 -39.3816
     0.8320   0.8321   1.0903   1.0904   1.3984   1.3984   1.4687   1.4687
     1.4817   1.4817   1.4990   1.4990   1.5326   1.5326   1.5473   1.5473
     1.6145   1.6145   1.6156   1.6156   1.6168   1.6168   1.6331   1.6331
     1.6450   1.6450   1.6583   1.6583   1.6674   1.6674   1.7057   1.7057
     1.7241   1.7241   1.7460   1.7460   1.7701   1.7701   1.7777   1.7777
     1.7949   1.7949   1.8066   1.8066   1.8246   1.8246   1.8301   1.8301
     1.9629   1.9629   1.9644   1.9644   1.9741   1.9741   1.9749   1.9749
     1.9759   1.9759   1.9841   1.9841   2.0026   2.0027   2.0079   2.0079
     2.0222   2.0222   2.0288   2.0288   2.0301   2.0301   2.0409   2.0409
     2.0485   2.0485   2.0844   2.0844   2.0959   2.0959   2.1098   2.1098
     2.1901   2.1901   2.1975   2.1975   2.6144   2.6145   2.9413   2.9414
     3.5317   3.5318

          k = 0.1042-0.3125-0.3125 ( 61804 PWs)   bands (ev):

   -69.3482 -69.3481 -69.3481 -69.3481 -69.3481 -69.3480 -69.3480 -69.3480
   -69.3480 -69.3480 -69.3480 -69.3480 -69.3479 -69.3479 -69.3479 -69.3475
   -39.3846 -39.3846 -39.3845 -39.3845 -39.3844 -39.3844 -39.3844 -39.3844
   -39.3842 -39.3842 -39.3842 -39.3842 -39.3838 -39.3838 -39.3838 -39.3837
   -39.3835 -39.3835 -39.3835 -39.3835 -39.3834 -39.3833 -39.3833 -39.3833
   -39.3828 -39.3828 -39.3828 -39.3828 -39.3828 -39.3828 -39.3827 -39.3827
   -39.3824 -39.3823 -39.3823 -39.3823 -39.3821 -39.3821 -39.3821 -39.3821
   -39.3820 -39.3820 -39.3820 -39.3819 -39.3817 -39.3817 -39.3816 -39.3816
     0.9575   0.9576   0.9576   0.9576   1.4419   1.4419   1.4419   1.4419
     1.4940   1.4940   1.4940   1.4940   1.5450   1.5450   1.5450   1.5450
     1.6264   1.6264   1.6264   1.6264   1.6404   1.6404   1.6404   1.6404
     1.6632   1.6632   1.6632   1.6632   1.6698   1.6698   1.6698   1.6698
     1.7414   1.7414   1.7414   1.7414   1.7501   1.7501   1.7501   1.7501
     1.7804   1.7804   1.7804   1.7804   1.8052   1.8052   1.8052   1.8053
     1.9794   1.9794   1.9794   1.9794   1.9895   1.9895   1.9896   1.9896
     1.9897   1.9897   1.9897   1.9897   1.9995   1.9995   1.9995   1.9995
     2.0235   2.0235   2.0236   2.0236   2.0253   2.0253   2.0253   2.0253
     2.0444   2.0444   2.0444   2.0444   2.0916   2.0916   2.0916   2.0916
     2.1984   2.1984   2.1984   2.1984   2.7654   2.7654   2.7654   2.7655
     3.6765   3.6765

          k = 0.1736 0.1736 0.1736 ( 61780 PWs)   bands (ev):

   -69.3482 -69.3481 -69.3481 -69.3481 -69.3480 -69.3480 -69.3480 -69.3480
   -69.3480 -69.3480 -69.3480 -69.3480 -69.3480 -69.3480 -69.3479 -69.3475
   -39.3846 -39.3846 -39.3846 -39.3844 -39.3844 -39.3843 -39.3843 -39.3843
   -39.3843 -39.3843 -39.3843 -39.3842 -39.3839 -39.3839 -39.3836 -39.3836
   -39.3836 -39.3835 -39.3835 -39.3835 -39.3835 -39.3834 -39.3834 -39.3833
   -39.3827 -39.3827 -39.3827 -39.3827 -39.3827 -39.3826 -39.3826 -39.3825
   -39.3825 -39.3825 -39.3824 -39.3824 -39.3822 -39.3821 -39.3821 -39.3821
   -39.3819 -39.3819 -39.3818 -39.3818 -39.3818 -39.3817 -39.3817 -39.3817
     0.5369   1.1484   1.1484   1.1484   1.3338   1.3338   1.3338   1.4474
     1.4474   1.4474   1.4918   1.5217   1.5217   1.5736   1.5736   1.5736
     1.6008   1.6008   1.6008   1.6013   1.6013   1.6228   1.6228   1.6228
     1.6324   1.6324   1.6325   1.6832   1.6832   1.6923   1.6923   1.6923
     1.6977   1.6977   1.6978   1.7039   1.7550   1.7550   1.7813   1.7813
     1.7813   1.8638   1.8638   1.8638   1.8696   1.9329   1.9329   1.9329
     1.9382   1.9448   1.9448   1.9448   1.9739   1.9739   1.9739   1.9806
     1.9806   1.9806   1.9961   1.9961   1.9961   2.0065   2.0065   2.0300
     2.0300   2.0300   2.0300   2.0300   2.0331   2.0331   2.0331   2.0427
     2.0427   2.1335   2.1335   2.1335   2.1378   2.1378   2.1378   2.1534
     2.1534   2.1717   2.1717   2.1717   2.6139   2.6139   2.6139   3.2926
     3.5104   3.5104

          k = 0.1736 0.1736 0.2431 ( 61764 PWs)   bands (ev):

   -69.3482 -69.3481 -69.3481 -69.3481 -69.3480 -69.3480 -69.3480 -69.3480
   -69.3480 -69.3480 -69.3480 -69.3480 -69.3480 -69.3479 -69.3479 -69.3475
   -39.3846 -39.3846 -39.3845 -39.3844 -39.3844 -39.3844 -39.3843 -39.3843
   -39.3843 -39.3842 -39.3841 -39.3841 -39.3841 -39.3838 -39.3837 -39.3837
   -39.3837 -39.3836 -39.3836 -39.3835 -39.3835 -39.3834 -39.3833 -39.3833
   -39.3829 -39.3828 -39.3827 -39.3827 -39.3826 -39.3826 -39.3825 -39.3825
   -39.3825 -39.3824 -39.3823 -39.3822 -39.3822 -39.3821 -39.3821 -39.3820
   -39.3819 -39.3819 -39.3819 -39.3818 -39.3818 -39.3817 -39.3817 -39.3817
     0.6528   0.9716   1.2097   1.2097   1.3079   1.3079   1.4047   1.4703
     1.4856   1.4856   1.4883   1.5414   1.5550   1.5678   1.5699   1.5699
     1.5756   1.5883   1.5892   1.5892   1.5937   1.6107   1.6412   1.6512
     1.6512   1.6517   1.6517   1.6569   1.6570   1.6693   1.6732   1.6842
     1.6893   1.7111   1.7140   1.7234   1.7234   1.7633   1.7633   1.7901
     1.7940   1.8128   1.8128   1.8497   1.8566   1.8600   1.8600   1.8807
     1.9148   1.9527   1.9528   1.9528   1.9726   1.9726   1.9826   1.9826
     1.9876   1.9876   1.9916   1.9952   2.0026   2.0098   2.0172   2.0217
     2.0232   2.0311   2.0322   2.0327   2.0353   2.0353   2.0401   2.0401
     2.0603   2.0614   2.1140   2.1283   2.1427   2.1427   2.1529   2.1641
     2.1689   2.1689   2.2087   2.2087   2.4365   2.4365   2.7570   3.0924
     3.6413   3.6413

          k = 0.1736 0.1736-0.3125 ( 61768 PWs)   bands (ev):

   -69.3482 -69.3481 -69.3481 -69.3481 -69.3480 -69.3480 -69.3480 -69.3480
   -69.3480 -69.3480 -69.3480 -69.3480 -69.3480 -69.3479 -69.3479 -69.3475
   -39.3845 -39.3845 -39.3845 -39.3845 -39.3844 -39.3844 -39.3843 -39.3843
   -39.3843 -39.3843 -39.3840 -39.3840 -39.3839 -39.3839 -39.3839 -39.3838
   -39.3836 -39.3836 -39.3836 -39.3836 -39.3835 -39.3835 -39.3831 -39.3831
   -39.3830 -39.3830 -39.3827 -39.3826 -39.3826 -39.3826 -39.3825 -39.3825
   -39.3823 -39.3823 -39.3823 -39.3823 -39.3821 -39.3821 -39.3821 -39.3821
   -39.3820 -39.3820 -39.3818 -39.3818 -39.3818 -39.3818 -39.3817 -39.3817
     0.8008   0.8008   1.2666   1.2666   1.2667   1.2667   1.4836   1.4836
     1.4874   1.4874   1.5277   1.5277   1.5277   1.5277   1.5659   1.5659
     1.5801   1.5801   1.5892   1.5893   1.6154   1.6154   1.6154   1.6154
     1.6649   1.6649   1.6690   1.6690   1.6695   1.6696   1.6696   1.6696
     1.6863   1.6863   1.7715   1.7715   1.7715   1.7715   1.7767   1.7768
     1.7788   1.7788   1.7788   1.7788   1.8267   1.8267   1.8277   1.8277
     1.9649   1.9649   1.9724   1.9724   1.9724   1.9724   1.9732   1.9732
     1.9767   1.9767   1.9767   1.9767   2.0121   2.0121   2.0157   2.0157
     2.0313   2.0313   2.0320   2.0320   2.0393   2.0393   2.0393   2.0393
     2.0691   2.0691   2.0891   2.0891   2.1574   2.1574   2.1574   2.1574
     2.1636   2.1636   2.3065   2.3065   2.3065   2.3065   2.9153   2.9153
     3.8026   3.8027

          k = 0.1736 0.2431 0.2431 ( 61755 PWs)   bands (ev):

   -69.3482 -69.3481 -69.3481 -69.3481 -69.3480 -69.3480 -69.3480 -69.3480
   -69.3480 -69.3480 -69.3480 -69.3480 -69.3479 -69.3479 -69.3479 -69.3475
   -39.3845 -39.3845 -39.3845 -39.3845 -39.3844 -39.3844 -39.3844 -39.3843
   -39.3842 -39.3842 -39.3841 -39.3841 -39.3839 -39.3838 -39.3838 -39.3838
   -39.3838 -39.3837 -39.3836 -39.3836 -39.3835 -39.3835 -39.3834 -39.3831
   -39.3830 -39.3827 -39.3827 -39.3826 -39.3826 -39.3825 -39.3825 -39.3824
   -39.3824 -39.3823 -39.3823 -39.3823 -39.3822 -39.3821 -39.3821 -39.3821
   -39.3820 -39.3819 -39.3819 -39.3818 -39.3818 -39.3818 -39.3817 -39.3817
     0.7640   1.0586   1.0586   1.2427   1.2768   1.3837   1.3837   1.4958
     1.5017   1.5017   1.5235   1.5401   1.5612   1.5699   1.5853   1.5855
     1.5855   1.5923   1.5923   1.5973   1.6136   1.6437   1.6437   1.6448
     1.6452   1.6452   1.6552   1.6589   1.6589   1.6592   1.6650   1.6775
     1.6800   1.6802   1.6975   1.6975   1.7137   1.7478   1.7479   1.7597
     1.7624   1.7774   1.7782   1.7782   1.7885   1.8039   1.8039   1.8221
     1.9676   1.9678   1.9679   1.9679   1.9820   1.9886   1.9939   1.9961
     1.9961   1.9986   1.9986   2.0007   2.0144   2.0163   2.0182   2.0182
     2.0282   2.0296   2.0304   2.0304   2.0331   2.0331   2.0348   2.0397
     2.0673   2.0972   2.1066   2.1066   2.1278   2.1290   2.1290   2.1576
     2.1576   2.1609   2.1728   2.2907   2.3074   2.5719   2.5719   2.8934
     3.7592   4.0448

          k = 0.1736 0.2431-0.3125 ( 61770 PWs)   bands (ev):

   -69.3482 -69.3481 -69.3481 -69.3481 -69.3480 -69.3480 -69.3480 -69.3480
   -69.3480 -69.3480 -69.3480 -69.3480 -69.3479 -69.3479 -69.3479 -69.3475
   -39.3845 -39.3845 -39.3844 -39.3844 -39.3844 -39.3844 -39.3843 -39.3843
   -39.3842 -39.3842 -39.3840 -39.3840 -39.3840 -39.3839 -39.3838 -39.3837
   -39.3837 -39.3837 -39.3837 -39.3837 -39.3836 -39.3836 -39.3832 -39.3832
   -39.3829 -39.3829 -39.3826 -39.3826 -39.3825 -39.3825 -39.3825 -39.3825
   -39.3824 -39.3824 -39.3822 -39.3822 -39.3821 -39.3821 -39.3821 -39.3821
   -39.3821 -39.3820 -39.3819 -39.3818 -39.3818 -39.3818 -39.3817 -39.3817
     0.9032   0.9032   1.1552   1.1552   1.3404   1.3404   1.4691   1.4691
     1.5034   1.5034   1.5378   1.5378   1.5589   1.5589   1.5771   1.5771
     1.6012   1.6012   1.6156   1.6156   1.6219   1.6219   1.6231   1.6231
     1.6444   1.6444   1.6606   1.6606   1.6831   1.6831   1.6841   1.6841
     1.6848   1.6848   1.7066   1.7066   1.7122   1.7122   1.7266   1.7266
     1.7306   1.7306   1.7699   1.7699   1.7716   1.7716   1.7897   1.7897
     1.9817   1.9817   1.9832   1.9832   1.9832   1.9832   1.9997   1.9997
     2.0034   2.0034   2.0065   2.0065   2.0181   2.0181   2.0213   2.0213
     2.0287   2.0287   2.0312   2.0312   2.0334   2.0334   2.0366   2.0366
     2.0589   2.0589   2.0924   2.0924   2.1254   2.1254   2.1632   2.1632
     2.1675   2.1675   2.1862   2.1862   2.4259   2.4259   2.7222   2.7222
     3.9015   3.9015

          k = 0.1736-0.3125-0.3125 ( 61752 PWs)   bands (ev):

   -69.3482 -69.3481 -69.3481 -69.3481 -69.3480 -69.3480 -69.3480 -69.3480
   -69.3480 -69.3480 -69.3480 -69.3480 -69.3479 -69.3479 -69.3479 -69.3475
   -39.3845 -39.3845 -39.3844 -39.3844 -39.3844 -39.3843 -39.3843 -39.3843
   -39.3841 -39.3841 -39.3841 -39.3841 -39.3839 -39.3839 -39.3839 -39.3838
   -39.3838 -39.3838 -39.3837 -39.3837 -39.3835 -39.3834 -39.3834 -39.3834
   -39.3827 -39.3827 -39.3827 -39.3827 -39.3825 -39.3825 -39.3824 -39.3824
   -39.3822 -39.3822 -39.3822 -39.3822 -39.3822 -39.3822 -39.3822 -39.3821
   -39.3820 -39.3820 -39.3820 -39.3819 -39.3818 -39.3818 -39.3817 -39.3817
     1.0267   1.0268   1.0268   1.0268   1.4158   1.4158   1.4158   1.4158
     1.5254   1.5254   1.5254   1.5254   1.5754   1.5754   1.5754   1.5754
     1.6254   1.6254   1.6254   1.6254   1.6327   1.6327   1.6327   1.6327
     1.6670   1.6670   1.6670   1.6670   1.6683   1.6683   1.6683   1.6683
     1.6756   1.6756   1.6756   1.6756   1.6995   1.6995   1.6996   1.6996
     1.7256   1.7256   1.7256   1.7256   1.7708   1.7708   1.7708   1.7708
     1.9874   1.9874   1.9874   1.9875   1.9957   1.9957   1.9957   1.9957
     2.0199   2.0200   2.0200   2.0200   2.0218   2.0218   2.0218   2.0219
     2.0302   2.0302   2.0302   2.0302   2.0335   2.0336   2.0336   2.0336
     2.0989   2.0989   2.0989   2.0990   2.1015   2.1015   2.1015   2.1015
     2.1682   2.1682   2.1682   2.1682   2.5621   2.5621   2.5621   2.5621
     4.0167   4.0167

          k = 0.2431 0.2431 0.2431 ( 61753 PWs)   bands (ev):

   -69.3482 -69.3481 -69.3481 -69.3481 -69.3480 -69.3480 -69.3480 -69.3480
   -69.3480 -69.3480 -69.3480 -69.3480 -69.3479 -69.3479 -69.3479 -69.3475
   -39.3844 -39.3844 -39.3844 -39.3844 -39.3844 -39.3843 -39.3843 -39.3843
   -39.3841 -39.3841 -39.3841 -39.3840 -39.3840 -39.3840 -39.3839 -39.3839
   -39.3839 -39.3838 -39.3838 -39.3837 -39.3836 -39.3836 -39.3836 -39.3832
   -39.3829 -39.3825 -39.3825 -39.3825 -39.3825 -39.3825 -39.3824 -39.3823
   -39.3823 -39.3823 -39.3823 -39.3823 -39.3822 -39.3822 -39.3822 -39.3821
   -39.3819 -39.3819 -39.3819 -39.3819 -39.3819 -39.3818 -39.3818 -39.3818
     0.8714   1.1471   1.1471   1.1471   1.3303   1.3303   1.3303   1.5137
     1.5375   1.5392   1.5392   1.5392   1.5977   1.5977   1.5977   1.5982
     1.5982   1.6048   1.6048   1.6154   1.6154   1.6154   1.6298   1.6298
     1.6298   1.6476   1.6476   1.6476   1.6547   1.6547   1.6565   1.6565
     1.6565   1.6682   1.6682   1.6682   1.7138   1.7138   1.7138   1.7219
     1.7219   1.7219   1.7337   1.7337   1.7574   1.7574   1.7574   1.7620
     1.9803   1.9803   1.9803   1.9981   1.9981   1.9981   2.0050   2.0050
     2.0141   2.0141   2.0141   2.0199   2.0199   2.0260   2.0260   2.0261
     2.0291   2.0291   2.0291   2.0300   2.0372   2.0372   2.0372   2.0591
     2.0591   2.1222   2.1222   2.1329   2.1329   2.1329   2.1372   2.1372
     2.1372   2.1897   2.1897   2.1897   2.4120   2.4120   2.4120   2.7051
     4.1418   4.1418

          k = 0.2431 0.2431-0.3125 ( 61726 PWs)   bands (ev):

   -69.3482 -69.3481 -69.3481 -69.3481 -69.3480 -69.3480 -69.3480 -69.3480
   -69.3480 -69.3480 -69.3480 -69.3480 -69.3479 -69.3479 -69.3479 -69.3475
   -39.3844 -39.3844 -39.3844 -39.3844 -39.3843 -39.3843 -39.3842 -39.3842
   -39.3841 -39.3841 -39.3841 -39.3841 -39.3839 -39.3839 -39.3839 -39.3839
   -39.3839 -39.3838 -39.3838 -39.3838 -39.3838 -39.3837 -39.3834 -39.3834
   -39.3827 -39.3827 -39.3824 -39.3824 -39.3824 -39.3824 -39.3823 -39.3823
   -39.3823 -39.3823 -39.3823 -39.3823 -39.3822 -39.3821 -39.3821 -39.3821
   -39.3820 -39.3820 -39.3819 -39.3819 -39.3819 -39.3818 -39.3818 -39.3818
     1.0040   1.0040   1.2452   1.2452   1.2452   1.2453   1.4349   1.4349
     1.5326   1.5326   1.5803   1.5803   1.5803   1.5803   1.5998   1.5998
     1.6136   1.6136   1.6177   1.6177   1.6177   1.6177   1.6310   1.6310
     1.6416   1.6416   1.6495   1.6495   1.6550   1.6550   1.6613   1.6613
     1.6613   1.6613   1.6721   1.6721   1.6721   1.6721   1.6912   1.6912
     1.7149   1.7149   1.7225   1.7225   1.7225   1.7225   1.7483   1.7483
     1.9921   1.9921   1.9921   1.9921   1.9933   1.9933   2.0090   2.0090
     2.0173   2.0173   2.0232   2.0232   2.0257   2.0257   2.0257   2.0257
     2.0321   2.0321   2.0321   2.0321   2.0408   2.0409   2.0793   2.0793
     2.0929   2.0929   2.1018   2.1018   2.1314   2.1314   2.1315   2.1315
     2.1356   2.1356   2.2892   2.2892   2.2892   2.2892   2.5476   2.5476
     4.2291   4.2291

          k = 0.2431-0.3125-0.3125 ( 61724 PWs)   bands (ev):

   -69.3482 -69.3481 -69.3481 -69.3481 -69.3480 -69.3480 -69.3480 -69.3480
   -69.3480 -69.3480 -69.3480 -69.3480 -69.3479 -69.3479 -69.3479 -69.3475
   -39.3843 -39.3843 -39.3843 -39.3843 -39.3843 -39.3843 -39.3842 -39.3842
   -39.3841 -39.3841 -39.3841 -39.3840 -39.3840 -39.3840 -39.3840 -39.3840
   -39.3840 -39.3839 -39.3839 -39.3839 -39.3836 -39.3836 -39.3836 -39.3836
   -39.3826 -39.3825 -39.3825 -39.3825 -39.3823 -39.3823 -39.3823 -39.3823
   -39.3823 -39.3823 -39.3822 -39.3822 -39.3822 -39.3821 -39.3821 -39.3821
   -39.3820 -39.3820 -39.3820 -39.3819 -39.3819 -39.3819 -39.3818 -39.3818
     1.1242   1.1243   1.1243   1.1243   1.3478   1.3478   1.3478   1.3478
     1.5647   1.5647   1.5647   1.5647   1.6144   1.6144   1.6144   1.6144
     1.6234   1.6234   1.6234   1.6234   1.6248   1.6248   1.6248   1.6248
     1.6277   1.6277   1.6277   1.6277   1.6552   1.6552   1.6552   1.6552
     1.6715   1.6715   1.6715   1.6715   1.6730   1.6730   1.6730   1.6730
     1.6773   1.6773   1.6773   1.6773   1.7243   1.7243   1.7243   1.7243
     1.9982   1.9982   1.9982   1.9982   2.0030   2.0030   2.0030   2.0030
     2.0167   2.0167   2.0168   2.0168   2.0224   2.0224   2.0224   2.0224
     2.0504   2.0504   2.0504   2.0504   2.0643   2.0643   2.0643   2.0643
     2.1009   2.1009   2.1009   2.1009   2.1295   2.1295   2.1295   2.1295
     2.1859   2.1859   2.1860   2.1860   2.4071   2.4071   2.4071   2.4071
     4.2844   4.2844

          k =-0.3125-0.3125-0.3125 ( 61624 PWs)   bands (ev):

   -69.3482 -69.3481 -69.3481 -69.3481 -69.3481 -69.3481 -69.3481 -69.3480
   -69.3480 -69.3480 -69.3480 -69.3480 -69.3479 -69.3479 -69.3479 -69.3475
   -39.3842 -39.3842 -39.3842 -39.3842 -39.3841 -39.3841 -39.3841 -39.3841
   -39.3841 -39.3841 -39.3841 -39.3841 -39.3841 -39.3840 -39.3840 -39.3840
   -39.3838 -39.3838 -39.3838 -39.3838 -39.3838 -39.3837 -39.3837 -39.3837
   -39.3824 -39.3824 -39.3824 -39.3824 -39.3823 -39.3823 -39.3823 -39.3823
   -39.3822 -39.3822 -39.3821 -39.3821 -39.3821 -39.3821 -39.3821 -39.3821
   -39.3821 -39.3821 -39.3821 -39.3821 -39.3821 -39.3819 -39.3819 -39.3819
     1.2389   1.2390   1.2390   1.2390   1.2390   1.2390   1.2390   1.2391
     1.6090   1.6090   1.6090   1.6090   1.6090   1.6090   1.6090   1.6090
     1.6253   1.6253   1.6253   1.6253   1.6253   1.6253   1.6253   1.6253
     1.6253   1.6253   1.6253   1.6253   1.6253   1.6253   1.6253   1.6253
     1.6755   1.6755   1.6755   1.6755   1.6755   1.6755   1.6755   1.6755
     1.6755   1.6755   1.6755   1.6755   1.6755   1.6755   1.6755   1.6755
     2.0103   2.0103   2.0103   2.0103   2.0103   2.0103   2.0103   2.0103
     2.0103   2.0103   2.0103   2.0103   2.0103   2.0103   2.0103   2.0103
     2.0884   2.0884   2.0884   2.0884   2.0884   2.0884   2.0884   2.0884
     2.0884   2.0884   2.0884   2.0884   2.0884   2.0884   2.0884   2.0884
     2.2861   2.2861   2.2861   2.2861   2.2861   2.2861   2.2861   2.2861
     4.4075   4.4075

     the Fermi energy is     2.1268 ev

!    total energy              =   -6898.88810753 Ry

     total all-electron energy =   -144987.083277 Ry
     estimated scf accuracy    <       0.00000085 Ry
     smearing contrib. (-TS)   =      -0.25376108 Ry
     internal energy E=F+TS    =   -6898.63434645 Ry

     The total energy is F=E-TS. E is the sum of the following terms:
     one-electron contribution =   -2083.76937755 Ry
     hartree contribution      =    1067.15358865 Ry
     xc contribution           =    -457.30403269 Ry
     ewald contribution        =   -1630.27550830 Ry
     one-center paw contrib.   =   -3794.43901657 Ry

     convergence has been achieved in  18 iterations

     Forces acting on atoms (cartesian axes, Ry/au):

     atom    1 type  1   force =     0.00000000    0.00000000    0.00000000
     atom    2 type  1   force =    -0.00000691   -0.00000691   -0.00000691
     atom    3 type  1   force =     0.00000000    0.00000000    0.00000000
     atom    4 type  1   force =    -0.00000691   -0.00000691    0.00000691
     atom    5 type  1   force =     0.00000000    0.00000000    0.00000000
     atom    6 type  1   force =    -0.00000691    0.00000691   -0.00000691
     atom    7 type  1   force =     0.00000000    0.00000000    0.00000000
     atom    8 type  1   force =    -0.00000691    0.00000691    0.00000691
     atom    9 type  1   force =     0.00000000    0.00000000    0.00000000
     atom   10 type  1   force =     0.00000691   -0.00000691   -0.00000691
     atom   11 type  1   force =     0.00000000    0.00000000    0.00000000
     atom   12 type  1   force =     0.00000691   -0.00000691    0.00000691
     atom   13 type  1   force =     0.00000000    0.00000000    0.00000000
     atom   14 type  1   force =     0.00000691    0.00000691   -0.00000691
     atom   15 type  1   force =     0.00000000    0.00000000    0.00000000
     atom   16 type  1   force =     0.00000691    0.00000691    0.00000691

     Total force =     0.000034     Total SCF correction =     0.000167
     SCF correction compared to forces is large: reduce conv_thr to get better values


     Computing stress (Cartesian axis) and pressure

          total   stress  (Ry/bohr**3)                   (kbar)     P=      -87.84
  -0.00059709   0.00000000   0.00000000          -87.84        0.00        0.00
   0.00000000  -0.00059709   0.00000000            0.00      -87.84        0.00
   0.00000000   0.00000000  -0.00059709            0.00        0.00      -87.84


     Writing output data file /scratch/HfxmsJJcGRKhZpKD.save/
 
     init_run     :      8.43s CPU      8.79s WALL (       1 calls)
     electrons    :    360.22s CPU    367.21s WALL (       1 calls)
     forces       :      2.38s CPU      2.42s WALL (       1 calls)
     stress       :     15.97s CPU     16.17s WALL (       1 calls)

     Called by init_run:
     wfcinit      :      7.38s CPU      7.66s WALL (       1 calls)
     potinit      :      0.19s CPU      0.20s WALL (       1 calls)
     hinit0       :      0.26s CPU      0.26s WALL (       1 calls)

     Called by electrons:
     c_bands      :    310.24s CPU    315.30s WALL (      18 calls)
     sum_band     :     47.48s CPU     48.94s WALL (      18 calls)
     v_of_rho     :      0.48s CPU      0.52s WALL (      19 calls)
     newd         :      0.77s CPU      1.08s WALL (      19 calls)
     PAW_pot      :      1.11s CPU      1.19s WALL (      19 calls)
     mix_rho      :      0.16s CPU      0.19s WALL (      18 calls)

     Called by c_bands:
     init_us_2    :      2.64s CPU      2.67s WALL (    1365 calls)
     cegterg      :    300.73s CPU    305.48s WALL (     630 calls)

     Called by *egterg:
     cdiaghg      :     27.78s CPU     28.27s WALL (    1930 calls)
     h_psi        :    186.58s CPU    189.84s WALL (    1965 calls)
     s_psi        :     10.11s CPU     10.18s WALL (    1965 calls)
     g_psi        :      0.50s CPU      0.51s WALL (    1300 calls)

     Called by h_psi:
     h_psi:calbec :     15.00s CPU     15.11s WALL (    1965 calls)
     vloc_psi     :    161.13s CPU    164.15s WALL (    1965 calls)
     add_vuspsi   :      9.17s CPU      9.27s WALL (    1965 calls)

     General routines
     calbec       :     23.27s CPU     23.45s WALL (    2770 calls)
     fft          :      0.58s CPU      0.61s WALL (     270 calls)
     ffts         :      0.04s CPU      0.04s WALL (      37 calls)
     fftw         :    191.06s CPU    194.78s WALL (  528768 calls)
     interpolate  :      0.06s CPU      0.06s WALL (      19 calls)
 
     Parallel routines
     fft_scatt_xy :     13.91s CPU     14.09s WALL (  529075 calls)
     fft_scatt_yz :    144.94s CPU    148.10s WALL (  529075 calls)
 
     PWSCF        :   6m34.41s CPU   6m43.96s WALL

 
   This run was terminated on:   0:14:11  26Nov2021            

=------------------------------------------------------------------------------=
   JOB DONE.
=------------------------------------------------------------------------------=
