
     Program PWSCF v.6.7MaX starts on 26Nov2021 at  0: 0:27 

     This program is part of the open-source Quantum ESPRESSO suite
     for quantum simulation of materials; please cite
         "P. Giannozzi et al., J. Phys.:Condens. Matter 21 395502 (2009);
         "P. Giannozzi et al., J. Phys.:Condens. Matter 29 465901 (2017);
          URL http://www.quantum-espresso.org", 
     in publications or presentations arising from this work. More details at
     http://www.quantum-espresso.org/quote

     Parallel version (MPI & OpenMP), running on      72 processor cores
     Number of MPI processes:                72
     Threads/MPI process:                     1

     MPI processes distributed on     1 nodes
     R & G space division:  proc/nbgrp/npool/nimage =      72
     Reading input from bcc_6.in
Warning: card &CELL ignored
Warning: card CELL_DYNAMICS = 'BFGS', ignored
Warning: card CELL_FACTOR = 2.0, ignored
Warning: card PRESS = 0.0, ignored
Warning: card / ignored

     Current dimensions of program PWSCF are:
     Max number of different atomic species (ntypx) = 10
     Max number of k-points (npk) =  40000
     Max angular momentum in pseudopotentials (lmaxx) =  3
     file Ru.pbe-spn-kjpaw_psl.1.0.0.UPF: wavefunction(s)  4D renormalized

     Subspace diagonalization in iterative solution of the eigenvalue problem:
     one sub-group per band group will be used
     ELPA distributed-memory algorithm (size of sub-group:  8*  8 procs)

     Found symmetry operation: I + (  0.2500  0.2500  0.2500)
     This is a supercell, fractional translations are disabled
     Message from routine setup:
     using ibrav=0 with symmetry is DISCOURAGED, use correct ibrav instead
 
     Parallelization info
     --------------------
     sticks:   dense  smooth     PW     G-vecs:    dense   smooth      PW
     Min         139      91     24                10533     5649     788
     Max         140      92     25                10542     5658     795
     Sum       10049    6621   1789               758657   407207   57051
 


     bravais-lattice index     =            0
     lattice parameter (alat)  =      11.4293  a.u.
     unit-cell volume          =    5038.8380 (a.u.)^3
     number of atoms/cell      =           16
     number of atomic types    =            1
     number of electrons       =       256.00
     number of Kohn-Sham states=          154
     kinetic-energy cutoff     =      71.0000  Ry
     charge density cutoff     =     430.0000  Ry
     scf convergence threshold =      1.0E-06
     mixing beta               =       0.1000
     number of iterations used =           10  TF        mixing
     Exchange-correlation= SLA  PW   PBX  PBC
                           (   1   4   3   4   0   0   0)

     celldm(1)=  11.429280  celldm(2)=   0.000000  celldm(3)=   0.000000
     celldm(4)=   0.000000  celldm(5)=   0.000000  celldm(6)=   0.000000

     crystal axes: (cart. coord. in units of alat)
               a(1) = (   1.500000   0.000000   0.000000 )  
               a(2) = (   0.000000   1.500000   0.000000 )  
               a(3) = (   0.000000   0.000000   1.500000 )  

     reciprocal axes: (cart. coord. in units 2 pi/alat)
               b(1) = (  0.666667  0.000000  0.000000 )  
               b(2) = (  0.000000  0.666667  0.000000 )  
               b(3) = (  0.000000  0.000000  0.666667 )  


     PseudoPot. # 1 for Ru read from file:
     /rds/homes/b/bxp912/pp/Ru.pbe-spn-kjpaw_psl.1.0.0.UPF
     MD5 check sum: 0ae1f594dea09af7be8575c3a481d1ae
     Pseudo is Projector augmented-wave + core cor, Zval = 16.0
     Generated using "atomic" code by A. Dal Corso  v.5.1
     Shape of augmentation charge: PSQ
     Using radial grid of 1233 points,  6 beta functions with: 
                l(1) =   0
                l(2) =   0
                l(3) =   1
                l(4) =   1
                l(5) =   2
                l(6) =   2
     Q(r) pseudized with 0 coefficients 


     atomic species   valence    mass     pseudopotential
        Ru            16.00   101.07000     Ru( 1.00)

     48 Sym. Ops., with inversion, found



   Cartesian axes

     site n.     atom                  positions (alat units)
         1           Ru  tau(   1) = (   0.0000000   0.0000000   0.0000000  )
         2           Ru  tau(   2) = (   0.3750000   0.3750000   0.3750000  )
         3           Ru  tau(   3) = (   0.0000000   0.0000000   0.7500000  )
         4           Ru  tau(   4) = (   0.3750000   0.3750000   1.1250000  )
         5           Ru  tau(   5) = (   0.0000000   0.7500000   0.0000000  )
         6           Ru  tau(   6) = (   0.3750000   1.1250000   0.3750000  )
         7           Ru  tau(   7) = (   0.0000000   0.7500000   0.7500000  )
         8           Ru  tau(   8) = (   0.3750000   1.1250000   1.1250000  )
         9           Ru  tau(   9) = (   0.7500000   0.0000000   0.0000000  )
        10           Ru  tau(  10) = (   1.1250000   0.3750000   0.3750000  )
        11           Ru  tau(  11) = (   0.7500000   0.0000000   0.7500000  )
        12           Ru  tau(  12) = (   1.1250000   0.3750000   1.1250000  )
        13           Ru  tau(  13) = (   0.7500000   0.7500000   0.0000000  )
        14           Ru  tau(  14) = (   1.1250000   1.1250000   0.3750000  )
        15           Ru  tau(  15) = (   0.7500000   0.7500000   0.7500000  )
        16           Ru  tau(  16) = (   1.1250000   1.1250000   1.1250000  )

     number of k points=    35  Marzari-Vanderbilt smearing, width (Ry)=  0.0400
                       cart. coord. in units 2pi/alat
        k(    1) = (   0.0370370   0.0370370   0.0370370), wk =   0.0219479
        k(    2) = (   0.0370370   0.0370370   0.1111111), wk =   0.0658436
        k(    3) = (   0.0370370   0.0370370   0.1851852), wk =   0.0658436
        k(    4) = (   0.0370370   0.0370370   0.2592593), wk =   0.0658436
        k(    5) = (   0.0370370   0.0370370  -0.3333333), wk =   0.0329218
        k(    6) = (   0.0370370   0.1111111   0.1111111), wk =   0.0658436
        k(    7) = (   0.0370370   0.1111111   0.1851852), wk =   0.1316872
        k(    8) = (   0.0370370   0.1111111   0.2592593), wk =   0.1316872
        k(    9) = (   0.0370370   0.1111111  -0.3333333), wk =   0.0658436
        k(   10) = (   0.0370370   0.1851852   0.1851852), wk =   0.0658436
        k(   11) = (   0.0370370   0.1851852   0.2592593), wk =   0.1316872
        k(   12) = (   0.0370370   0.1851852  -0.3333333), wk =   0.0658436
        k(   13) = (   0.0370370   0.2592593   0.2592593), wk =   0.0658436
        k(   14) = (   0.0370370   0.2592593  -0.3333333), wk =   0.0658436
        k(   15) = (   0.0370370  -0.3333333  -0.3333333), wk =   0.0164609
        k(   16) = (   0.1111111   0.1111111   0.1111111), wk =   0.0219479
        k(   17) = (   0.1111111   0.1111111   0.1851852), wk =   0.0658436
        k(   18) = (   0.1111111   0.1111111   0.2592593), wk =   0.0658436
        k(   19) = (   0.1111111   0.1111111  -0.3333333), wk =   0.0329218
        k(   20) = (   0.1111111   0.1851852   0.1851852), wk =   0.0658436
        k(   21) = (   0.1111111   0.1851852   0.2592593), wk =   0.1316872
        k(   22) = (   0.1111111   0.1851852  -0.3333333), wk =   0.0658436
        k(   23) = (   0.1111111   0.2592593   0.2592593), wk =   0.0658436
        k(   24) = (   0.1111111   0.2592593  -0.3333333), wk =   0.0658436
        k(   25) = (   0.1111111  -0.3333333  -0.3333333), wk =   0.0164609
        k(   26) = (   0.1851852   0.1851852   0.1851852), wk =   0.0219479
        k(   27) = (   0.1851852   0.1851852   0.2592593), wk =   0.0658436
        k(   28) = (   0.1851852   0.1851852  -0.3333333), wk =   0.0329218
        k(   29) = (   0.1851852   0.2592593   0.2592593), wk =   0.0658436
        k(   30) = (   0.1851852   0.2592593  -0.3333333), wk =   0.0658436
        k(   31) = (   0.1851852  -0.3333333  -0.3333333), wk =   0.0164609
        k(   32) = (   0.2592593   0.2592593   0.2592593), wk =   0.0219479
        k(   33) = (   0.2592593   0.2592593  -0.3333333), wk =   0.0329218
        k(   34) = (   0.2592593  -0.3333333  -0.3333333), wk =   0.0164609
        k(   35) = (  -0.3333333  -0.3333333  -0.3333333), wk =   0.0027435

     Dense  grid:   758657 G-vectors     FFT dimensions: ( 120, 120, 120)

     Smooth grid:   407207 G-vectors     FFT dimensions: (  96,  96,  96)

     Estimated max dynamical RAM per process >     108.98 MB

     Estimated total dynamical RAM >       7.66 GB

     Check: negative core charge=   -0.000001

     Initial potential from superposition of free atoms

     starting charge  255.98980, renormalised to  256.00000
     Starting wfcs are  160 randomized atomic wfcs
     Checking if some PAW data can be deallocated... 

     total cpu time spent up to now is        9.6 secs

     Self-consistent Calculation

     iteration #  1     ecut=    71.00 Ry     beta= 0.10
     Davidson diagonalization with overlap
     ethr =  1.00E-02,  avg # of iterations =  2.0

     total cpu time spent up to now is       27.9 secs

     total energy              =   -6899.96157657 Ry
     estimated scf accuracy    <       4.25811095 Ry

     iteration #  2     ecut=    71.00 Ry     beta= 0.10
     Davidson diagonalization with overlap
     ethr =  1.66E-03,  avg # of iterations =  1.9

     total cpu time spent up to now is       46.4 secs

     total energy              =   -6899.51614060 Ry
     estimated scf accuracy    <       2.37484067 Ry

     iteration #  3     ecut=    71.00 Ry     beta= 0.10
     Davidson diagonalization with overlap
     ethr =  9.28E-04,  avg # of iterations =  2.1

     total cpu time spent up to now is       66.6 secs

     total energy              =   -6899.63939129 Ry
     estimated scf accuracy    <       2.20252638 Ry

     iteration #  4     ecut=    71.00 Ry     beta= 0.10
     Davidson diagonalization with overlap
     ethr =  8.60E-04,  avg # of iterations =  1.3

     total cpu time spent up to now is       81.8 secs

     total energy              =   -6899.68677021 Ry
     estimated scf accuracy    <       0.09240846 Ry

     iteration #  5     ecut=    71.00 Ry     beta= 0.10
     Davidson diagonalization with overlap
     ethr =  3.61E-05,  avg # of iterations =  5.2

     total cpu time spent up to now is      107.5 secs

     total energy              =   -6899.68067082 Ry
     estimated scf accuracy    <       0.04252412 Ry

     iteration #  6     ecut=    71.00 Ry     beta= 0.10
     Davidson diagonalization with overlap
     ethr =  1.66E-05,  avg # of iterations =  4.3

     total cpu time spent up to now is      129.7 secs

     total energy              =   -6899.69747138 Ry
     estimated scf accuracy    <       0.33131874 Ry

     iteration #  7     ecut=    71.00 Ry     beta= 0.10
     Davidson diagonalization with overlap
     ethr =  1.66E-05,  avg # of iterations =  1.0

     total cpu time spent up to now is      145.7 secs

     total energy              =   -6899.67760539 Ry
     estimated scf accuracy    <       0.12914432 Ry

     iteration #  8     ecut=    71.00 Ry     beta= 0.10
     Davidson diagonalization with overlap
     ethr =  1.66E-05,  avg # of iterations =  2.3

     total cpu time spent up to now is      165.1 secs

     total energy              =   -6899.68283022 Ry
     estimated scf accuracy    <       0.00783949 Ry

     iteration #  9     ecut=    71.00 Ry     beta= 0.10
     Davidson diagonalization with overlap
     ethr =  3.06E-06,  avg # of iterations =  4.5

     total cpu time spent up to now is      186.1 secs

     total energy              =   -6899.68810070 Ry
     estimated scf accuracy    <       0.00586041 Ry

     iteration # 10     ecut=    71.00 Ry     beta= 0.10
     Davidson diagonalization with overlap
     ethr =  2.29E-06,  avg # of iterations =  2.8

     total cpu time spent up to now is      205.6 secs

     total energy              =   -6899.68643740 Ry
     estimated scf accuracy    <       0.02089502 Ry

     iteration # 11     ecut=    71.00 Ry     beta= 0.10
     Davidson diagonalization with overlap
     ethr =  2.29E-06,  avg # of iterations =  1.0

     total cpu time spent up to now is      222.3 secs

     total energy              =   -6899.68370475 Ry
     estimated scf accuracy    <       0.01069581 Ry

     iteration # 12     ecut=    71.00 Ry     beta= 0.10
     Davidson diagonalization with overlap
     ethr =  2.29E-06,  avg # of iterations =  2.6

     total cpu time spent up to now is      242.2 secs

     total energy              =   -6899.68458735 Ry
     estimated scf accuracy    <       0.00055625 Ry

     iteration # 13     ecut=    71.00 Ry     beta= 0.10
     Davidson diagonalization with overlap
     ethr =  2.17E-07,  avg # of iterations =  4.8

     total cpu time spent up to now is      264.4 secs

     total energy              =   -6899.68475804 Ry
     estimated scf accuracy    <       0.00014128 Ry

     iteration # 14     ecut=    71.00 Ry     beta= 0.10
     Davidson diagonalization with overlap
     ethr =  5.52E-08,  avg # of iterations =  2.4

     total cpu time spent up to now is      283.0 secs

     total energy              =   -6899.68478061 Ry
     estimated scf accuracy    <       0.00000456 Ry

     iteration # 15     ecut=    71.00 Ry     beta= 0.10
     Davidson diagonalization with overlap
     ethr =  1.78E-09,  avg # of iterations =  3.7

     total cpu time spent up to now is      307.6 secs

     total energy              =   -6899.68477567 Ry
     estimated scf accuracy    <       0.00002241 Ry

     iteration # 16     ecut=    71.00 Ry     beta= 0.10
     Davidson diagonalization with overlap
     ethr =  1.78E-09,  avg # of iterations =  5.1

     total cpu time spent up to now is      333.4 secs

     total energy              =   -6899.68478093 Ry
     estimated scf accuracy    <       0.00000637 Ry

     iteration # 17     ecut=    71.00 Ry     beta= 0.10
     Davidson diagonalization with overlap
     ethr =  1.78E-09,  avg # of iterations =  4.2

     total cpu time spent up to now is      354.2 secs

     total energy              =   -6899.68478303 Ry
     estimated scf accuracy    <       0.00000104 Ry

     iteration # 18     ecut=    71.00 Ry     beta= 0.10
     Davidson diagonalization with overlap
     ethr =  4.06E-10,  avg # of iterations =  4.2

     total cpu time spent up to now is      378.9 secs

     End of self-consistent calculation

          k = 0.0370 0.0370 0.0370 ( 50892 PWs)   bands (ev):

   -68.1814 -68.1811 -68.1811 -68.1811 -68.1810 -68.1810 -68.1810 -68.1810
   -68.1810 -68.1810 -68.1810 -68.1810 -68.1810 -68.1810 -68.1810 -68.1808
   -38.1968 -38.1968 -38.1968 -38.1968 -38.1968 -38.1968 -38.1956 -38.1956
   -38.1955 -38.1933 -38.1932 -38.1932 -38.1932 -38.1928 -38.1928 -38.1927
   -38.1927 -38.1927 -38.1923 -38.1923 -38.1923 -38.1921 -38.1921 -38.1920
   -38.1920 -38.1920 -38.1919 -38.1919 -38.1919 -38.1919 -38.1919 -38.1919
   -38.1918 -38.1917 -38.1917 -38.1917 -38.1914 -38.1914 -38.1914 -38.1885
   -38.1884 -38.1884 -38.1883 -38.1883 -38.1883 -38.1882 -38.1882 -38.1882
     1.0341   2.3525   2.3525   2.3525   2.3597   2.3597   2.3597   2.4883
     2.4883   2.4883   2.5214   2.5214   2.6485   2.6485   2.6485   2.6998
     2.6998   2.6998   2.7035   2.7035   2.7035   2.7939   2.8268   2.8268
     2.8839   2.8839   2.9050   2.9050   2.9050   2.9068   2.9390   2.9390
     2.9491   2.9732   2.9732   2.9732   3.0712   3.0712   3.0712   3.0942
     3.0942   3.0942   3.1188   3.1188   3.1188   3.1397   3.1397   3.1397
     3.2593   3.2593   3.2593   3.3165   3.3165   3.3165   3.3283   3.3283
     3.3283   3.3310   3.3310   3.3310   3.3635   3.3635   3.3789   3.3789
     3.3789   3.3918   3.3918   3.3918   3.3987   3.3987   3.3987   3.3987
     3.5878   3.6023   3.6023   3.6618   3.6618   3.6618   3.6626   3.6626
     3.6626   3.6694   3.6694   3.6694   3.9007   3.9007   3.9007   5.0692
     5.0692   5.0692

          k = 0.0370 0.0370 0.1111 ( 50900 PWs)   bands (ev):

   -68.1814 -68.1812 -68.1811 -68.1811 -68.1811 -68.1810 -68.1810 -68.1810
   -68.1810 -68.1810 -68.1810 -68.1810 -68.1810 -68.1810 -68.1810 -68.1808
   -38.1968 -38.1968 -38.1967 -38.1967 -38.1966 -38.1966 -38.1956 -38.1955
   -38.1953 -38.1938 -38.1938 -38.1938 -38.1937 -38.1936 -38.1933 -38.1933
   -38.1929 -38.1927 -38.1926 -38.1923 -38.1923 -38.1922 -38.1921 -38.1920
   -38.1920 -38.1920 -38.1919 -38.1918 -38.1918 -38.1917 -38.1917 -38.1914
   -38.1914 -38.1914 -38.1912 -38.1911 -38.1908 -38.1908 -38.1908 -38.1888
   -38.1885 -38.1885 -38.1885 -38.1885 -38.1884 -38.1884 -38.1883 -38.1883
     1.0832   2.2553   2.3582   2.3582   2.3797   2.3800   2.3800   2.3861
     2.4902   2.4902   2.5344   2.5383   2.6405   2.6405   2.7004   2.7041
     2.7105   2.7105   2.7214   2.7214   2.7222   2.7529   2.7830   2.8129
     2.8340   2.8488   2.9018   2.9018   2.9355   2.9408   2.9554   2.9567
     2.9567   2.9571   2.9643   3.0138   3.0223   3.0223   3.0297   3.0659
     3.0659   3.0840   3.1403   3.1403   3.1670   3.1670   3.1733   3.1974
     3.2028   3.3129   3.3129   3.3147   3.3147   3.3224   3.3224   3.3329
     3.3353   3.3442   3.3442   3.3514   3.3683   3.3697   3.3697   3.3732
     3.3777   3.3789   3.3789   3.3922   3.3952   3.3953   3.3982   3.3986
     3.5314   3.5563   3.5789   3.5986   3.6004   3.6105   3.6418   3.6418
     3.6617   3.6617   3.6841   3.6841   3.9441   3.9441   4.2596   4.7022
     4.7022   5.1406

          k = 0.0370 0.0370 0.1852 ( 50899 PWs)   bands (ev):

   -68.1814 -68.1812 -68.1811 -68.1811 -68.1811 -68.1811 -68.1810 -68.1810
   -68.1810 -68.1810 -68.1810 -68.1810 -68.1810 -68.1810 -68.1809 -68.1808
   -38.1965 -38.1965 -38.1965 -38.1964 -38.1963 -38.1963 -38.1955 -38.1953
   -38.1950 -38.1945 -38.1945 -38.1944 -38.1943 -38.1942 -38.1940 -38.1940
   -38.1935 -38.1931 -38.1926 -38.1923 -38.1923 -38.1923 -38.1921 -38.1921
   -38.1921 -38.1920 -38.1918 -38.1918 -38.1917 -38.1917 -38.1914 -38.1908
   -38.1908 -38.1907 -38.1906 -38.1905 -38.1902 -38.1902 -38.1902 -38.1892
   -38.1888 -38.1888 -38.1888 -38.1887 -38.1887 -38.1887 -38.1885 -38.1885
     1.1807   1.9934   2.3754   2.3754   2.4128   2.4128   2.4316   2.4365
     2.4843   2.4843   2.5598   2.5700   2.6119   2.6119   2.7023   2.7062
     2.7126   2.7317   2.7350   2.7350   2.7510   2.7530   2.7530   2.7558
     2.7652   2.7968   2.9230   2.9230   2.9364   2.9384   2.9384   2.9447
     2.9869   2.9892   2.9892   2.9960   2.9995   2.9997   2.9997   3.0377
     3.0413   3.1340   3.1489   3.2001   3.2001   3.2065   3.2065   3.2363
     3.2591   3.2591   3.2634   3.2892   3.2892   3.3177   3.3177   3.3273
     3.3415   3.3433   3.3524   3.3524   3.3724   3.3774   3.3827   3.3827
     3.3882   3.3883   3.3930   3.3975   3.3985   3.4275   3.4356   3.4356
     3.4661   3.4935   3.5082   3.5156   3.5349   3.5849   3.6082   3.6082
     3.6398   3.6398   3.7335   3.7335   4.0309   4.0309   4.3868   4.3868
     4.7134   4.8281

          k = 0.0370 0.0370 0.2593 ( 50856 PWs)   bands (ev):

   -68.1814 -68.1813 -68.1811 -68.1811 -68.1811 -68.1811 -68.1810 -68.1810
   -68.1810 -68.1810 -68.1810 -68.1810 -68.1810 -68.1810 -68.1809 -68.1808
   -38.1961 -38.1961 -38.1961 -38.1961 -38.1958 -38.1958 -38.1952 -38.1951
   -38.1951 -38.1950 -38.1950 -38.1949 -38.1946 -38.1946 -38.1946 -38.1945
   -38.1940 -38.1937 -38.1924 -38.1923 -38.1922 -38.1922 -38.1922 -38.1921
   -38.1921 -38.1921 -38.1918 -38.1918 -38.1917 -38.1917 -38.1908 -38.1901
   -38.1901 -38.1901 -38.1900 -38.1900 -38.1898 -38.1896 -38.1896 -38.1896
   -38.1891 -38.1891 -38.1891 -38.1890 -38.1890 -38.1889 -38.1888 -38.1888
     1.3249   1.7391   2.4020   2.4020   2.4567   2.4567   2.4641   2.4641
     2.5035   2.5056   2.5637   2.5637   2.5969   2.6129   2.6593   2.6762
     2.7013   2.7046   2.7066   2.7115   2.7289   2.7492   2.7725   2.7725
     2.7973   2.7973   2.8794   2.8794   2.9129   2.9129   2.9420   2.9516
     2.9707   2.9787   3.0020   3.0020   3.0171   3.0408   3.0409   3.0990
     3.1369   3.1404   3.1758   3.1758   3.1930   3.2188   3.2188   3.2433
     3.2433   3.2541   3.2541   3.2921   3.2977   3.2977   3.3058   3.3269
     3.3269   3.3345   3.3416   3.3530   3.3537   3.3724   3.3781   3.3783
     3.3905   3.3941   3.3965   3.3992   3.4289   3.4306   3.4469   3.4489
     3.4489   3.4756   3.4776   3.4998   3.4998   3.5580   3.5634   3.5634
     3.6045   3.6045   3.8184   3.8184   4.1357   4.1357   4.1612   4.1612
     4.5577   4.5577

          k = 0.0370 0.0370-0.3333 ( 50880 PWs)   bands (ev):

   -68.1813 -68.1813 -68.1811 -68.1811 -68.1811 -68.1811 -68.1810 -68.1810
   -68.1810 -68.1810 -68.1810 -68.1810 -68.1810 -68.1810 -68.1808 -68.1808
   -38.1957 -38.1957 -38.1957 -38.1957 -38.1956 -38.1956 -38.1956 -38.1956
   -38.1952 -38.1952 -38.1952 -38.1952 -38.1950 -38.1950 -38.1945 -38.1945
   -38.1942 -38.1942 -38.1924 -38.1923 -38.1922 -38.1922 -38.1922 -38.1922
   -38.1922 -38.1922 -38.1917 -38.1917 -38.1917 -38.1917 -38.1902 -38.1902
   -38.1896 -38.1896 -38.1896 -38.1896 -38.1895 -38.1895 -38.1895 -38.1895
   -38.1895 -38.1895 -38.1893 -38.1893 -38.1892 -38.1892 -38.1892 -38.1892
     1.5129   1.5129   2.4338   2.4338   2.4338   2.4338   2.5087   2.5087
     2.5087   2.5087   2.5847   2.5847   2.5882   2.5882   2.6446   2.6446
     2.6606   2.6607   2.7148   2.7148   2.7235   2.7235   2.8214   2.8214
     2.8214   2.8214   2.8523   2.8523   2.8523   2.8523   2.9531   2.9531
     2.9627   2.9627   3.0547   3.0547   3.0839   3.0839   3.0839   3.0839
     3.1274   3.1274   3.1274   3.1274   3.2468   3.2468   3.2480   3.2480
     3.2500   3.2500   3.2736   3.2736   3.2736   3.2736   3.2962   3.2962
     3.2962   3.2962   3.3658   3.3658   3.3665   3.3665   3.3777   3.3777
     3.3953   3.3953   3.4034   3.4034   3.4069   3.4069   3.4075   3.4076
     3.5096   3.5096   3.5096   3.5096   3.5217   3.5217   3.5571   3.5571
     3.5571   3.5571   3.9488   3.9488   3.9488   3.9488   4.3360   4.3360
     4.3360   4.3360

          k = 0.0370 0.1111 0.1111 ( 50905 PWs)   bands (ev):

   -68.1814 -68.1812 -68.1812 -68.1811 -68.1811 -68.1811 -68.1811 -68.1810
   -68.1810 -68.1810 -68.1810 -68.1810 -68.1810 -68.1810 -68.1810 -68.1808
   -38.1968 -38.1966 -38.1966 -38.1965 -38.1965 -38.1963 -38.1956 -38.1954
   -38.1950 -38.1943 -38.1943 -38.1942 -38.1941 -38.1938 -38.1936 -38.1929
   -38.1929 -38.1928 -38.1927 -38.1927 -38.1923 -38.1921 -38.1921 -38.1921
   -38.1921 -38.1920 -38.1920 -38.1919 -38.1919 -38.1917 -38.1917 -38.1912
   -38.1911 -38.1911 -38.1910 -38.1908 -38.1905 -38.1903 -38.1903 -38.1892
   -38.1888 -38.1886 -38.1886 -38.1886 -38.1885 -38.1885 -38.1884 -38.1883
     1.1319   2.2731   2.2731   2.3462   2.3855   2.3855   2.4053   2.4053
     2.4126   2.4961   2.5484   2.5536   2.6391   2.7109   2.7109   2.7137
     2.7149   2.7156   2.7157   2.7216   2.7216   2.7463   2.7539   2.8232
     2.8392   2.8392   2.8742   2.8853   2.9240   2.9286   2.9408   2.9642
     2.9645   2.9732   2.9732   2.9887   3.0009   3.0009   3.0246   3.0584
     3.1170   3.1170   3.1344   3.1344   3.1482   3.1730   3.2053   3.2053
     3.2595   3.2595   3.2849   3.3008   3.3173   3.3173   3.3234   3.3269
     3.3270   3.3407   3.3407   3.3488   3.3542   3.3646   3.3770   3.3770
     3.3894   3.3927   3.3932   3.3969   3.3979   3.3985   3.4238   3.4238
     3.5127   3.5366   3.5366   3.5608   3.5756   3.5756   3.6066   3.6078
     3.6087   3.6087   3.6670   3.7168   3.9943   4.3172   4.3172   4.3191
     4.7916   4.7916

          k = 0.0370 0.1111 0.1852 ( 50895 PWs)   bands (ev):

   -68.1814 -68.1812 -68.1812 -68.1811 -68.1811 -68.1811 -68.1811 -68.1810
   -68.1810 -68.1810 -68.1810 -68.1810 -68.1810 -68.1810 -68.1809 -68.1808
   -38.1967 -38.1964 -38.1964 -38.1963 -38.1962 -38.1959 -38.1956 -38.1951
   -38.1949 -38.1947 -38.1947 -38.1946 -38.1945 -38.1944 -38.1941 -38.1934
   -38.1934 -38.1928 -38.1928 -38.1925 -38.1923 -38.1923 -38.1921 -38.1921
   -38.1921 -38.1920 -38.1919 -38.1918 -38.1917 -38.1915 -38.1913 -38.1912
   -38.1906 -38.1905 -38.1905 -38.1904 -38.1900 -38.1898 -38.1897 -38.1896
   -38.1891 -38.1889 -38.1888 -38.1888 -38.1887 -38.1886 -38.1885 -38.1884
     1.2284   2.0238   2.3003   2.3418   2.4024   2.4366   2.4376   2.4529
     2.4560   2.4971   2.5729   2.5853   2.6200   2.6793   2.6827   2.7125
     2.7160   2.7237   2.7288   2.7307   2.7349   2.7522   2.7785   2.7846
     2.7967   2.8407   2.8743   2.8846   2.9068   2.9134   2.9155   2.9441
     2.9486   2.9934   3.0061   3.0093   3.0151   3.0204   3.0255   3.0259
     3.0451   3.1641   3.1757   3.1929   3.1951   3.2044   3.2059   3.2098
     3.2174   3.2573   3.2579   3.2837   3.2907   3.3069   3.3168   3.3187
     3.3294   3.3298   3.3346   3.3372   3.3469   3.3682   3.3713   3.3763
     3.3857   3.3863   3.3966   3.3993   3.3998   3.4393   3.4547   3.4636
     3.4749   3.4775   3.4862   3.5174   3.5270   3.5456   3.5501   3.5614
     3.5927   3.6033   3.6573   3.7850   4.0072   4.0908   4.4282   4.4806
     4.7776   4.9051

          k = 0.0370 0.1111 0.2593 ( 50884 PWs)   bands (ev):

   -68.1814 -68.1813 -68.1811 -68.1811 -68.1811 -68.1811 -68.1811 -68.1810
   -68.1810 -68.1810 -68.1810 -68.1810 -68.1810 -68.1810 -68.1809 -68.1808
   -38.1964 -38.1961 -38.1960 -38.1960 -38.1958 -38.1955 -38.1955 -38.1954
   -38.1951 -38.1951 -38.1951 -38.1950 -38.1948 -38.1947 -38.1941 -38.1941
   -38.1939 -38.1931 -38.1927 -38.1926 -38.1924 -38.1923 -38.1923 -38.1922
   -38.1921 -38.1920 -38.1918 -38.1917 -38.1914 -38.1913 -38.1912 -38.1907
   -38.1901 -38.1900 -38.1900 -38.1900 -38.1899 -38.1896 -38.1896 -38.1893
   -38.1892 -38.1892 -38.1891 -38.1891 -38.1891 -38.1889 -38.1887 -38.1886
     1.3709   1.7776   2.3242   2.3409   2.4279   2.4784   2.4833   2.5086
     2.5089   2.5161   2.5786   2.6079   2.6286   2.6287   2.6388   2.6649
     2.6986   2.7173   2.7262   2.7311   2.7538   2.7607   2.7712   2.7892
     2.7937   2.8349   2.8544   2.8679   2.8808   2.9128   2.9287   2.9309
     2.9505   2.9763   2.9811   3.0240   3.0377   3.0584   3.0644   3.1008
     3.1122   3.1222   3.1512   3.1730   3.2109   3.2126   3.2323   3.2426
     3.2436   3.2441   3.2529   3.2542   3.2663   3.2808   3.2982   3.2996
     3.3074   3.3205   3.3220   3.3461   3.3470   3.3517   3.3751   3.3753
     3.3844   3.3871   3.3967   3.3970   3.4041   3.4121   3.4257   3.4401
     3.4543   3.4585   3.4834   3.5082   3.5119   3.5206   3.5452   3.5643
     3.5816   3.5869   3.6331   3.7836   3.8909   4.2297   4.2307   4.5870
     4.6338   5.0361

          k = 0.0370 0.1111-0.3333 ( 50890 PWs)   bands (ev):

   -68.1813 -68.1813 -68.1811 -68.1811 -68.1811 -68.1811 -68.1810 -68.1810
   -68.1810 -68.1810 -68.1810 -68.1810 -68.1810 -68.1810 -68.1808 -68.1808
   -38.1960 -38.1960 -38.1956 -38.1956 -38.1956 -38.1956 -38.1956 -38.1956
   -38.1953 -38.1953 -38.1953 -38.1953 -38.1948 -38.1948 -38.1944 -38.1944
   -38.1936 -38.1936 -38.1926 -38.1926 -38.1925 -38.1925 -38.1922 -38.1922
   -38.1921 -38.1921 -38.1917 -38.1917 -38.1913 -38.1913 -38.1907 -38.1907
   -38.1901 -38.1901 -38.1896 -38.1896 -38.1895 -38.1895 -38.1895 -38.1895
   -38.1895 -38.1895 -38.1892 -38.1892 -38.1890 -38.1890 -38.1889 -38.1889
     1.5561   1.5561   2.3372   2.3372   2.4573   2.4573   2.5277   2.5277
     2.5678   2.5678   2.5831   2.5831   2.5901   2.5901   2.6516   2.6516
     2.6776   2.6776   2.7286   2.7286   2.7504   2.7504   2.8025   2.8025
     2.8175   2.8175   2.8414   2.8414   2.8944   2.8945   2.9169   2.9169
     2.9611   2.9611   3.0326   3.0327   3.0862   3.0862   3.1022   3.1022
     3.1180   3.1180   3.1579   3.1579   3.2040   3.2040   3.2045   3.2045
     3.2489   3.2489   3.2576   3.2576   3.2752   3.2752   3.2878   3.2878
     3.3055   3.3055   3.3147   3.3147   3.3613   3.3613   3.3629   3.3629
     3.3911   3.3911   3.3995   3.3995   3.4019   3.4019   3.4174   3.4174
     3.4549   3.4549   3.4767   3.4767   3.5265   3.5265   3.5586   3.5586
     3.5952   3.5952   3.6500   3.6500   4.0371   4.0371   4.4098   4.4098
     4.7900   4.7900

          k = 0.0370 0.1852 0.1852 ( 50874 PWs)   bands (ev):

   -68.1814 -68.1812 -68.1812 -68.1811 -68.1811 -68.1811 -68.1811 -68.1810
   -68.1810 -68.1810 -68.1810 -68.1810 -68.1810 -68.1809 -68.1809 -68.1808
   -38.1966 -38.1962 -38.1962 -38.1960 -38.1960 -38.1958 -38.1954 -38.1953
   -38.1953 -38.1949 -38.1949 -38.1949 -38.1947 -38.1945 -38.1940 -38.1933
   -38.1933 -38.1928 -38.1927 -38.1927 -38.1926 -38.1924 -38.1923 -38.1923
   -38.1921 -38.1919 -38.1919 -38.1919 -38.1919 -38.1918 -38.1913 -38.1906
   -38.1906 -38.1903 -38.1902 -38.1901 -38.1900 -38.1897 -38.1896 -38.1893
   -38.1893 -38.1890 -38.1890 -38.1890 -38.1888 -38.1888 -38.1884 -38.1883
     1.3228   2.0789   2.0790   2.3077   2.4531   2.4531   2.4802   2.4802
     2.5051   2.5113   2.5949   2.6176   2.6201   2.6517   2.6825   2.7038
     2.7038   2.7363   2.7363   2.7399   2.7534   2.7534   2.8192   2.8226
     2.8226   2.8289   2.8594   2.8617   2.8841   2.8921   2.8921   2.8959
     2.9470   3.0013   3.0049   3.0051   3.0051   3.0240   3.0281   3.0624
     3.1011   3.1011   3.1393   3.2078   3.2078   3.2106   3.2224   3.2435
     3.2435   3.2449   3.2449   3.2587   3.2741   3.2741   3.2788   3.2788
     3.3092   3.3242   3.3242   3.3266   3.3378   3.3378   3.3669   3.3787
     3.3799   3.3852   3.3877   3.3972   3.4020   3.4180   3.4490   3.4591
     3.4591   3.4687   3.4687   3.4742   3.4928   3.5236   3.5236   3.5317
     3.5317   3.6147   3.6603   3.7098   3.8804   4.2006   4.6320   4.6320
     4.9005   4.9005

          k = 0.0370 0.1852 0.2593 ( 50907 PWs)   bands (ev):

   -68.1813 -68.1813 -68.1812 -68.1811 -68.1811 -68.1811 -68.1811 -68.1811
   -68.1810 -68.1810 -68.1810 -68.1810 -68.1810 -68.1809 -68.1809 -68.1808
   -38.1965 -38.1959 -38.1959 -38.1958 -38.1958 -38.1958 -38.1957 -38.1955
   -38.1953 -38.1952 -38.1951 -38.1949 -38.1948 -38.1946 -38.1938 -38.1936
   -38.1935 -38.1932 -38.1928 -38.1927 -38.1925 -38.1924 -38.1924 -38.1923
   -38.1921 -38.1920 -38.1920 -38.1919 -38.1918 -38.1912 -38.1911 -38.1907
   -38.1907 -38.1901 -38.1901 -38.1899 -38.1898 -38.1897 -38.1895 -38.1893
   -38.1892 -38.1892 -38.1891 -38.1890 -38.1889 -38.1889 -38.1885 -38.1884
     1.4615   1.8508   2.1469   2.2667   2.4750   2.5125   2.5164   2.5199
     2.5347   2.5585   2.5970   2.6239   2.6240   2.6442   2.6630   2.6631
     2.6889   2.7431   2.7620   2.7626   2.7700   2.7720   2.7916   2.7957
     2.8297   2.8399   2.8544   2.8575   2.8799   2.8826   2.8844   2.8880
     2.9537   2.9849   3.0184   3.0254   3.0321   3.0489   3.0533   3.0567
     3.0704   3.1097   3.1583   3.1662   3.1834   3.2045   3.2162   3.2190
     3.2353   3.2398   3.2421   3.2471   3.2528   3.2537   3.2711   3.2924
     3.3066   3.3067   3.3139   3.3155   3.3365   3.3409   3.3447   3.3472
     3.3673   3.3681   3.3749   3.4000   3.4095   3.4162   3.4164   3.4233
     3.4244   3.4329   3.4554   3.4582   3.4631   3.4656   3.5085   3.5393
     3.5693   3.5826   3.6126   3.6486   4.0114   4.3508   4.3801   4.7657
     4.8136   5.0747

          k = 0.0370 0.1852-0.3333 ( 50878 PWs)   bands (ev):

   -68.1813 -68.1813 -68.1812 -68.1812 -68.1811 -68.1811 -68.1811 -68.1810
   -68.1810 -68.1810 -68.1810 -68.1810 -68.1809 -68.1809 -68.1808 -68.1808
   -38.1962 -38.1962 -38.1957 -38.1957 -38.1956 -38.1956 -38.1955 -38.1955
   -38.1955 -38.1955 -38.1953 -38.1953 -38.1942 -38.1942 -38.1942 -38.1942
   -38.1930 -38.1930 -38.1930 -38.1930 -38.1926 -38.1926 -38.1924 -38.1924
   -38.1920 -38.1920 -38.1918 -38.1918 -38.1914 -38.1914 -38.1909 -38.1909
   -38.1906 -38.1906 -38.1897 -38.1897 -38.1895 -38.1895 -38.1895 -38.1895
   -38.1894 -38.1894 -38.1892 -38.1892 -38.1887 -38.1887 -38.1886 -38.1886
     1.6402   1.6402   2.2129   2.2129   2.4976   2.4976   2.5580   2.5580
     2.5861   2.5861   2.5892   2.5892   2.6127   2.6127   2.6576   2.6576
     2.7159   2.7159   2.7618   2.7618   2.7882   2.7882   2.7958   2.7958
     2.8156   2.8156   2.8306   2.8306   2.8769   2.8769   2.9434   2.9434
     2.9662   2.9662   2.9773   2.9773   3.0789   3.0789   3.0869   3.0869
     3.1303   3.1303   3.1404   3.1404   3.1514   3.1514   3.1614   3.1614
     3.2340   3.2340   3.2385   3.2385   3.2752   3.2752   3.2828   3.2828
     3.2849   3.2849   3.2964   3.2964   3.3526   3.3526   3.3528   3.3528
     3.3535   3.3535   3.3916   3.3916   3.4016   3.4016   3.4064   3.4064
     3.4268   3.4268   3.4460   3.4460   3.4680   3.4680   3.4871   3.4871
     3.5970   3.5970   3.6223   3.6223   4.1762   4.1762   4.5384   4.5384
     5.0135   5.0135

          k = 0.0370 0.2593 0.2593 ( 50899 PWs)   bands (ev):

   -68.1813 -68.1812 -68.1812 -68.1812 -68.1811 -68.1811 -68.1811 -68.1811
   -68.1810 -68.1810 -68.1810 -68.1810 -68.1809 -68.1809 -68.1809 -68.1808
   -38.1964 -38.1959 -38.1959 -38.1959 -38.1957 -38.1957 -38.1956 -38.1955
   -38.1954 -38.1953 -38.1953 -38.1951 -38.1944 -38.1942 -38.1936 -38.1936
   -38.1931 -38.1930 -38.1928 -38.1928 -38.1927 -38.1925 -38.1925 -38.1925
   -38.1920 -38.1919 -38.1919 -38.1918 -38.1918 -38.1918 -38.1914 -38.1908
   -38.1906 -38.1903 -38.1903 -38.1896 -38.1896 -38.1896 -38.1895 -38.1894
   -38.1893 -38.1893 -38.1892 -38.1892 -38.1886 -38.1886 -38.1884 -38.1884
     1.5934   1.9509   1.9509   2.1737   2.5326   2.5326   2.5352   2.5591
     2.5591   2.6008   2.6043   2.6110   2.6202   2.6429   2.6709   2.6709
     2.7124   2.7756   2.7811   2.7811   2.8002   2.8002   2.8195   2.8311
     2.8311   2.8362   2.8362   2.8452   2.8461   2.8500   2.8586   2.9442
     2.9634   2.9818   3.0035   3.0166   3.0166   3.0210   3.0315   3.0505
     3.0880   3.0880   3.1224   3.1225   3.1236   3.1237   3.1657   3.2030
     3.2319   3.2363   3.2609   3.2609   3.2686   3.2690   3.2690   3.2741
     3.2870   3.2870   3.3077   3.3127   3.3207   3.3207   3.3225   3.3225
     3.3541   3.3558   3.3621   3.3703   3.3800   3.4033   3.4033   3.4046
     3.4172   3.4271   3.4271   3.4293   3.4317   3.4567   3.4615   3.4615
     3.6096   3.6096   3.6256   3.6501   4.1639   4.5109   4.5587   4.5587
     4.9336   4.9336

          k = 0.0370 0.2593-0.3333 ( 50862 PWs)   bands (ev):

   -68.1813 -68.1813 -68.1812 -68.1812 -68.1811 -68.1811 -68.1810 -68.1810
   -68.1810 -68.1810 -68.1810 -68.1810 -68.1809 -68.1809 -68.1809 -68.1809
   -38.1962 -38.1962 -38.1960 -38.1960 -38.1955 -38.1955 -38.1955 -38.1955
   -38.1954 -38.1954 -38.1953 -38.1953 -38.1940 -38.1940 -38.1935 -38.1935
   -38.1934 -38.1934 -38.1926 -38.1926 -38.1925 -38.1925 -38.1924 -38.1924
   -38.1921 -38.1921 -38.1919 -38.1919 -38.1919 -38.1919 -38.1912 -38.1912
   -38.1905 -38.1905 -38.1899 -38.1899 -38.1894 -38.1894 -38.1894 -38.1894
   -38.1894 -38.1894 -38.1892 -38.1892 -38.1885 -38.1885 -38.1884 -38.1884
     1.7602   1.7602   2.0641   2.0642   2.5407   2.5407   2.5845   2.5845
     2.5846   2.5846   2.5920   2.5920   2.6426   2.6426   2.6610   2.6610
     2.7706   2.7706   2.8008   2.8008   2.8032   2.8032   2.8229   2.8229
     2.8249   2.8249   2.8322   2.8322   2.8427   2.8427   2.9040   2.9040
     2.9836   2.9836   3.0130   3.0130   3.0399   3.0399   3.0549   3.0549
     3.0582   3.0582   3.0778   3.0778   3.0869   3.0869   3.1595   3.1595
     3.2247   3.2247   3.2386   3.2386   3.2930   3.2930   3.2956   3.2956
     3.2969   3.2969   3.2992   3.2992   3.3065   3.3065   3.3378   3.3378
     3.3388   3.3388   3.3556   3.3556   3.3799   3.3799   3.3901   3.3902
     3.4122   3.4122   3.4280   3.4280   3.4324   3.4324   3.4569   3.4569
     3.6244   3.6244   3.6370   3.6370   4.3449   4.3449   4.7046   4.7046
     4.7589   4.7589

          k = 0.0370-0.3333-0.3333 ( 50884 PWs)   bands (ev):

   -68.1813 -68.1813 -68.1813 -68.1812 -68.1811 -68.1811 -68.1811 -68.1811
   -68.1810 -68.1810 -68.1810 -68.1810 -68.1809 -68.1809 -68.1809 -68.1809
   -38.1962 -38.1962 -38.1962 -38.1962 -38.1955 -38.1955 -38.1955 -38.1955
   -38.1954 -38.1954 -38.1954 -38.1954 -38.1937 -38.1937 -38.1937 -38.1937
   -38.1928 -38.1928 -38.1928 -38.1928 -38.1926 -38.1926 -38.1926 -38.1926
   -38.1919 -38.1919 -38.1919 -38.1919 -38.1918 -38.1918 -38.1918 -38.1918
   -38.1902 -38.1902 -38.1902 -38.1902 -38.1894 -38.1894 -38.1894 -38.1894
   -38.1893 -38.1893 -38.1893 -38.1893 -38.1884 -38.1884 -38.1884 -38.1884
     1.9066   1.9066   1.9066   1.9066   2.5708   2.5709   2.5709   2.5709
     2.5948   2.5948   2.5948   2.5948   2.6576   2.6576   2.6576   2.6577
     2.8168   2.8168   2.8168   2.8168   2.8288   2.8288   2.8288   2.8288
     2.8356   2.8357   2.8357   2.8357   2.8401   2.8401   2.8401   2.8401
     3.0160   3.0160   3.0160   3.0160   3.0222   3.0222   3.0222   3.0222
     3.0469   3.0469   3.0469   3.0469   3.0830   3.0830   3.0830   3.0830
     3.2648   3.2648   3.2648   3.2648   3.2899   3.2899   3.2899   3.2899
     3.3015   3.3015   3.3015   3.3016   3.3173   3.3173   3.3173   3.3173
     3.3200   3.3200   3.3200   3.3200   3.3748   3.3748   3.3748   3.3748
     3.4183   3.4183   3.4183   3.4183   3.4401   3.4401   3.4401   3.4401
     3.6380   3.6380   3.6380   3.6380   4.5381   4.5382   4.5382   4.5382
     4.9009   4.9009

          k = 0.1111 0.1111 0.1111 ( 50850 PWs)   bands (ev):

   -68.1814 -68.1812 -68.1812 -68.1811 -68.1811 -68.1811 -68.1811 -68.1810
   -68.1810 -68.1810 -68.1810 -68.1810 -68.1810 -68.1810 -68.1810 -68.1808
   -38.1966 -38.1966 -38.1966 -38.1962 -38.1962 -38.1962 -38.1955 -38.1955
   -38.1946 -38.1946 -38.1945 -38.1945 -38.1945 -38.1936 -38.1936 -38.1930
   -38.1930 -38.1930 -38.1930 -38.1930 -38.1930 -38.1922 -38.1922 -38.1922
   -38.1917 -38.1917 -38.1917 -38.1916 -38.1916 -38.1916 -38.1914 -38.1914
   -38.1911 -38.1911 -38.1911 -38.1905 -38.1900 -38.1900 -38.1900 -38.1895
   -38.1888 -38.1888 -38.1888 -38.1885 -38.1885 -38.1884 -38.1884 -38.1884
     1.1802   2.2928   2.2928   2.2928   2.3754   2.3754   2.3754   2.4358
     2.4358   2.4358   2.5655   2.5655   2.6810   2.7138   2.7139   2.7139
     2.7191   2.7191   2.7191   2.7457   2.7457   2.7457   2.7840   2.7840
     2.8305   2.8305   2.8305   2.9248   2.9248   2.9372   2.9372   2.9502
     2.9502   2.9502   2.9533   2.9830   2.9830   2.9831   3.0164   3.0855
     3.0855   3.0855   3.1529   3.1529   3.1529   3.2186   3.2186   3.2186
     3.2786   3.2786   3.2786   3.3083   3.3083   3.3083   3.3099   3.3099
     3.3099   3.3278   3.3278   3.3278   3.3542   3.3542   3.3897   3.3897
     3.3897   3.3925   3.3925   3.3951   3.3951   3.4453   3.4453   3.4453
     3.4596   3.5242   3.5242   3.5242   3.5490   3.5490   3.5490   3.5833
     3.5833   3.6226   3.6226   3.6226   4.3770   4.3770   4.3770   4.4231
     4.4231   4.4231

          k = 0.1111 0.1111 0.1852 ( 50881 PWs)   bands (ev):

   -68.1814 -68.1812 -68.1811 -68.1811 -68.1811 -68.1811 -68.1811 -68.1811
   -68.1810 -68.1810 -68.1810 -68.1810 -68.1810 -68.1810 -68.1809 -68.1808
   -38.1965 -38.1965 -38.1964 -38.1961 -38.1958 -38.1958 -38.1956 -38.1953
   -38.1950 -38.1950 -38.1949 -38.1949 -38.1943 -38.1941 -38.1936 -38.1936
   -38.1935 -38.1933 -38.1929 -38.1929 -38.1924 -38.1924 -38.1924 -38.1924
   -38.1921 -38.1917 -38.1916 -38.1915 -38.1915 -38.1911 -38.1911 -38.1911
   -38.1911 -38.1907 -38.1905 -38.1901 -38.1899 -38.1896 -38.1896 -38.1895
   -38.1891 -38.1891 -38.1890 -38.1888 -38.1887 -38.1885 -38.1885 -38.1885
     1.2758   2.0551   2.3235   2.3235   2.3723   2.3723   2.4312   2.4771
     2.4771   2.4785   2.5888   2.5977   2.6524   2.6962   2.6962   2.7148
     2.7305   2.7305   2.7439   2.7472   2.7555   2.7636   2.7726   2.7816
     2.7816   2.8473   2.8473   2.8881   2.9067   2.9067   2.9113   2.9267
     2.9458   2.9514   2.9788   2.9831   2.9831   3.0108   3.0407   3.0407
     3.0539   3.1223   3.1834   3.1955   3.1955   3.2044   3.2044   3.2331
     3.2331   3.2586   3.2622   3.2774   3.2926   3.2926   3.3093   3.3093
     3.3220   3.3338   3.3350   3.3644   3.3664   3.3664   3.3685   3.3685
     3.3849   3.3874   3.3903   3.3924   3.3936   3.3999   3.4044   3.4636
     3.4715   3.4715   3.4827   3.4827   3.4911   3.5396   3.5524   3.5823
     3.5823   3.5912   3.6188   3.6188   4.1278   4.1278   4.4904   4.4904
     4.5844   4.8411

          k = 0.1111 0.1111 0.2593 ( 50927 PWs)   bands (ev):

   -68.1813 -68.1813 -68.1811 -68.1811 -68.1811 -68.1811 -68.1811 -68.1811
   -68.1810 -68.1810 -68.1810 -68.1810 -68.1810 -68.1810 -68.1809 -68.1808
   -38.1963 -38.1963 -38.1960 -38.1958 -38.1956 -38.1955 -38.1955 -38.1954
   -38.1954 -38.1952 -38.1952 -38.1950 -38.1949 -38.1942 -38.1942 -38.1941
   -38.1937 -38.1930 -38.1929 -38.1928 -38.1927 -38.1926 -38.1926 -38.1926
   -38.1917 -38.1917 -38.1917 -38.1914 -38.1914 -38.1912 -38.1912 -38.1905
   -38.1905 -38.1905 -38.1901 -38.1900 -38.1898 -38.1895 -38.1895 -38.1892
   -38.1892 -38.1892 -38.1892 -38.1891 -38.1891 -38.1887 -38.1887 -38.1887
     1.4167   1.8163   2.3515   2.3515   2.3718   2.3718   2.5085   2.5278
     2.5278   2.5324   2.6227   2.6232   2.6406   2.6449   2.6449   2.6908
     2.7167   2.7178   2.7271   2.7362   2.7566   2.7601   2.7601   2.8262
     2.8262   2.8306   2.8519   2.8519   2.8825   2.8825   2.9047   2.9202
     2.9304   2.9441   3.0080   3.0080   3.0318   3.0319   3.0539   3.0908
     3.0979   3.1203   3.1203   3.1775   3.2022   3.2250   3.2275   3.2359
     3.2359   3.2442   3.2442   3.2472   3.2472   3.2737   3.2770   3.2770
     3.3042   3.3206   3.3278   3.3278   3.3395   3.3442   3.3502   3.3743
     3.3746   3.3786   3.3909   3.3921   3.4060   3.4060   3.4111   3.4216
     3.4444   3.4444   3.4811   3.4832   3.5264   3.5264   3.5316   3.5841
     3.5995   3.5995   3.6490   3.6490   3.9092   3.9092   4.6507   4.6507
     4.7726   5.0997

          k = 0.1111 0.1111-0.3333 ( 50944 PWs)   bands (ev):

   -68.1813 -68.1813 -68.1811 -68.1811 -68.1811 -68.1811 -68.1811 -68.1811
   -68.1810 -68.1810 -68.1810 -68.1810 -68.1810 -68.1810 -68.1808 -68.1808
   -38.1960 -38.1959 -38.1959 -38.1959 -38.1955 -38.1955 -38.1955 -38.1955
   -38.1954 -38.1954 -38.1948 -38.1948 -38.1948 -38.1948 -38.1946 -38.1946
   -38.1932 -38.1932 -38.1928 -38.1928 -38.1927 -38.1927 -38.1927 -38.1927
   -38.1918 -38.1917 -38.1913 -38.1913 -38.1913 -38.1913 -38.1911 -38.1911
   -38.1900 -38.1900 -38.1900 -38.1900 -38.1896 -38.1896 -38.1895 -38.1895
   -38.1894 -38.1894 -38.1889 -38.1889 -38.1889 -38.1889 -38.1889 -38.1889
     1.5992   1.5992   2.3672   2.3672   2.3672   2.3672   2.5842   2.5842
     2.5854   2.5854   2.5854   2.5854   2.5991   2.5991   2.6660   2.6660
     2.6874   2.6874   2.7243   2.7243   2.7830   2.7830   2.8014   2.8014
     2.8014   2.8014   2.8710   2.8710   2.8710   2.8710   2.9070   2.9070
     2.9362   2.9362   3.0416   3.0416   3.0416   3.0416   3.1247   3.1247
     3.1247   3.1247   3.1477   3.1477   3.1560   3.1560   3.1678   3.1678
     3.2463   3.2463   3.2617   3.2617   3.2617   3.2617   3.2671   3.2671
     3.2892   3.2892   3.2892   3.2892   3.3579   3.3579   3.3620   3.3620
     3.3916   3.3916   3.3968   3.3968   3.4139   3.4139   3.4282   3.4282
     3.4282   3.4282   3.4357   3.4357   3.5634   3.5634   3.5674   3.5674
     3.5674   3.5674   3.7554   3.7554   3.7554   3.7554   4.8540   4.8540
     4.8540   4.8540

          k = 0.1111 0.1852 0.1852 ( 50890 PWs)   bands (ev):

   -68.1813 -68.1812 -68.1812 -68.1811 -68.1811 -68.1811 -68.1811 -68.1811
   -68.1810 -68.1810 -68.1810 -68.1810 -68.1810 -68.1809 -68.1809 -68.1808
   -38.1965 -38.1963 -38.1963 -38.1957 -38.1957 -38.1956 -38.1954 -38.1953
   -38.1953 -38.1952 -38.1952 -38.1951 -38.1945 -38.1940 -38.1937 -38.1935
   -38.1935 -38.1935 -38.1930 -38.1930 -38.1930 -38.1927 -38.1926 -38.1926
   -38.1916 -38.1916 -38.1916 -38.1916 -38.1914 -38.1913 -38.1912 -38.1906
   -38.1906 -38.1906 -38.1905 -38.1905 -38.1899 -38.1895 -38.1894 -38.1892
   -38.1892 -38.1892 -38.1892 -38.1889 -38.1887 -38.1887 -38.1885 -38.1884
     1.3694   2.1118   2.1118   2.3414   2.3615   2.4305   2.4305   2.5146
     2.5146   2.5243   2.6129   2.6274   2.6333   2.6996   2.7254   2.7256
     2.7256   2.7311   2.7311   2.7394   2.7802   2.7802   2.7880   2.8068
     2.8068   2.8212   2.8286   2.8925   2.8925   2.8949   2.8954   2.9078
     2.9220   2.9494   2.9517   2.9604   2.9604   3.0064   3.0273   3.0618
     3.0618   3.0996   3.1337   3.1894   3.1894   3.2167   3.2167   3.2181
     3.2541   3.2736   3.2774   3.2774   3.2855   3.2855   3.3069   3.3094
     3.3094   3.3205   3.3275   3.3275   3.3328   3.3392   3.3392   3.3593
     3.3656   3.3795   3.3848   3.3851   3.3903   3.3964   3.4028   3.4065
     3.4065   3.4678   3.4678   3.4860   3.5166   3.5238   3.5238   3.5575
     3.5575   3.5914   3.6269   3.6536   3.8630   4.2967   4.2967   4.6068
     4.9623   4.9623

          k = 0.1111 0.1852 0.2593 ( 50918 PWs)   bands (ev):

   -68.1813 -68.1813 -68.1812 -68.1811 -68.1811 -68.1811 -68.1811 -68.1811
   -68.1810 -68.1810 -68.1810 -68.1810 -68.1810 -68.1809 -68.1809 -68.1808
   -38.1964 -38.1961 -38.1959 -38.1957 -38.1957 -38.1956 -38.1955 -38.1955
   -38.1954 -38.1953 -38.1950 -38.1949 -38.1949 -38.1944 -38.1940 -38.1936
   -38.1934 -38.1933 -38.1932 -38.1930 -38.1930 -38.1928 -38.1928 -38.1923
   -38.1921 -38.1915 -38.1914 -38.1914 -38.1912 -38.1911 -38.1910 -38.1910
   -38.1907 -38.1903 -38.1901 -38.1900 -38.1900 -38.1896 -38.1895 -38.1893
   -38.1892 -38.1892 -38.1890 -38.1889 -38.1889 -38.1889 -38.1886 -38.1885
     1.5068   1.8900   2.1818   2.3026   2.3988   2.4301   2.5101   2.5584
     2.5602   2.5770   2.6169   2.6426   2.6649   2.6715   2.6783   2.6835
     2.7113   2.7344   2.7609   2.7611   2.7668   2.7674   2.7894   2.8172
     2.8396   2.8434   2.8527   2.8660   2.8672   2.8679   2.8794   2.8811
     2.9244   2.9426   2.9769   2.9870   3.0013   3.0064   3.0174   3.0540
     3.0546   3.1046   3.1108   3.1521   3.1597   3.1691   3.1816   3.2093
     3.2431   3.2484   3.2527   3.2544   3.2626   3.2673   3.2714   3.2722
     3.2971   3.3129   3.3166   3.3171   3.3311   3.3352   3.3424   3.3685
     3.3695   3.3726   3.3811   3.3908   3.3927   3.3949   3.4100   3.4124
     3.4143   3.4168   3.4632   3.4944   3.4949   3.5020   3.5466   3.5577
     3.5625   3.5922   3.6188   3.6863   3.7605   4.0723   4.4863   4.7685
     4.9123   5.1338

          k = 0.1111 0.1852-0.3333 ( 50930 PWs)   bands (ev):

   -68.1813 -68.1813 -68.1812 -68.1812 -68.1811 -68.1811 -68.1811 -68.1811
   -68.1810 -68.1810 -68.1810 -68.1810 -68.1810 -68.1810 -68.1809 -68.1809
   -38.1961 -38.1961 -38.1958 -38.1958 -38.1957 -38.1957 -38.1955 -38.1955
   -38.1954 -38.1954 -38.1949 -38.1949 -38.1945 -38.1945 -38.1943 -38.1943
   -38.1932 -38.1932 -38.1931 -38.1931 -38.1929 -38.1929 -38.1927 -38.1927
   -38.1917 -38.1917 -38.1915 -38.1915 -38.1913 -38.1913 -38.1908 -38.1908
   -38.1905 -38.1905 -38.1898 -38.1898 -38.1896 -38.1896 -38.1895 -38.1895
   -38.1894 -38.1894 -38.1890 -38.1890 -38.1887 -38.1887 -38.1887 -38.1887
     1.6832   1.6832   2.2492   2.2492   2.4220   2.4220   2.5943   2.5943
     2.5999   2.5999   2.6124   2.6124   2.6317   2.6317   2.6775   2.6775
     2.7209   2.7209   2.7441   2.7442   2.7950   2.7950   2.8028   2.8028
     2.8193   2.8193   2.8455   2.8455   2.8752   2.8752   2.9028   2.9028
     2.9309   2.9310   2.9895   2.9895   3.0442   3.0442   3.0566   3.0566
     3.0741   3.0741   3.0854   3.0854   3.1124   3.1124   3.1683   3.1683
     3.2101   3.2101   3.2606   3.2606   3.2830   3.2830   3.2848   3.2848
     3.2879   3.2879   3.2892   3.2892   3.3535   3.3535   3.3552   3.3552
     3.3875   3.3875   3.3920   3.3920   3.3966   3.3966   3.3996   3.3996
     3.4139   3.4139   3.4461   3.4461   3.5255   3.5255   3.5693   3.5693
     3.5812   3.5812   3.5962   3.5962   3.8981   3.8981   4.6909   4.6910
     4.9711   4.9711

          k = 0.1111 0.2593 0.2593 ( 50926 PWs)   bands (ev):

   -68.1813 -68.1812 -68.1812 -68.1812 -68.1811 -68.1811 -68.1811 -68.1811
   -68.1810 -68.1810 -68.1810 -68.1810 -68.1809 -68.1809 -68.1809 -68.1808
   -38.1963 -38.1959 -38.1959 -38.1958 -38.1958 -38.1958 -38.1955 -38.1953
   -38.1953 -38.1953 -38.1952 -38.1947 -38.1946 -38.1943 -38.1939 -38.1939
   -38.1934 -38.1933 -38.1931 -38.1930 -38.1930 -38.1930 -38.1930 -38.1927
   -38.1917 -38.1916 -38.1916 -38.1914 -38.1914 -38.1913 -38.1912 -38.1907
   -38.1905 -38.1902 -38.1902 -38.1900 -38.1897 -38.1895 -38.1895 -38.1895
   -38.1895 -38.1892 -38.1891 -38.1891 -38.1887 -38.1887 -38.1885 -38.1885
     1.6377   1.9907   1.9907   2.2129   2.4507   2.5067   2.5067   2.5927
     2.5927   2.6156   2.6237   2.6435   2.6620   2.6630   2.6932   2.6932
     2.7192   2.7671   2.7671   2.7743   2.7985   2.8214   2.8214   2.8276
     2.8276   2.8342   2.8353   2.8354   2.8506   2.8572   2.8763   2.9145
     2.9287   2.9399   2.9452   2.9663   2.9663   2.9802   3.0184   3.0347
     3.0347   3.0371   3.0736   3.0736   3.0894   3.0894   3.1114   3.1642
     3.2136   3.2628   3.2754   3.2758   3.2758   3.2950   3.3072   3.3072
     3.3120   3.3143   3.3223   3.3223   3.3259   3.3259   3.3454   3.3454
     3.3566   3.3645   3.3656   3.3791   3.3926   3.4013   3.4013   3.4083
     3.4083   3.4095   3.4164   3.4271   3.4870   3.4927   3.4927   3.5455
     3.5883   3.5883   3.6020   3.6226   3.8986   4.2528   4.2528   4.6670
     4.9298   5.3644

          k = 0.1111 0.2593-0.3333 ( 50926 PWs)   bands (ev):

   -68.1813 -68.1813 -68.1812 -68.1812 -68.1811 -68.1811 -68.1811 -68.1811
   -68.1810 -68.1810 -68.1810 -68.1810 -68.1809 -68.1809 -68.1809 -68.1809
   -38.1961 -38.1961 -38.1959 -38.1959 -38.1956 -38.1956 -38.1955 -38.1955
   -38.1953 -38.1953 -38.1951 -38.1951 -38.1943 -38.1943 -38.1936 -38.1936
   -38.1936 -38.1936 -38.1933 -38.1933 -38.1931 -38.1931 -38.1923 -38.1923
   -38.1921 -38.1921 -38.1913 -38.1913 -38.1912 -38.1912 -38.1910 -38.1910
   -38.1904 -38.1904 -38.1898 -38.1898 -38.1897 -38.1897 -38.1895 -38.1895
   -38.1894 -38.1894 -38.1891 -38.1891 -38.1886 -38.1886 -38.1886 -38.1886
     1.8030   1.8030   2.1044   2.1044   2.4890   2.4891   2.5850   2.5850
     2.6111   2.6111   2.6311   2.6311   2.6638   2.6638   2.6824   2.6824
     2.7746   2.7746   2.7844   2.7844   2.7995   2.7995   2.8122   2.8122
     2.8384   2.8384   2.8412   2.8412   2.8475   2.8475   2.8996   2.8996
     2.9418   2.9418   2.9725   2.9725   2.9808   2.9808   2.9867   2.9867
     3.0207   3.0207   3.0366   3.0366   3.0587   3.0587   3.0913   3.0913
     3.2791   3.2791   3.2801   3.2801   3.2994   3.2994   3.2997   3.2997
     3.3022   3.3022   3.3115   3.3115   3.3411   3.3411   3.3468   3.3468
     3.3602   3.3602   3.3768   3.3768   3.3795   3.3795   3.3960   3.3960
     3.4063   3.4063   3.4486   3.4486   3.4513   3.4513   3.4864   3.4864
     3.6016   3.6016   3.6117   3.6117   4.0606   4.0607   4.4495   4.4495
     5.1288   5.1288

          k = 0.1111-0.3333-0.3333 ( 50940 PWs)   bands (ev):

   -68.1812 -68.1812 -68.1812 -68.1812 -68.1811 -68.1811 -68.1811 -68.1811
   -68.1810 -68.1810 -68.1810 -68.1810 -68.1809 -68.1809 -68.1809 -68.1809
   -38.1960 -38.1960 -38.1960 -38.1960 -38.1955 -38.1955 -38.1955 -38.1955
   -38.1952 -38.1952 -38.1952 -38.1952 -38.1940 -38.1940 -38.1940 -38.1940
   -38.1933 -38.1933 -38.1933 -38.1933 -38.1930 -38.1930 -38.1930 -38.1930
   -38.1916 -38.1916 -38.1916 -38.1916 -38.1913 -38.1913 -38.1913 -38.1913
   -38.1901 -38.1901 -38.1901 -38.1901 -38.1896 -38.1896 -38.1896 -38.1896
   -38.1893 -38.1893 -38.1893 -38.1893 -38.1885 -38.1885 -38.1885 -38.1885
     1.9487   1.9487   1.9487   1.9487   2.5484   2.5484   2.5484   2.5484
     2.6277   2.6277   2.6277   2.6277   2.6796   2.6796   2.6796   2.6796
     2.8151   2.8151   2.8151   2.8151   2.8187   2.8187   2.8187   2.8187
     2.8386   2.8386   2.8386   2.8386   2.8503   2.8503   2.8503   2.8503
     2.9404   2.9404   2.9404   2.9404   2.9700   2.9700   2.9700   2.9700
     3.0226   3.0226   3.0226   3.0226   3.0328   3.0328   3.0328   3.0328
     3.3068   3.3068   3.3068   3.3068   3.3154   3.3154   3.3154   3.3154
     3.3220   3.3220   3.3220   3.3220   3.3336   3.3336   3.3336   3.3336
     3.3577   3.3577   3.3577   3.3577   3.3724   3.3724   3.3724   3.3724
     3.4008   3.4008   3.4008   3.4008   3.4615   3.4615   3.4615   3.4615
     3.6132   3.6132   3.6132   3.6132   4.2425   4.2425   4.2425   4.2425
     5.3193   5.3193

          k = 0.1852 0.1852 0.1852 ( 50909 PWs)   bands (ev):

   -68.1813 -68.1812 -68.1812 -68.1812 -68.1811 -68.1811 -68.1811 -68.1811
   -68.1810 -68.1810 -68.1810 -68.1810 -68.1809 -68.1809 -68.1809 -68.1808
   -38.1962 -38.1962 -38.1962 -38.1955 -38.1955 -38.1955 -38.1954 -38.1954
   -38.1954 -38.1954 -38.1954 -38.1952 -38.1942 -38.1942 -38.1936 -38.1936
   -38.1936 -38.1934 -38.1934 -38.1934 -38.1932 -38.1929 -38.1929 -38.1929
   -38.1913 -38.1913 -38.1913 -38.1912 -38.1912 -38.1912 -38.1910 -38.1907
   -38.1907 -38.1905 -38.1905 -38.1905 -38.1897 -38.1895 -38.1895 -38.1895
   -38.1891 -38.1891 -38.1891 -38.1888 -38.1888 -38.1887 -38.1887 -38.1887
     1.4614   2.1718   2.1718   2.1718   2.4063   2.4063   2.4063   2.5574
     2.5574   2.5574   2.6247   2.6466   2.6466   2.7389   2.7389   2.7389
     2.7520   2.7520   2.7520   2.7657   2.7657   2.7892   2.7892   2.7892
     2.8133   2.8133   2.8133   2.8798   2.8948   2.8948   2.8974   2.8974
     2.8974   2.9044   2.9044   2.9044   2.9615   2.9615   3.0189   3.0189
     3.0189   3.1209   3.1210   3.1210   3.1522   3.2149   3.2149   3.2149
     3.2395   3.2395   3.2395   3.2416   3.2991   3.2991   3.2991   3.3021
     3.3022   3.3022   3.3313   3.3313   3.3313   3.3444   3.3444   3.3777
     3.3777   3.3777   3.3809   3.3809   3.3849   3.3849   3.3849   3.3965
     3.3965   3.5043   3.5043   3.5043   3.5211   3.5211   3.5211   3.5481
     3.5481   3.5714   3.5715   3.5715   4.0375   4.0375   4.0375   4.8810
     5.0798   5.0798

          k = 0.1852 0.1852 0.2593 ( 50936 PWs)   bands (ev):

   -68.1813 -68.1812 -68.1812 -68.1812 -68.1811 -68.1811 -68.1811 -68.1811
   -68.1810 -68.1810 -68.1810 -68.1810 -68.1809 -68.1809 -68.1809 -68.1808
   -38.1961 -38.1961 -38.1959 -38.1957 -38.1957 -38.1956 -38.1956 -38.1953
   -38.1953 -38.1951 -38.1949 -38.1949 -38.1948 -38.1942 -38.1939 -38.1939
   -38.1939 -38.1936 -38.1936 -38.1932 -38.1932 -38.1932 -38.1928 -38.1927
   -38.1917 -38.1916 -38.1912 -38.1910 -38.1910 -38.1909 -38.1907 -38.1907
   -38.1906 -38.1906 -38.1901 -38.1900 -38.1899 -38.1899 -38.1896 -38.1895
   -38.1891 -38.1891 -38.1890 -38.1890 -38.1889 -38.1887 -38.1887 -38.1887
     1.5958   1.9649   2.2465   2.2465   2.3716   2.3716   2.4971   2.5921
     2.6077   2.6077   2.6211   2.6742   2.6908   2.7140   2.7164   2.7164
     2.7396   2.7479   2.7513   2.7604   2.7604   2.7639   2.8184   2.8295
     2.8295   2.8432   2.8432   2.8461   2.8461   2.8749   2.8758   2.8945
     2.8965   2.8986   2.9032   2.9313   2.9313   2.9879   2.9879   3.0153
     3.0351   3.0475   3.0475   3.0931   3.0981   3.0985   3.0985   3.1611
     3.2131   3.2676   3.2685   3.2685   3.2958   3.2958   3.3062   3.3062
     3.3194   3.3194   3.3231   3.3291   3.3415   3.3438   3.3601   3.3614
     3.3689   3.3813   3.3824   3.3845   3.3875   3.3875   3.3944   3.3944
     3.4160   3.4191   3.4909   3.5100   3.5333   3.5333   3.5482   3.5637
     3.5686   3.5686   3.5867   3.5867   3.8457   3.8457   4.2233   4.6387
     5.2456   5.2456

          k = 0.1852 0.1852-0.3333 ( 50922 PWs)   bands (ev):

   -68.1813 -68.1813 -68.1812 -68.1812 -68.1812 -68.1812 -68.1811 -68.1811
   -68.1810 -68.1810 -68.1810 -68.1810 -68.1810 -68.1810 -68.1809 -68.1809
   -38.1959 -38.1959 -38.1959 -38.1959 -38.1956 -38.1956 -38.1954 -38.1954
   -38.1953 -38.1953 -38.1947 -38.1947 -38.1944 -38.1944 -38.1944 -38.1944
   -38.1935 -38.1935 -38.1934 -38.1934 -38.1934 -38.1934 -38.1922 -38.1922
   -38.1922 -38.1922 -38.1910 -38.1910 -38.1908 -38.1908 -38.1908 -38.1908
   -38.1903 -38.1903 -38.1903 -38.1903 -38.1895 -38.1895 -38.1895 -38.1895
   -38.1895 -38.1895 -38.1889 -38.1889 -38.1889 -38.1889 -38.1888 -38.1888
     1.7670   1.7670   2.3180   2.3180   2.3180   2.3180   2.6049   2.6049
     2.6138   2.6138   2.6625   2.6625   2.6625   2.6625   2.7087   2.7087
     2.7359   2.7359   2.7432   2.7432   2.7956   2.7956   2.7956   2.7956
     2.8496   2.8496   2.8608   2.8608   2.8608   2.8608   2.8672   2.8672
     2.8951   2.8951   2.9851   2.9851   2.9915   2.9915   2.9915   2.9915
     2.9961   2.9961   2.9961   2.9961   3.0626   3.0626   3.0877   3.0877
     3.2801   3.2801   3.2967   3.2967   3.2971   3.2971   3.2971   3.2971
     3.2998   3.2998   3.2998   3.2998   3.3551   3.3551   3.3579   3.3579
     3.3801   3.3801   3.3837   3.3837   3.3934   3.3934   3.3934   3.3934
     3.4264   3.4264   3.4569   3.4569   3.5533   3.5533   3.5533   3.5533
     3.5632   3.5632   3.7008   3.7008   3.7008   3.7008   4.4220   4.4220
     5.4540   5.4540

          k = 0.1852 0.2593 0.2593 ( 50928 PWs)   bands (ev):

   -68.1813 -68.1812 -68.1812 -68.1812 -68.1812 -68.1811 -68.1811 -68.1811
   -68.1810 -68.1810 -68.1810 -68.1810 -68.1809 -68.1809 -68.1809 -68.1809
   -38.1960 -38.1958 -38.1958 -38.1957 -38.1957 -38.1956 -38.1956 -38.1952
   -38.1950 -38.1950 -38.1950 -38.1950 -38.1945 -38.1943 -38.1942 -38.1942
   -38.1941 -38.1938 -38.1936 -38.1935 -38.1935 -38.1933 -38.1933 -38.1922
   -38.1921 -38.1912 -38.1912 -38.1908 -38.1908 -38.1907 -38.1906 -38.1906
   -38.1904 -38.1903 -38.1901 -38.1901 -38.1899 -38.1897 -38.1897 -38.1896
   -38.1893 -38.1891 -38.1890 -38.1890 -38.1888 -38.1888 -38.1888 -38.1887
     1.7246   2.0672   2.0672   2.2889   2.3294   2.4676   2.4676   2.6324
     2.6351   2.6351   2.6568   2.6762   2.7008   2.7245   2.7323   2.7352
     2.7352   2.7620   2.7620   2.7724   2.7838   2.8161   2.8161   2.8169
     2.8358   2.8358   2.8364   2.8410   2.8410   2.8496   2.8547   2.8743
     2.8755   2.8867   2.9028   2.9028   2.9068   2.9740   2.9740   2.9763
     2.9777   2.9905   2.9905   2.9932   3.0080   3.0332   3.0332   3.0797
     3.2837   3.2900   3.2900   3.2900   3.3076   3.3209   3.3267   3.3317
     3.3317   3.3320   3.3323   3.3323   3.3553   3.3553   3.3563   3.3610
     3.3773   3.3798   3.3798   3.3802   3.3836   3.3848   3.3848   3.3942
     3.4280   3.4635   3.4635   3.4667   3.5117   3.5118   3.5118   3.5542
     3.5542   3.5587   3.5747   3.6836   3.7072   4.0157   4.0157   4.4042
     5.4018   5.7580

          k = 0.1852 0.2593-0.3333 ( 50950 PWs)   bands (ev):

   -68.1813 -68.1813 -68.1812 -68.1812 -68.1812 -68.1812 -68.1811 -68.1811
   -68.1810 -68.1810 -68.1810 -68.1810 -68.1809 -68.1809 -68.1809 -68.1809
   -38.1959 -38.1959 -38.1957 -38.1957 -38.1957 -38.1957 -38.1954 -38.1954
   -38.1951 -38.1951 -38.1947 -38.1947 -38.1946 -38.1946 -38.1939 -38.1939
   -38.1939 -38.1939 -38.1939 -38.1939 -38.1937 -38.1937 -38.1927 -38.1927
   -38.1917 -38.1917 -38.1907 -38.1907 -38.1907 -38.1907 -38.1907 -38.1907
   -38.1903 -38.1903 -38.1901 -38.1901 -38.1896 -38.1896 -38.1896 -38.1896
   -38.1894 -38.1894 -38.1891 -38.1891 -38.1888 -38.1888 -38.1888 -38.1888
     1.8861   1.8861   2.1820   2.1821   2.4102   2.4102   2.5784   2.5785
     2.6419   2.6419   2.6837   2.6837   2.7017   2.7017   2.7229   2.7229
     2.7702   2.7702   2.7819   2.7819   2.7978   2.7978   2.8022   2.8022
     2.8388   2.8388   2.8408   2.8408   2.8675   2.8675   2.8782   2.8782
     2.8902   2.8902   2.8958   2.8958   2.9100   2.9100   2.9346   2.9346
     2.9397   2.9397   2.9874   2.9875   3.0100   3.0100   3.0116   3.0116
     3.3103   3.3103   3.3117   3.3117   3.3128   3.3128   3.3307   3.3307
     3.3373   3.3373   3.3467   3.3467   3.3567   3.3567   3.3642   3.3642
     3.3757   3.3757   3.3779   3.3779   3.3822   3.3823   3.3897   3.3897
     3.4123   3.4123   3.4614   3.4614   3.5076   3.5076   3.5610   3.5610
     3.5621   3.5621   3.5676   3.5676   3.8482   3.8482   4.1997   4.1997
     5.5954   5.5954

          k = 0.1852-0.3333-0.3333 ( 50956 PWs)   bands (ev):

   -68.1812 -68.1812 -68.1812 -68.1812 -68.1811 -68.1811 -68.1811 -68.1811
   -68.1810 -68.1810 -68.1810 -68.1810 -68.1809 -68.1809 -68.1809 -68.1809
   -38.1958 -38.1958 -38.1958 -38.1958 -38.1955 -38.1955 -38.1955 -38.1955
   -38.1949 -38.1949 -38.1949 -38.1949 -38.1943 -38.1943 -38.1943 -38.1943
   -38.1939 -38.1939 -38.1939 -38.1939 -38.1933 -38.1933 -38.1933 -38.1933
   -38.1912 -38.1912 -38.1912 -38.1912 -38.1907 -38.1907 -38.1907 -38.1906
   -38.1899 -38.1899 -38.1899 -38.1899 -38.1898 -38.1898 -38.1898 -38.1898
   -38.1893 -38.1893 -38.1893 -38.1893 -38.1888 -38.1888 -38.1888 -38.1887
     2.0303   2.0303   2.0303   2.0303   2.5070   2.5070   2.5070   2.5070
     2.6716   2.6716   2.6716   2.6716   2.7213   2.7213   2.7213   2.7214
     2.8115   2.8115   2.8115   2.8115   2.8123   2.8123   2.8123   2.8123
     2.8437   2.8437   2.8437   2.8438   2.8511   2.8511   2.8511   2.8511
     2.8568   2.8568   2.8568   2.8568   2.9052   2.9052   2.9052   2.9052
     2.9462   2.9462   2.9462   2.9462   2.9868   2.9868   2.9868   2.9868
     3.3183   3.3183   3.3183   3.3183   3.3309   3.3309   3.3309   3.3309
     3.3609   3.3609   3.3609   3.3609   3.3676   3.3676   3.3676   3.3676
     3.3725   3.3725   3.3725   3.3725   3.3855   3.3855   3.3855   3.3855
     3.4537   3.4537   3.4537   3.4537   3.4743   3.4743   3.4743   3.4743
     3.5688   3.5688   3.5688   3.5688   4.0122   4.0122   4.0122   4.0122
     5.7646   5.7646

          k = 0.2593 0.2593 0.2593 ( 50960 PWs)   bands (ev):

   -68.1813 -68.1812 -68.1812 -68.1812 -68.1812 -68.1812 -68.1812 -68.1811
   -68.1810 -68.1810 -68.1810 -68.1810 -68.1809 -68.1809 -68.1809 -68.1809
   -38.1957 -38.1957 -38.1957 -38.1956 -38.1956 -38.1956 -38.1953 -38.1953
   -38.1950 -38.1947 -38.1947 -38.1946 -38.1946 -38.1946 -38.1943 -38.1943
   -38.1943 -38.1940 -38.1940 -38.1940 -38.1937 -38.1937 -38.1937 -38.1926
   -38.1918 -38.1908 -38.1908 -38.1908 -38.1904 -38.1904 -38.1904 -38.1901
   -38.1901 -38.1901 -38.1901 -38.1901 -38.1900 -38.1900 -38.1900 -38.1897
   -38.1891 -38.1891 -38.1891 -38.1891 -38.1891 -38.1890 -38.1890 -38.1890
     1.8496   2.1723   2.1723   2.1723   2.3965   2.3965   2.3965   2.6540
     2.6579   2.6854   2.6854   2.6854   2.7506   2.7506   2.7709   2.7709
     2.7709   2.7751   2.7751   2.7830   2.7830   2.7830   2.7954   2.7954
     2.7954   2.8376   2.8376   2.8376   2.8491   2.8491   2.8491   2.8520
     2.8520   2.8541   2.8541   2.8541   2.9122   2.9122   2.9122   2.9309
     2.9309   2.9309   2.9339   2.9339   2.9683   2.9683   2.9683   2.9967
     3.3080   3.3080   3.3080   3.3344   3.3344   3.3344   3.3430   3.3430
     3.3525   3.3525   3.3525   3.3654   3.3660   3.3660   3.3744   3.3744
     3.3744   3.3786   3.3786   3.3786   3.3824   3.3824   3.3824   3.4159
     3.4159   3.5026   3.5026   3.5175   3.5175   3.5175   3.5245   3.5245
     3.5245   3.5675   3.5675   3.5675   3.8343   3.8343   3.8343   4.1855
     5.8962   5.8962

          k = 0.2593 0.2593-0.3333 ( 50986 PWs)   bands (ev):

   -68.1812 -68.1812 -68.1812 -68.1812 -68.1812 -68.1812 -68.1811 -68.1811
   -68.1810 -68.1810 -68.1809 -68.1809 -68.1809 -68.1809 -68.1809 -68.1809
   -38.1956 -38.1956 -38.1956 -38.1956 -38.1955 -38.1955 -38.1952 -38.1952
   -38.1949 -38.1949 -38.1948 -38.1948 -38.1944 -38.1944 -38.1943 -38.1943
   -38.1943 -38.1943 -38.1942 -38.1942 -38.1942 -38.1942 -38.1932 -38.1932
   -38.1913 -38.1913 -38.1904 -38.1904 -38.1904 -38.1904 -38.1902 -38.1902
   -38.1901 -38.1901 -38.1901 -38.1901 -38.1899 -38.1899 -38.1895 -38.1895
   -38.1895 -38.1895 -38.1891 -38.1891 -38.1891 -38.1891 -38.1890 -38.1890
     2.0040   2.0041   2.2905   2.2905   2.2905   2.2905   2.5261   2.5261
     2.6827   2.6827   2.7392   2.7392   2.7392   2.7392   2.7712   2.7712
     2.7723   2.7724   2.7955   2.7955   2.7979   2.7979   2.7980   2.7980
     2.8300   2.8300   2.8330   2.8330   2.8435   2.8435   2.8435   2.8435
     2.8500   2.8500   2.8646   2.8646   2.8646   2.8646   2.8779   2.8779
     2.9228   2.9228   2.9228   2.9228   2.9310   2.9310   2.9546   2.9546
     3.3254   3.3254   3.3254   3.3254   3.3264   3.3264   3.3501   3.3501
     3.3611   3.3611   3.3706   3.3706   3.3738   3.3738   3.3738   3.3738
     3.3762   3.3762   3.3762   3.3762   3.3901   3.3901   3.4414   3.4414
     3.4580   3.4580   3.4618   3.4618   3.5158   3.5158   3.5158   3.5158
     3.5220   3.5220   3.6896   3.6896   3.6896   3.6896   3.9992   3.9992
     6.0519   6.0519

          k = 0.2593-0.3333-0.3333 ( 50988 PWs)   bands (ev):

   -68.1812 -68.1812 -68.1812 -68.1812 -68.1812 -68.1812 -68.1812 -68.1812
   -68.1810 -68.1810 -68.1810 -68.1810 -68.1809 -68.1809 -68.1809 -68.1809
   -38.1955 -38.1955 -38.1955 -38.1955 -38.1953 -38.1953 -38.1953 -38.1953
   -38.1947 -38.1947 -38.1947 -38.1947 -38.1946 -38.1946 -38.1946 -38.1946
   -38.1945 -38.1945 -38.1945 -38.1945 -38.1937 -38.1937 -38.1937 -38.1937
   -38.1908 -38.1908 -38.1908 -38.1908 -38.1901 -38.1901 -38.1901 -38.1901
   -38.1901 -38.1900 -38.1900 -38.1900 -38.1897 -38.1897 -38.1897 -38.1897
   -38.1894 -38.1894 -38.1894 -38.1894 -38.1891 -38.1891 -38.1891 -38.1891
     2.1456   2.1456   2.1456   2.1456   2.4155   2.4155   2.4155   2.4156
     2.7262   2.7262   2.7262   2.7262   2.7774   2.7774   2.7774   2.7774
     2.8017   2.8017   2.8017   2.8017   2.8079   2.8079   2.8079   2.8079
     2.8093   2.8093   2.8094   2.8094   2.8472   2.8472   2.8472   2.8472
     2.8500   2.8500   2.8500   2.8500   2.8584   2.8584   2.8584   2.8584
     2.8705   2.8705   2.8705   2.8705   2.9230   2.9230   2.9230   2.9230
     3.3339   3.3339   3.3339   3.3339   3.3413   3.3413   3.3413   3.3413
     3.3605   3.3605   3.3605   3.3606   3.3693   3.3693   3.3693   3.3693
     3.4023   3.4023   3.4023   3.4023   3.4207   3.4207   3.4207   3.4207
     3.4728   3.4728   3.4728   3.4728   3.5130   3.5130   3.5130   3.5130
     3.5642   3.5642   3.5642   3.5642   3.8333   3.8333   3.8333   3.8333
     6.1578   6.1579

          k =-0.3333-0.3333-0.3333 ( 50864 PWs)   bands (ev):

   -68.1812 -68.1812 -68.1812 -68.1812 -68.1812 -68.1812 -68.1812 -68.1812
   -68.1809 -68.1809 -68.1809 -68.1809 -68.1809 -68.1809 -68.1809 -68.1809
   -38.1950 -38.1950 -38.1950 -38.1950 -38.1950 -38.1950 -38.1950 -38.1950
   -38.1950 -38.1950 -38.1950 -38.1950 -38.1950 -38.1950 -38.1950 -38.1950
   -38.1941 -38.1941 -38.1941 -38.1941 -38.1941 -38.1941 -38.1941 -38.1941
   -38.1904 -38.1904 -38.1904 -38.1904 -38.1904 -38.1904 -38.1904 -38.1904
   -38.1895 -38.1895 -38.1895 -38.1895 -38.1895 -38.1895 -38.1895 -38.1895
   -38.1895 -38.1895 -38.1895 -38.1895 -38.1895 -38.1895 -38.1895 -38.1895
     2.2823   2.2823   2.2823   2.2823   2.2823   2.2823   2.2823   2.2824
     2.7878   2.7878   2.7878   2.7878   2.7878   2.7878   2.7878   2.7878
     2.8075   2.8075   2.8075   2.8075   2.8075   2.8075   2.8075   2.8075
     2.8075   2.8075   2.8075   2.8075   2.8075   2.8075   2.8075   2.8075
     2.8555   2.8555   2.8555   2.8555   2.8555   2.8555   2.8555   2.8555
     2.8555   2.8555   2.8555   2.8555   2.8555   2.8555   2.8556   2.8556
     3.3516   3.3516   3.3516   3.3516   3.3516   3.3516   3.3516   3.3516
     3.3516   3.3516   3.3516   3.3516   3.3516   3.3516   3.3516   3.3516
     3.4549   3.4549   3.4549   3.4549   3.4549   3.4549   3.4549   3.4549
     3.4549   3.4549   3.4549   3.4549   3.4549   3.4549   3.4549   3.4549
     3.6885   3.6885   3.6885   3.6885   3.6885   3.6885   3.6885   3.6885
     6.3395   6.3395

     the Fermi energy is     3.4328 ev

!    total energy              =   -6899.68478348 Ry

     total all-electron energy =   -144987.879953 Ry
     estimated scf accuracy    <       0.00000086 Ry
     smearing contrib. (-TS)   =      -0.12661882 Ry
     internal energy E=F+TS    =   -6899.55816466 Ry

     The total energy is F=E-TS. E is the sum of the following terms:
     one-electron contribution =   -1891.06557190 Ry
     hartree contribution      =     981.87350322 Ry
     xc contribution           =    -456.96048870 Ry
     ewald contribution        =   -1738.96054218 Ry
     one-center paw contrib.   =   -3794.44506510 Ry

     convergence has been achieved in  18 iterations

     Forces acting on atoms (cartesian axes, Ry/au):

     atom    1 type  1   force =     0.00000000    0.00000000    0.00000000
     atom    2 type  1   force =     0.00001959    0.00001959    0.00001959
     atom    3 type  1   force =     0.00000000    0.00000000    0.00000000
     atom    4 type  1   force =     0.00001959    0.00001959   -0.00001959
     atom    5 type  1   force =     0.00000000    0.00000000    0.00000000
     atom    6 type  1   force =     0.00001959   -0.00001959    0.00001959
     atom    7 type  1   force =     0.00000000    0.00000000    0.00000000
     atom    8 type  1   force =     0.00001959   -0.00001959   -0.00001959
     atom    9 type  1   force =     0.00000000    0.00000000    0.00000000
     atom   10 type  1   force =    -0.00001959    0.00001959    0.00001959
     atom   11 type  1   force =     0.00000000    0.00000000    0.00000000
     atom   12 type  1   force =    -0.00001959    0.00001959   -0.00001959
     atom   13 type  1   force =     0.00000000    0.00000000    0.00000000
     atom   14 type  1   force =    -0.00001959   -0.00001959    0.00001959
     atom   15 type  1   force =     0.00000000    0.00000000    0.00000000
     atom   16 type  1   force =    -0.00001959   -0.00001959   -0.00001959

     Total force =     0.000096     Total SCF correction =     0.000676
     SCF correction compared to forces is large: reduce conv_thr to get better values


     Computing stress (Cartesian axis) and pressure

          total   stress  (Ry/bohr**3)                   (kbar)     P=     -137.97
  -0.00093793   0.00000000   0.00000000         -137.97        0.00        0.00
   0.00000000  -0.00093793   0.00000000            0.00     -137.97        0.00
   0.00000000   0.00000000  -0.00093793            0.00        0.00     -137.97


     Writing output data file /scratch/GwqmOFjFwyKgiFOc.save/
 
     init_run     :      6.63s CPU      6.83s WALL (       1 calls)
     electrons    :    363.31s CPU    369.38s WALL (       1 calls)
     forces       :      2.02s CPU      2.07s WALL (       1 calls)
     stress       :     11.53s CPU     11.66s WALL (       1 calls)

     Called by init_run:
     wfcinit      :      5.84s CPU      5.98s WALL (       1 calls)
     potinit      :      0.15s CPU      0.16s WALL (       1 calls)
     hinit0       :      0.16s CPU      0.16s WALL (       1 calls)

     Called by electrons:
     c_bands      :    319.59s CPU    324.25s WALL (      18 calls)
     sum_band     :     41.47s CPU     42.44s WALL (      18 calls)
     v_of_rho     :      0.42s CPU      0.46s WALL (      19 calls)
     newd         :      0.67s CPU      0.90s WALL (      19 calls)
     PAW_pot      :      1.09s CPU      1.20s WALL (      19 calls)
     mix_rho      :      0.12s CPU      0.13s WALL (      18 calls)

     Called by c_bands:
     init_us_2    :      2.17s CPU      2.22s WALL (    1365 calls)
     cegterg      :    311.96s CPU    316.41s WALL (     630 calls)

     Called by *egterg:
     cdiaghg      :     34.50s CPU     34.74s WALL (    2564 calls)
     h_psi        :    187.17s CPU    190.50s WALL (    2599 calls)
     s_psi        :      9.43s CPU      9.50s WALL (    2599 calls)
     g_psi        :      0.51s CPU      0.52s WALL (    1934 calls)

     Called by h_psi:
     h_psi:calbec :     15.61s CPU     15.77s WALL (    2599 calls)
     vloc_psi     :    161.28s CPU    164.31s WALL (    2599 calls)
     add_vuspsi   :      9.13s CPU      9.27s WALL (    2599 calls)

     General routines
     calbec       :     27.10s CPU     27.36s WALL (    3404 calls)
     fft          :      0.41s CPU      0.44s WALL (     270 calls)
     ffts         :      0.03s CPU      0.03s WALL (      37 calls)
     fftw         :    186.54s CPU    189.87s WALL (  591572 calls)
     interpolate  :      0.05s CPU      0.06s WALL (      19 calls)
 
     Parallel routines
     fft_scatt_xy :     16.71s CPU     16.94s WALL (  591879 calls)
     fft_scatt_yz :    147.02s CPU    149.86s WALL (  591879 calls)
 
     PWSCF        :   6m30.75s CPU   6m38.78s WALL

 
   This run was terminated on:   0: 7: 6  26Nov2021            

=------------------------------------------------------------------------------=
   JOB DONE.
=------------------------------------------------------------------------------=
