
     Program PWSCF v.6.7MaX starts on 25Nov2021 at 23:47: 0 

     This program is part of the open-source Quantum ESPRESSO suite
     for quantum simulation of materials; please cite
         "P. Giannozzi et al., J. Phys.:Condens. Matter 21 395502 (2009);
         "P. Giannozzi et al., J. Phys.:Condens. Matter 29 465901 (2017);
          URL http://www.quantum-espresso.org", 
     in publications or presentations arising from this work. More details at
     http://www.quantum-espresso.org/quote

     Parallel version (MPI & OpenMP), running on      72 processor cores
     Number of MPI processes:                72
     Threads/MPI process:                     1

     MPI processes distributed on     1 nodes
     R & G space division:  proc/nbgrp/npool/nimage =      72
     Reading input from bcc_3.in
Warning: card &CELL ignored
Warning: card CELL_DYNAMICS = 'BFGS', ignored
Warning: card CELL_FACTOR = 2.0, ignored
Warning: card PRESS = 0.0, ignored
Warning: card / ignored

     Current dimensions of program PWSCF are:
     Max number of different atomic species (ntypx) = 10
     Max number of k-points (npk) =  40000
     Max angular momentum in pseudopotentials (lmaxx) =  3
     file Ru.pbe-spn-kjpaw_psl.1.0.0.UPF: wavefunction(s)  4D renormalized

     Subspace diagonalization in iterative solution of the eigenvalue problem:
     one sub-group per band group will be used
     ELPA distributed-memory algorithm (size of sub-group:  8*  8 procs)

     Found symmetry operation: I + (  0.2500  0.2500  0.2500)
     This is a supercell, fractional translations are disabled
     Message from routine setup:
     using ibrav=0 with symmetry is DISCOURAGED, use correct ibrav instead
 
     Parallelization info
     --------------------
     sticks:   dense  smooth     PW     G-vecs:    dense   smooth      PW
     Min          89      59     16                 5387     2893     413
     Max          90      60     18                 5390     2901     417
     Sum        6437    4249   1177               387959   208537   29855
 


     bravais-lattice index     =            0
     lattice parameter (alat)  =      11.4293  a.u.
     unit-cell volume          =    2579.8850 (a.u.)^3
     number of atoms/cell      =           16
     number of atomic types    =            1
     number of electrons       =       256.00
     number of Kohn-Sham states=          154
     kinetic-energy cutoff     =      71.0000  Ry
     charge density cutoff     =     430.0000  Ry
     scf convergence threshold =      1.0E-06
     mixing beta               =       0.1000
     number of iterations used =           10  TF        mixing
     Exchange-correlation= SLA  PW   PBX  PBC
                           (   1   4   3   4   0   0   0)

     celldm(1)=  11.429280  celldm(2)=   0.000000  celldm(3)=   0.000000
     celldm(4)=   0.000000  celldm(5)=   0.000000  celldm(6)=   0.000000

     crystal axes: (cart. coord. in units of alat)
               a(1) = (   1.200000   0.000000   0.000000 )  
               a(2) = (   0.000000   1.200000   0.000000 )  
               a(3) = (   0.000000   0.000000   1.200000 )  

     reciprocal axes: (cart. coord. in units 2 pi/alat)
               b(1) = (  0.833333  0.000000  0.000000 )  
               b(2) = (  0.000000  0.833333  0.000000 )  
               b(3) = (  0.000000  0.000000  0.833333 )  


     PseudoPot. # 1 for Ru read from file:
     /rds/homes/b/bxp912/pp/Ru.pbe-spn-kjpaw_psl.1.0.0.UPF
     MD5 check sum: 0ae1f594dea09af7be8575c3a481d1ae
     Pseudo is Projector augmented-wave + core cor, Zval = 16.0
     Generated using "atomic" code by A. Dal Corso  v.5.1
     Shape of augmentation charge: PSQ
     Using radial grid of 1233 points,  6 beta functions with: 
                l(1) =   0
                l(2) =   0
                l(3) =   1
                l(4) =   1
                l(5) =   2
                l(6) =   2
     Q(r) pseudized with 0 coefficients 


     atomic species   valence    mass     pseudopotential
        Ru            16.00   101.07000     Ru( 1.00)

     48 Sym. Ops., with inversion, found



   Cartesian axes

     site n.     atom                  positions (alat units)
         1           Ru  tau(   1) = (   0.0000000   0.0000000   0.0000000  )
         2           Ru  tau(   2) = (   0.3000000   0.3000000   0.3000000  )
         3           Ru  tau(   3) = (   0.0000000   0.0000000   0.6000000  )
         4           Ru  tau(   4) = (   0.3000000   0.3000000   0.9000000  )
         5           Ru  tau(   5) = (   0.0000000   0.6000000   0.0000000  )
         6           Ru  tau(   6) = (   0.3000000   0.9000000   0.3000000  )
         7           Ru  tau(   7) = (   0.0000000   0.6000000   0.6000000  )
         8           Ru  tau(   8) = (   0.3000000   0.9000000   0.9000000  )
         9           Ru  tau(   9) = (   0.6000000   0.0000000   0.0000000  )
        10           Ru  tau(  10) = (   0.9000000   0.3000000   0.3000000  )
        11           Ru  tau(  11) = (   0.6000000   0.0000000   0.6000000  )
        12           Ru  tau(  12) = (   0.9000000   0.3000000   0.9000000  )
        13           Ru  tau(  13) = (   0.6000000   0.6000000   0.0000000  )
        14           Ru  tau(  14) = (   0.9000000   0.9000000   0.3000000  )
        15           Ru  tau(  15) = (   0.6000000   0.6000000   0.6000000  )
        16           Ru  tau(  16) = (   0.9000000   0.9000000   0.9000000  )

     number of k points=    35  Marzari-Vanderbilt smearing, width (Ry)=  0.0400
                       cart. coord. in units 2pi/alat
        k(    1) = (   0.0462963   0.0462963   0.0462963), wk =   0.0219479
        k(    2) = (   0.0462963   0.0462963   0.1388889), wk =   0.0658436
        k(    3) = (   0.0462963   0.0462963   0.2314815), wk =   0.0658436
        k(    4) = (   0.0462963   0.0462963   0.3240741), wk =   0.0658436
        k(    5) = (   0.0462963   0.0462963  -0.4166667), wk =   0.0329218
        k(    6) = (   0.0462963   0.1388889   0.1388889), wk =   0.0658436
        k(    7) = (   0.0462963   0.1388889   0.2314815), wk =   0.1316872
        k(    8) = (   0.0462963   0.1388889   0.3240741), wk =   0.1316872
        k(    9) = (   0.0462963   0.1388889  -0.4166667), wk =   0.0658436
        k(   10) = (   0.0462963   0.2314815   0.2314815), wk =   0.0658436
        k(   11) = (   0.0462963   0.2314815   0.3240741), wk =   0.1316872
        k(   12) = (   0.0462963   0.2314815  -0.4166667), wk =   0.0658436
        k(   13) = (   0.0462963   0.3240741   0.3240741), wk =   0.0658436
        k(   14) = (   0.0462963   0.3240741  -0.4166667), wk =   0.0658436
        k(   15) = (   0.0462963  -0.4166667  -0.4166667), wk =   0.0164609
        k(   16) = (   0.1388889   0.1388889   0.1388889), wk =   0.0219479
        k(   17) = (   0.1388889   0.1388889   0.2314815), wk =   0.0658436
        k(   18) = (   0.1388889   0.1388889   0.3240741), wk =   0.0658436
        k(   19) = (   0.1388889   0.1388889  -0.4166667), wk =   0.0329218
        k(   20) = (   0.1388889   0.2314815   0.2314815), wk =   0.0658436
        k(   21) = (   0.1388889   0.2314815   0.3240741), wk =   0.1316872
        k(   22) = (   0.1388889   0.2314815  -0.4166667), wk =   0.0658436
        k(   23) = (   0.1388889   0.3240741   0.3240741), wk =   0.0658436
        k(   24) = (   0.1388889   0.3240741  -0.4166667), wk =   0.0658436
        k(   25) = (   0.1388889  -0.4166667  -0.4166667), wk =   0.0164609
        k(   26) = (   0.2314815   0.2314815   0.2314815), wk =   0.0219479
        k(   27) = (   0.2314815   0.2314815   0.3240741), wk =   0.0658436
        k(   28) = (   0.2314815   0.2314815  -0.4166667), wk =   0.0329218
        k(   29) = (   0.2314815   0.3240741   0.3240741), wk =   0.0658436
        k(   30) = (   0.2314815   0.3240741  -0.4166667), wk =   0.0658436
        k(   31) = (   0.2314815  -0.4166667  -0.4166667), wk =   0.0164609
        k(   32) = (   0.3240741   0.3240741   0.3240741), wk =   0.0219479
        k(   33) = (   0.3240741   0.3240741  -0.4166667), wk =   0.0329218
        k(   34) = (   0.3240741  -0.4166667  -0.4166667), wk =   0.0164609
        k(   35) = (  -0.4166667  -0.4166667  -0.4166667), wk =   0.0027435

     Dense  grid:   387959 G-vectors     FFT dimensions: (  96,  96,  96)

     Smooth grid:   208537 G-vectors     FFT dimensions: (  75,  75,  75)

     Estimated max dynamical RAM per process >      56.88 MB

     Estimated total dynamical RAM >       4.00 GB

     Check: negative core charge=   -0.000002

     Initial potential from superposition of free atoms

     starting charge  255.98980, renormalised to  256.00000
     Starting wfcs are  160 randomized atomic wfcs
     Checking if some PAW data can be deallocated... 

     total cpu time spent up to now is        8.4 secs

     Self-consistent Calculation

     iteration #  1     ecut=    71.00 Ry     beta= 0.10
     Davidson diagonalization with overlap
     ethr =  1.00E-02,  avg # of iterations =  3.4

     Threshold (ethr) on eigenvalues was too large:
     Diagonalizing with lowered threshold

     Davidson diagonalization with overlap
     ethr =  4.89E-05,  avg # of iterations =  4.6

     total cpu time spent up to now is       51.5 secs

     total energy              =   -6903.76012736 Ry
     estimated scf accuracy    <       0.02778489 Ry

     iteration #  2     ecut=    71.00 Ry     beta= 0.10
     Davidson diagonalization with overlap
     ethr =  1.09E-05,  avg # of iterations =  1.5

     total cpu time spent up to now is       63.7 secs

     total energy              =   -6903.76041638 Ry
     estimated scf accuracy    <       0.02049373 Ry

     iteration #  3     ecut=    71.00 Ry     beta= 0.10
     Davidson diagonalization with overlap
     ethr =  8.01E-06,  avg # of iterations =  1.2

     total cpu time spent up to now is       74.3 secs

     total energy              =   -6903.76056925 Ry
     estimated scf accuracy    <       0.01202527 Ry

     iteration #  4     ecut=    71.00 Ry     beta= 0.10
     Davidson diagonalization with overlap
     ethr =  4.70E-06,  avg # of iterations =  3.5

     total cpu time spent up to now is       93.6 secs

     total energy              =   -6903.76228745 Ry
     estimated scf accuracy    <       0.00148830 Ry

     iteration #  5     ecut=    71.00 Ry     beta= 0.10
     Davidson diagonalization with overlap
     ethr =  5.81E-07,  avg # of iterations =  2.5

     total cpu time spent up to now is      108.8 secs

     total energy              =   -6903.76241444 Ry
     estimated scf accuracy    <       0.00080222 Ry

     iteration #  6     ecut=    71.00 Ry     beta= 0.10
     Davidson diagonalization with overlap
     ethr =  3.13E-07,  avg # of iterations =  2.1

     total cpu time spent up to now is      127.0 secs

     total energy              =   -6903.76255976 Ry
     estimated scf accuracy    <       0.00007432 Ry

     iteration #  7     ecut=    71.00 Ry     beta= 0.10
     Davidson diagonalization with overlap
     ethr =  2.90E-08,  avg # of iterations =  2.2

     total cpu time spent up to now is      141.1 secs

     total energy              =   -6903.76259332 Ry
     estimated scf accuracy    <       0.00005464 Ry

     iteration #  8     ecut=    71.00 Ry     beta= 0.10
     Davidson diagonalization with overlap
     ethr =  2.13E-08,  avg # of iterations =  4.8

     total cpu time spent up to now is      168.5 secs

     total energy              =   -6903.76253594 Ry
     estimated scf accuracy    <       0.00028076 Ry

     iteration #  9     ecut=    71.00 Ry     beta= 0.10
     Davidson diagonalization with overlap
     ethr =  2.13E-08,  avg # of iterations =  4.2

     total cpu time spent up to now is      189.8 secs

     total energy              =   -6903.76258686 Ry
     estimated scf accuracy    <       0.00000124 Ry

     iteration # 10     ecut=    71.00 Ry     beta= 0.10
     Davidson diagonalization with overlap
     ethr =  4.86E-10,  avg # of iterations =  4.0

     total cpu time spent up to now is      209.2 secs

     End of self-consistent calculation

          k = 0.0463 0.0463 0.0463 ( 25992 PWs)   bands (ev):

   -61.0713 -61.0584 -61.0584 -61.0584 -61.0566 -61.0566 -61.0566 -61.0564
   -61.0564 -61.0564 -61.0560 -61.0560 -61.0560 -61.0558 -61.0557 -61.0446
   -31.0761 -31.0761 -31.0761 -31.0752 -31.0752 -31.0752 -31.0427 -31.0427
   -31.0411 -31.0154 -31.0140 -31.0140 -31.0140 -31.0091 -31.0091 -31.0046
   -31.0045 -31.0045 -30.9964 -30.9964 -30.9915 -30.9915 -30.9915 -30.9903
   -30.9879 -30.9879 -30.9879 -30.9858 -30.9858 -30.9858 -30.9850 -30.9850
   -30.9850 -30.9819 -30.9819 -30.9819 -30.9786 -30.9785 -30.9785 -30.9347
   -30.9331 -30.9331 -30.9326 -30.9326 -30.9326 -30.9318 -30.9318 -30.9317
     6.3496   8.3149   8.3149   8.3149   8.3274   8.3274   8.3274   8.5380
     8.5380   8.6597   8.6597   8.6597   8.9221   8.9221   8.9221   9.2123
     9.2123   9.2123   9.2218   9.2218   9.2218   9.3593   9.4348   9.4348
     9.5652   9.5652   9.6164   9.6562   9.6562   9.6562   9.8742   9.8742
     9.8742   9.9601   9.9601   9.9898  10.2580  10.2580  10.2580  10.3261
    10.3261  10.3261  10.3903  10.3903  10.3903  10.4522  10.4522  10.4522
    10.8764  10.8765  10.8765  11.0487  11.0487  11.0487  11.1302  11.1302
    11.1302  11.1394  11.1394  11.1394  11.2016  11.2016  11.2512  11.2512
    11.2512  11.3401  11.3401  11.3401  11.3675  11.3675  11.3676  11.3676
    11.8853  11.8853  11.8853  11.9008  11.9539  11.9539  12.0446  12.0446
    12.0446  12.1048  12.1048  12.1048  12.2301  12.2301  12.2301  12.6419
    12.6419  12.6419

          k = 0.0463 0.0463 0.1389 ( 26072 PWs)   bands (ev):

   -61.0709 -61.0608 -61.0584 -61.0583 -61.0569 -61.0569 -61.0566 -61.0564
   -61.0563 -61.0562 -61.0561 -61.0560 -61.0558 -61.0558 -61.0538 -61.0449
   -31.0743 -31.0742 -31.0738 -31.0731 -31.0719 -31.0719 -31.0432 -31.0409
   -31.0383 -31.0246 -31.0228 -31.0228 -31.0223 -31.0216 -31.0137 -31.0137
   -31.0054 -31.0010 -30.9984 -30.9973 -30.9942 -30.9915 -30.9915 -30.9869
   -30.9868 -30.9868 -30.9860 -30.9843 -30.9842 -30.9840 -30.9821 -30.9821
   -30.9808 -30.9796 -30.9796 -30.9726 -30.9706 -30.9706 -30.9694 -30.9385
   -30.9351 -30.9351 -30.9347 -30.9346 -30.9339 -30.9337 -30.9326 -30.9326
     6.4326   8.3034   8.3347   8.3347   8.3727   8.3727   8.3758   8.3872
     8.5736   8.5821   8.6673   8.6673   8.9202   8.9202   9.0591   9.2094
     9.2185   9.2425   9.2425   9.2669   9.2709   9.2709   9.3389   9.3969
     9.4383   9.4809   9.6393   9.6393   9.7332   9.7348   9.8210   9.8210
     9.9468   9.9612  10.0318  10.0475  10.1163  10.1163  10.1498  10.2391
    10.2391  10.2756  10.4510  10.4510  10.5289  10.5289  10.5478  10.6161
    10.7095  11.0087  11.0087  11.0391  11.0391  11.0926  11.0926  11.1097
    11.1097  11.1446  11.1522  11.1569  11.2071  11.2072  11.2194  11.2205
    11.2216  11.2479  11.2479  11.3418  11.3537  11.3538  11.3659  11.3664
    11.6081  11.6686  11.7362  11.7848  11.8632  11.9037  11.9037  11.9479
    11.9680  11.9680  12.1079  12.1079  12.2816  12.2816  12.4670  12.4670
    12.7327  12.9303

          k = 0.0463 0.0463 0.2315 ( 26063 PWs)   bands (ev):

   -61.0700 -61.0630 -61.0582 -61.0582 -61.0571 -61.0571 -61.0565 -61.0563
   -61.0562 -61.0561 -61.0561 -61.0560 -61.0559 -61.0558 -61.0517 -61.0456
   -31.0699 -31.0699 -31.0694 -31.0688 -31.0660 -31.0660 -31.0426 -31.0375
   -31.0351 -31.0342 -31.0338 -31.0338 -31.0336 -31.0290 -31.0253 -31.0253
   -31.0102 -31.0064 -31.0022 -30.9978 -30.9911 -30.9911 -30.9891 -30.9879
   -30.9878 -30.9877 -30.9836 -30.9836 -30.9832 -30.9822 -30.9822 -30.9723
   -30.9705 -30.9699 -30.9699 -30.9637 -30.9613 -30.9613 -30.9607 -30.9444
   -30.9392 -30.9392 -30.9386 -30.9380 -30.9378 -30.9362 -30.9352 -30.9352
     6.5964   7.9038   8.3838   8.3838   8.4489   8.4489   8.4930   8.5021
     8.6439   8.6592   8.6592   8.6651   8.8818   8.8818   9.0775   9.1725
     9.2057   9.2145   9.2325   9.2547   9.2732   9.3114   9.3114   9.3583
     9.3583   9.3606   9.6787   9.6787   9.8107   9.8107   9.9302   9.9410
     9.9430   9.9435   9.9435   9.9650  10.0406  10.0406  10.0635  10.0665
    10.0942  10.4041  10.5523  10.6252  10.6252  10.6492  10.6492  10.7108
    10.7108  10.7330  10.8100  10.8623  10.8623  11.0516  11.0516  11.0695
    11.0823  11.1391  11.1391  11.1605  11.1716  11.2058  11.2489  11.2489
    11.2537  11.3274  11.3278  11.3450  11.3629  11.3648  11.3897  11.4115
    11.4116  11.4668  11.5320  11.6113  11.6995  11.8925  11.8925  11.8956
    11.9420  11.9420  12.0512  12.0512  12.3225  12.3225  12.3803  12.3803
    12.9187  12.9187

          k = 0.0463 0.0463 0.3241 ( 26095 PWs)   bands (ev):

   -61.0687 -61.0652 -61.0580 -61.0580 -61.0574 -61.0574 -61.0564 -61.0562
   -61.0561 -61.0561 -61.0561 -61.0560 -61.0560 -61.0559 -61.0497 -61.0467
   -31.0633 -31.0633 -31.0629 -31.0626 -31.0580 -31.0580 -31.0454 -31.0448
   -31.0447 -31.0447 -31.0410 -31.0371 -31.0371 -31.0342 -31.0325 -31.0289
   -31.0186 -31.0148 -30.9989 -30.9959 -30.9920 -30.9904 -30.9904 -30.9904
   -30.9888 -30.9887 -30.9832 -30.9832 -30.9825 -30.9825 -30.9722 -30.9616
   -30.9606 -30.9605 -30.9605 -30.9556 -30.9528 -30.9527 -30.9527 -30.9522
   -30.9450 -30.9449 -30.9443 -30.9442 -30.9425 -30.9404 -30.9395 -30.9395
     6.8362   7.5066   8.4558   8.4558   8.5513   8.5513   8.6142   8.6142
     8.6573   8.6618   8.7477   8.7768   8.7903   8.7903   9.0115   9.0343
     9.0455   9.0621   9.2048   9.2147   9.2328   9.2674   9.4165   9.4165
     9.4814   9.4814   9.7136   9.7136   9.7708   9.7708   9.8971   9.8972
     9.9498   9.9746   9.9771   9.9771  10.0076  10.0246  10.1770  10.1783
    10.1891  10.3895  10.3895  10.4093  10.5231  10.5231  10.5981  10.7735
    10.7735  10.7900  10.7958  10.7958  10.8065  10.9430  10.9435  10.9777
    10.9777  11.0274  11.0544  11.0544  11.2081  11.2140  11.2912  11.2927
    11.3021  11.3493  11.3588  11.3641  11.3856  11.3993  11.4370  11.4569
    11.4569  11.4894  11.5474  11.6136  11.6136  11.7880  11.7880  11.8067
    11.9437  11.9437  12.0030  12.0030  12.1966  12.1966  12.5158  12.5158
    12.8167  12.8167

          k = 0.0463 0.0463-0.4167 ( 26110 PWs)   bands (ev):

   -61.0671 -61.0671 -61.0578 -61.0577 -61.0577 -61.0577 -61.0563 -61.0562
   -61.0561 -61.0561 -61.0561 -61.0561 -61.0561 -61.0560 -61.0481 -61.0480
   -31.0548 -31.0548 -31.0548 -31.0548 -31.0547 -31.0547 -31.0546 -31.0546
   -31.0482 -31.0482 -31.0482 -31.0482 -31.0382 -31.0381 -31.0262 -31.0261
   -31.0223 -31.0223 -30.9954 -30.9953 -30.9932 -30.9931 -30.9897 -30.9897
   -30.9896 -30.9896 -30.9828 -30.9828 -30.9828 -30.9828 -30.9617 -30.9617
   -30.9522 -30.9521 -30.9521 -30.9521 -30.9521 -30.9521 -30.9518 -30.9518
   -30.9484 -30.9484 -30.9460 -30.9460 -30.9454 -30.9454 -30.9454 -30.9454
     7.1439   7.1439   8.5389   8.5389   8.5389   8.5389   8.6707   8.6707
     8.6707   8.6707   8.8491   8.8491   8.8539   8.8540   8.8826   8.8826
     8.9003   8.9003   9.2119   9.2120   9.2272   9.2272   9.5537   9.5537
     9.5537   9.5537   9.6341   9.6341   9.6341   9.6341   9.9700   9.9700
     9.9935   9.9935  10.0928  10.0928  10.0928  10.0928  10.2075  10.2075
    10.2075  10.2075  10.2838  10.2838  10.4697  10.4697  10.4754  10.4754
    10.7831  10.7831  10.8848  10.8848  10.8848  10.8848  10.9417  10.9417
    10.9417  10.9418  11.1704  11.1704  11.2497  11.2497  11.2530  11.2530
    11.2586  11.2586  11.3541  11.3541  11.3629  11.3629  11.3676  11.3676
    11.6412  11.6412  11.6412  11.6412  11.6884  11.6884  11.7947  11.7947
    11.7947  11.7947  12.0884  12.0884  12.0884  12.0884  12.6702  12.6702
    12.6702  12.6702

          k = 0.0463 0.1389 0.1389 ( 26084 PWs)   bands (ev):

   -61.0705 -61.0606 -61.0606 -61.0583 -61.0575 -61.0568 -61.0568 -61.0562
   -61.0562 -61.0561 -61.0559 -61.0558 -61.0557 -61.0539 -61.0539 -61.0453
   -31.0740 -31.0721 -31.0721 -31.0700 -31.0699 -31.0670 -31.0447 -31.0398
   -31.0340 -31.0307 -31.0306 -31.0306 -31.0281 -31.0255 -31.0195 -31.0081
   -31.0035 -31.0035 -31.0008 -31.0008 -30.9956 -30.9926 -30.9893 -30.9889
   -30.9889 -30.9881 -30.9881 -30.9852 -30.9852 -30.9829 -30.9819 -30.9793
   -30.9739 -30.9738 -30.9730 -30.9729 -30.9654 -30.9619 -30.9619 -30.9437
   -30.9391 -30.9368 -30.9368 -30.9360 -30.9346 -30.9346 -30.9330 -30.9318
     6.5145   8.3237   8.3293   8.3293   8.3959   8.3959   8.4309   8.4309
     8.4391   8.6112   8.6231   8.6833   8.9306   9.0608   9.0608   9.1818
     9.2385   9.2385   9.2535   9.2653   9.2653   9.2713   9.3384   9.4261
     9.4445   9.4445   9.5406   9.5985   9.7463   9.7482   9.7517   9.9103
     9.9451   9.9451   9.9567  10.0248  10.0248  10.0896  10.1006  10.1855
    10.3862  10.3862  10.4358  10.4358  10.4918  10.5607  10.6443  10.6443
    10.7881  10.8723  10.8723  10.9687  10.9687  11.0275  11.0904  11.0904
    11.0962  11.1161  11.1161  11.1486  11.1624  11.2063  11.2102  11.2102
    11.3017  11.3275  11.3443  11.3447  11.3602  11.3618  11.3737  11.3737
    11.6027  11.6027  11.6311  11.6651  11.6651  11.6711  11.7951  11.8205
    11.8205  11.9417  11.9678  12.1468  12.1582  12.3559  12.8182  12.8182
    12.9507  12.9507

          k = 0.0463 0.1389 0.2315 ( 26066 PWs)   bands (ev):

   -61.0696 -61.0628 -61.0603 -61.0582 -61.0581 -61.0571 -61.0567 -61.0562
   -61.0561 -61.0561 -61.0560 -61.0558 -61.0552 -61.0540 -61.0518 -61.0460
   -31.0713 -31.0680 -31.0679 -31.0662 -31.0645 -31.0597 -31.0457 -31.0406
   -31.0382 -31.0366 -31.0365 -31.0362 -31.0348 -31.0285 -31.0283 -31.0154
   -31.0097 -31.0057 -30.9998 -30.9979 -30.9951 -30.9929 -30.9925 -30.9919
   -30.9906 -30.9893 -30.9870 -30.9846 -30.9833 -30.9797 -30.9788 -30.9737
   -30.9700 -30.9661 -30.9660 -30.9643 -30.9584 -30.9539 -30.9534 -30.9509
   -30.9447 -30.9403 -30.9400 -30.9390 -30.9386 -30.9368 -30.9339 -30.9327
     6.6758   7.9481   8.3348   8.3647   8.4444   8.5050   8.5134   8.5326
     8.5416   8.6790   8.6899   8.7065   8.9116   9.0147   9.0871   9.1018
     9.1840   9.2330   9.2566   9.2583   9.3029   9.3042   9.3472   9.3640
     9.4434   9.4606   9.5185   9.5946   9.6984   9.8172   9.8686   9.8800
     9.9007   9.9316   9.9555   9.9568   9.9908  10.0078  10.0616  10.1764
    10.1896  10.5084  10.5210  10.5584  10.6234  10.6272  10.6626  10.6684
    10.6900  10.7103  10.7995  10.8027  10.8445  10.9462  10.9505  10.9566
    11.0630  11.0804  11.0836  11.1248  11.1415  11.1711  11.1974  11.2316
    11.3167  11.3178  11.3181  11.3579  11.3629  11.4138  11.4320  11.4328
    11.5184  11.5338  11.5370  11.5693  11.5775  11.6210  11.6363  11.6592
    11.8288  11.9558  11.9658  12.0251  12.1224  12.4955  12.7413  12.9741
    13.2606  13.4702

          k = 0.0463 0.1389 0.3241 ( 26070 PWs)   bands (ev):

   -61.0684 -61.0649 -61.0599 -61.0588 -61.0579 -61.0574 -61.0566 -61.0562
   -61.0561 -61.0560 -61.0560 -61.0559 -61.0548 -61.0542 -61.0499 -61.0470
   -31.0663 -31.0619 -31.0617 -31.0608 -31.0571 -31.0505 -31.0504 -31.0462
   -31.0455 -31.0454 -31.0447 -31.0410 -31.0383 -31.0316 -31.0277 -31.0220
   -31.0180 -31.0066 -31.0020 -30.9983 -30.9943 -30.9939 -30.9938 -30.9925
   -30.9905 -30.9893 -30.9842 -30.9836 -30.9812 -30.9777 -30.9747 -30.9689
   -30.9604 -30.9599 -30.9583 -30.9581 -30.9563 -30.9517 -30.9515 -30.9468
   -30.9460 -30.9451 -30.9448 -30.9443 -30.9435 -30.9404 -30.9366 -30.9354
     6.9114   7.5653   8.3588   8.3860   8.5142   8.6047   8.6488   8.6592
     8.6766   8.6918   8.7765   8.8203   8.8336   8.9098   9.0019   9.0202
     9.0525   9.0898   9.2312   9.2584   9.2795   9.3492   9.3886   9.4025
     9.4578   9.5828   9.6361   9.6413   9.6540   9.6818   9.8643   9.8885
     9.9616   9.9689   9.9769   9.9856   9.9930  10.0411  10.0810  10.1175
    10.2155  10.2959  10.3604  10.4622  10.5576  10.5855  10.6261  10.6486
    10.6695  10.7482  10.7573  10.7847  10.7859  10.8044  10.8849  10.9683
    10.9902  10.9920  11.0435  11.0856  11.1825  11.1978  11.2080  11.2778
    11.2807  11.2809  11.2973  11.3571  11.3693  11.3710  11.4196  11.4311
    11.4474  11.4479  11.5380  11.5651  11.5989  11.6552  11.6801  11.7584
    11.7771  11.7944  11.8993  12.0450  12.1598  12.5348  12.6819  13.0942
    13.1739  13.5406

          k = 0.0463 0.1389-0.4167 ( 26084 PWs)   bands (ev):

   -61.0668 -61.0667 -61.0594 -61.0594 -61.0577 -61.0576 -61.0564 -61.0564
   -61.0561 -61.0560 -61.0560 -61.0559 -61.0545 -61.0544 -61.0483 -61.0483
   -31.0592 -31.0592 -31.0542 -31.0542 -31.0540 -31.0540 -31.0539 -31.0538
   -31.0482 -31.0482 -31.0440 -31.0440 -31.0396 -31.0396 -31.0254 -31.0254
   -31.0147 -31.0147 -30.9979 -30.9979 -30.9965 -30.9965 -30.9918 -30.9917
   -30.9916 -30.9916 -30.9838 -30.9838 -30.9761 -30.9761 -30.9701 -30.9701
   -30.9598 -30.9598 -30.9517 -30.9516 -30.9513 -30.9513 -30.9509 -30.9508
   -30.9494 -30.9494 -30.9454 -30.9454 -30.9410 -30.9410 -30.9399 -30.9399
     7.2125   7.2125   8.3814   8.3814   8.5928   8.5928   8.7205   8.7205
     8.7794   8.7794   8.8578   8.8578   8.8673   8.8673   8.8982   8.8982
     8.9499   8.9499   9.2414   9.2415   9.2812   9.2812   9.5074   9.5074
     9.5241   9.5241   9.5782   9.5782   9.7443   9.7444   9.8662   9.8662
     9.9467   9.9468   9.9738   9.9738  10.0965  10.0965  10.1675  10.1675
    10.2583  10.2583  10.3466  10.3466  10.3676  10.3676  10.4189  10.4189
    10.8144  10.8144  10.8269  10.8269  10.8970  10.8970  10.9298  10.9298
    10.9618  10.9618  10.9777  10.9777  11.2087  11.2087  11.2305  11.2305
    11.2385  11.2385  11.3434  11.3434  11.3590  11.3590  11.3931  11.3931
    11.4747  11.4747  11.5405  11.5405  11.6769  11.6769  11.6839  11.6839
    11.8046  11.8047  11.9210  11.9210  12.3362  12.3363  12.8904  12.8904
    13.3813  13.3813

          k = 0.0463 0.2315 0.2315 ( 26080 PWs)   bands (ev):

   -61.0688 -61.0624 -61.0624 -61.0592 -61.0580 -61.0570 -61.0570 -61.0562
   -61.0561 -61.0561 -61.0560 -61.0558 -61.0544 -61.0521 -61.0521 -61.0466
   -31.0703 -31.0644 -31.0644 -31.0616 -31.0616 -31.0512 -31.0485 -31.0456
   -31.0456 -31.0425 -31.0408 -31.0393 -31.0339 -31.0335 -31.0216 -31.0082
   -31.0082 -31.0061 -31.0044 -31.0044 -30.9959 -30.9946 -30.9940 -30.9922
   -30.9922 -30.9879 -30.9879 -30.9864 -30.9864 -30.9845 -30.9760 -30.9655
   -30.9655 -30.9641 -30.9607 -30.9605 -30.9597 -30.9541 -30.9515 -30.9465
   -30.9465 -30.9424 -30.9424 -30.9419 -30.9400 -30.9400 -30.9329 -30.9320
     6.8317   8.0254   8.0254   8.2946   8.5593   8.5593   8.6097   8.6097
     8.6336   8.7263   8.7390   8.7927   8.9342   9.0443   9.0505   9.0505
     9.1124   9.2943   9.2943   9.3321   9.3324   9.3324   9.3579   9.3579
     9.4172   9.5032   9.5281   9.5650   9.6166   9.7717   9.7717   9.8188
     9.8385   9.8925   9.9516   9.9613   9.9835   9.9835  10.0298  10.2680
    10.3089  10.3400  10.3400  10.5645  10.5645  10.6392  10.6392  10.6758
    10.6758  10.6970  10.7265  10.7714  10.7715  10.8381  10.8713  10.9156
    10.9156  11.0724  11.0918  11.0918  11.1255  11.1255  11.1497  11.2124
    11.2161  11.2913  11.2915  11.3055  11.3571  11.3660  11.3894  11.4656
    11.4656  11.4704  11.4841  11.4919  11.4919  11.6200  11.6200  11.7144
    11.7144  11.7599  11.9938  12.1374  12.1885  12.6960  13.2007  13.2007
    13.6979  13.6979

          k = 0.0463 0.2315 0.3241 ( 26065 PWs)   bands (ev):

   -61.0676 -61.0644 -61.0618 -61.0601 -61.0578 -61.0572 -61.0568 -61.0564
   -61.0560 -61.0560 -61.0560 -61.0558 -61.0536 -61.0524 -61.0503 -61.0475
   -31.0668 -31.0594 -31.0592 -31.0576 -31.0555 -31.0541 -31.0501 -31.0488
   -31.0475 -31.0468 -31.0458 -31.0410 -31.0409 -31.0289 -31.0170 -31.0161
   -31.0138 -31.0060 -31.0038 -30.9997 -30.9969 -30.9959 -30.9952 -30.9936
   -30.9928 -30.9928 -30.9886 -30.9860 -30.9853 -30.9778 -30.9726 -30.9700
   -30.9674 -30.9594 -30.9581 -30.9572 -30.9551 -30.9549 -30.9497 -30.9461
   -30.9458 -30.9456 -30.9446 -30.9423 -30.9407 -30.9403 -30.9337 -30.9329
     7.0581   7.6749   8.1145   8.2518   8.6226   8.7014   8.7145   8.7298
     8.7457   8.7464   8.8206   8.8966   8.9136   8.9686   8.9803   9.0045
     9.0219   9.2040   9.2912   9.3287   9.3681   9.3833   9.3972   9.4251
     9.4367   9.5265   9.5318   9.5646   9.6222   9.7191   9.7476   9.7736
     9.9482   9.9489   9.9510   9.9750   9.9908  10.0093  10.0117  10.0420
    10.1184  10.2864  10.3279  10.3966  10.4006  10.4432  10.4992  10.5309
    10.7462  10.7556  10.7816  10.8056  10.8166  10.8279  10.8310  10.9079
    10.9780  11.0048  11.0220  11.0489  11.0681  11.1302  11.1381  11.1553
    11.2471  11.2480  11.2496  11.2903  11.3359  11.3618  11.3807  11.3862
    11.4000  11.4397  11.4542  11.4799  11.4863  11.5188  11.5659  11.6103
    11.8380  11.8809  11.9853  12.1001  12.4109  12.9304  12.9452  13.4792
    13.6743  13.9458

          k = 0.0463 0.2315-0.4167 ( 26056 PWs)   bands (ev):

   -61.0662 -61.0661 -61.0611 -61.0610 -61.0575 -61.0575 -61.0567 -61.0566
   -61.0560 -61.0560 -61.0559 -61.0559 -61.0530 -61.0529 -61.0488 -61.0488
   -31.0614 -31.0614 -31.0532 -31.0532 -31.0528 -31.0528 -31.0527 -31.0527
   -31.0502 -31.0502 -31.0484 -31.0484 -31.0294 -31.0294 -31.0230 -31.0230
   -31.0056 -31.0056 -31.0031 -31.0031 -31.0000 -31.0000 -30.9948 -30.9948
   -30.9909 -30.9909 -30.9857 -30.9857 -30.9811 -30.9811 -30.9698 -30.9697
   -30.9682 -30.9682 -30.9516 -30.9516 -30.9504 -30.9504 -30.9500 -30.9500
   -30.9498 -30.9498 -30.9456 -30.9456 -30.9364 -30.9364 -30.9358 -30.9357
     7.3445   7.3446   8.1935   8.1935   8.6878   8.6879   8.8052   8.8052
     8.8622   8.8622   8.8811   8.8811   8.8828   8.8828   8.9157   8.9157
     9.0548   9.0548   9.3106   9.3106   9.3591   9.3591   9.4844   9.4844
     9.4952   9.4952   9.5067   9.5067   9.7489   9.7489   9.7507   9.7507
     9.9140   9.9140   9.9592   9.9592  10.0690  10.0690  10.0755  10.0755
    10.1551  10.1551  10.1969  10.1969  10.2125  10.2125  10.5903  10.5903
    10.7464  10.7464  10.7659  10.7659  10.8980  10.8980  10.9324  10.9324
    10.9423  10.9423  10.9666  10.9666  11.0887  11.0887  11.1937  11.1937
    11.2010  11.2010  11.3079  11.3079  11.3268  11.3268  11.3733  11.3734
    11.4151  11.4151  11.4224  11.4224  11.4692  11.4692  11.5700  11.5700
    11.9312  11.9312  12.0129  12.0129  12.6644  12.6644  13.2141  13.2141
    14.1483  14.1484

          k = 0.0463 0.3241 0.3241 ( 26057 PWs)   bands (ev):

   -61.0665 -61.0636 -61.0636 -61.0614 -61.0576 -61.0571 -61.0571 -61.0567
   -61.0560 -61.0560 -61.0559 -61.0558 -61.0525 -61.0509 -61.0509 -61.0484
   -31.0651 -31.0558 -31.0558 -31.0558 -31.0558 -31.0535 -31.0535 -31.0535
   -31.0492 -31.0491 -31.0483 -31.0445 -31.0299 -31.0247 -31.0131 -31.0130
   -31.0053 -31.0053 -31.0051 -31.0047 -31.0034 -30.9975 -30.9975 -30.9973
   -30.9918 -30.9882 -30.9882 -30.9870 -30.9870 -30.9867 -30.9812 -30.9680
   -30.9680 -30.9606 -30.9606 -30.9531 -30.9518 -30.9517 -30.9499 -30.9478
   -30.9470 -30.9470 -30.9452 -30.9452 -30.9361 -30.9361 -30.9327 -30.9321
     7.2684   7.8197   7.8197   8.1253   8.7603   8.7603   8.7863   8.8169
     8.8169   8.8376   8.8756   8.9263   8.9591   8.9700   8.9700   8.9754
     9.0458   9.3688   9.3688   9.3755   9.3755   9.4081   9.4081   9.4212
     9.4405   9.4705   9.4775   9.5151   9.6202   9.6202   9.6991   9.7903
     9.8821   9.8878   9.9036   9.9497   9.9611   9.9698  10.0034  10.0034
    10.1454  10.1454  10.1670  10.1670  10.2897  10.3011  10.3011  10.6043
    10.7399  10.7630  10.8230  10.8230  10.8927  10.8927  10.8957  10.9052
    10.9547  10.9547  11.0166  11.0482  11.0748  11.0748  11.0853  11.0853
    11.1175  11.2001  11.2002  11.2318  11.2791  11.3414  11.3414  11.3634
    11.3721  11.3977  11.4196  11.4196  11.4348  11.4966  11.4966  11.4966
    11.9720  11.9720  12.0288  12.1070  12.7071  13.2535  13.3461  13.3462
    13.9014  13.9014

          k = 0.0463 0.3241-0.4167 ( 26056 PWs)   bands (ev):

   -61.0652 -61.0651 -61.0626 -61.0626 -61.0574 -61.0573 -61.0569 -61.0568
   -61.0560 -61.0559 -61.0559 -61.0559 -61.0517 -61.0516 -61.0495 -61.0495
   -31.0614 -31.0614 -31.0555 -31.0555 -31.0523 -31.0522 -31.0520 -31.0519
   -31.0513 -31.0512 -31.0489 -31.0489 -31.0194 -31.0193 -31.0179 -31.0179
   -31.0093 -31.0092 -31.0011 -31.0010 -30.9981 -30.9980 -30.9961 -30.9961
   -30.9932 -30.9932 -30.9903 -30.9903 -30.9877 -30.9877 -30.9772 -30.9772
   -30.9640 -30.9640 -30.9548 -30.9548 -30.9491 -30.9491 -30.9490 -30.9490
   -30.9489 -30.9488 -30.9462 -30.9462 -30.9334 -30.9334 -30.9332 -30.9332
     7.5289   7.5289   7.9773   7.9773   8.7938   8.7938   8.8890   8.8890
     8.8900   8.8900   8.9112   8.9112   8.9142   8.9142   8.9314   8.9314
     9.2025   9.2026   9.3969   9.3969   9.4323   9.4323   9.4607   9.4607
     9.4625   9.4626   9.5160   9.5161   9.5698   9.5699   9.6467   9.6467
     9.9572   9.9572   9.9666   9.9666   9.9706   9.9706  10.0078  10.0078
    10.0358  10.0358  10.0836  10.0836  10.1059  10.1059  10.5105  10.5106
    10.7692  10.7692  10.7747  10.7747  10.9510  10.9510  10.9709  10.9709
    10.9924  10.9924  10.9938  10.9939  10.9942  10.9942  11.1388  11.1388
    11.1412  11.1412  11.1588  11.1588  11.2680  11.2680  11.2966  11.2966
    11.3891  11.3892  11.4295  11.4296  11.4314  11.4314  11.4940  11.4940
    12.0235  12.0235  12.0639  12.0639  13.0227  13.0227  13.5781  13.5781
    13.7677  13.7678

          k = 0.0463-0.4167-0.4167 ( 26068 PWs)   bands (ev):

   -61.0641 -61.0640 -61.0640 -61.0639 -61.0572 -61.0571 -61.0571 -61.0571
   -61.0560 -61.0559 -61.0559 -61.0559 -61.0505 -61.0505 -61.0505 -61.0504
   -31.0593 -31.0593 -31.0593 -31.0593 -31.0517 -31.0517 -31.0517 -31.0517
   -31.0499 -31.0499 -31.0499 -31.0499 -31.0147 -31.0147 -31.0147 -31.0147
   -31.0057 -31.0057 -31.0057 -31.0057 -31.0004 -31.0004 -31.0004 -31.0004
   -30.9893 -30.9893 -30.9893 -30.9893 -30.9866 -30.9866 -30.9866 -30.9866
   -30.9590 -30.9590 -30.9590 -30.9589 -30.9487 -30.9487 -30.9487 -30.9487
   -30.9473 -30.9473 -30.9473 -30.9473 -30.9324 -30.9324 -30.9324 -30.9324
     7.7477   7.7478   7.7478   7.7478   8.8672   8.8672   8.8672   8.8672
     8.9252   8.9252   8.9252   8.9252   8.9348   8.9348   8.9348   8.9348
     9.3798   9.3798   9.3798   9.3798   9.4508   9.4508   9.4508   9.4509
     9.4587   9.4587   9.4587   9.4587   9.5676   9.5676   9.5676   9.5676
     9.8914   9.8914   9.8914   9.8914   9.9691   9.9691   9.9691   9.9691
    10.0138  10.0138  10.0138  10.0138  10.2863  10.2863  10.2863  10.2863
    10.8349  10.8349  10.8349  10.8349  10.9641  10.9641  10.9641  10.9641
    11.0108  11.0108  11.0108  11.0108  11.0672  11.0672  11.0672  11.0672
    11.0687  11.0687  11.0687  11.0687  11.2533  11.2533  11.2533  11.2533
    11.4062  11.4062  11.4062  11.4062  11.4526  11.4526  11.4526  11.4527
    12.0685  12.0685  12.0685  12.0685  13.3929  13.3929  13.3929  13.3929
    13.9558  13.9558

          k = 0.1389 0.1389 0.1389 ( 26088 PWs)   bands (ev):

   -61.0700 -61.0605 -61.0605 -61.0605 -61.0574 -61.0574 -61.0574 -61.0561
   -61.0557 -61.0557 -61.0557 -61.0556 -61.0539 -61.0539 -61.0539 -61.0456
   -31.0719 -31.0719 -31.0719 -31.0654 -31.0654 -31.0654 -31.0429 -31.0429
   -31.0360 -31.0351 -31.0351 -31.0351 -31.0289 -31.0204 -31.0204 -31.0097
   -31.0096 -31.0096 -31.0023 -31.0023 -31.0022 -30.9911 -30.9910 -30.9910
   -30.9834 -30.9834 -30.9825 -30.9825 -30.9825 -30.9824 -30.9824 -30.9824
   -30.9733 -30.9733 -30.9733 -30.9678 -30.9576 -30.9576 -30.9576 -30.9490
   -30.9402 -30.9402 -30.9402 -30.9346 -30.9346 -30.9339 -30.9339 -30.9339
     6.5953   8.3606   8.3606   8.3606   8.3875   8.3875   8.3875   8.4944
     8.4944   8.4944   8.6560   8.6560   9.0806   9.0806   9.0806   9.1075
     9.2492   9.2492   9.2492   9.3284   9.3284   9.3284   9.3424   9.3424
     9.4260   9.4260   9.4260   9.6870   9.6870   9.7091   9.8481   9.8481
     9.8481   9.9078   9.9078   9.9914   9.9914   9.9914  10.1784  10.2795
    10.2795  10.2795  10.5024  10.5024  10.5024  10.6891  10.6891  10.6891
    10.7440  10.7440  10.7440  11.0162  11.0162  11.0162  11.0518  11.0518
    11.0518  11.0883  11.0883  11.0883  11.1690  11.1690  11.2867  11.2867
    11.2867  11.3291  11.3291  11.3291  11.3443  11.3443  11.3477  11.3477
    11.4434  11.4434  11.4434  11.4471  11.6717  11.6717  11.6717  11.8774
    11.8774  11.9290  11.9290  11.9290  12.6170  12.6170  12.6170  12.9211
    12.9211  12.9211

          k = 0.1389 0.1389 0.2315 ( 26075 PWs)   bands (ev):

   -61.0692 -61.0626 -61.0602 -61.0602 -61.0581 -61.0581 -61.0573 -61.0564
   -61.0557 -61.0556 -61.0552 -61.0552 -61.0540 -61.0540 -61.0519 -61.0463
   -31.0692 -31.0692 -31.0675 -31.0625 -31.0587 -31.0587 -31.0452 -31.0423
   -31.0423 -31.0417 -31.0404 -31.0394 -31.0322 -31.0226 -31.0190 -31.0190
   -31.0150 -31.0116 -31.0024 -31.0024 -30.9989 -30.9943 -30.9940 -30.9940
   -30.9912 -30.9859 -30.9837 -30.9802 -30.9802 -30.9742 -30.9742 -30.9740
   -30.9740 -30.9719 -30.9642 -30.9615 -30.9567 -30.9515 -30.9515 -30.9504
   -30.9450 -30.9450 -30.9424 -30.9381 -30.9379 -30.9347 -30.9347 -30.9346
     6.7545   7.9957   8.4002   8.4002   8.4061   8.4061   8.5106   8.5855
     8.5855   8.5980   8.7211   8.7404   9.0454   9.0576   9.0576   9.1245
     9.2426   9.2511   9.2856   9.2864   9.2968   9.2968   9.3155   9.4242
     9.4242   9.4628   9.4628   9.5679   9.7510   9.7510   9.7709   9.8633
     9.8641   9.8905   9.9040   9.9088   9.9255   9.9255  10.1288  10.1288
    10.2831  10.3983  10.4753  10.4753  10.5912  10.6420  10.6420  10.6448
    10.7424  10.7424  10.8287  10.8287  10.8505  10.8574  10.8607  10.9877
    10.9877  11.0961  11.0962  11.1417  11.1417  11.1681  11.2014  11.2015
    11.2075  11.2272  11.3158  11.3171  11.3319  11.3436  11.3573  11.3890
    11.3890  11.5089  11.5594  11.5594  11.5840  11.6943  11.6956  11.6956
    11.7154  11.9071  11.9504  11.9504  12.3504  12.3504  13.1020  13.1042
    13.1042  13.6195

          k = 0.1389 0.1389 0.3241 ( 26072 PWs)   bands (ev):

   -61.0680 -61.0646 -61.0598 -61.0598 -61.0587 -61.0587 -61.0571 -61.0566
   -61.0556 -61.0556 -61.0548 -61.0548 -61.0542 -61.0542 -61.0501 -61.0472
   -31.0645 -31.0645 -31.0611 -31.0583 -31.0504 -31.0504 -31.0502 -31.0502
   -31.0474 -31.0463 -31.0439 -31.0432 -31.0344 -31.0297 -31.0297 -31.0201
   -31.0155 -31.0095 -31.0013 -31.0013 -30.9996 -30.9987 -30.9968 -30.9968
   -30.9877 -30.9868 -30.9852 -30.9781 -30.9781 -30.9750 -30.9750 -30.9661
   -30.9658 -30.9658 -30.9612 -30.9560 -30.9554 -30.9510 -30.9510 -30.9457
   -30.9456 -30.9456 -30.9444 -30.9441 -30.9426 -30.9370 -30.9369 -30.9363
     6.9864   7.6257   8.4239   8.4239   8.4389   8.4389   8.6833   8.7000
     8.7000   8.7337   8.8165   8.8528   8.9596   8.9596   8.9760   9.0773
     9.0863   9.1054   9.2377   9.2539   9.3137   9.3791   9.3791   9.4372
     9.5429   9.5429   9.5858   9.5858   9.6235   9.6235   9.8358   9.8547
     9.8999   9.9010   9.9577   9.9748   9.9748   9.9849   9.9849  10.0663
    10.2011  10.2011  10.4055  10.4645  10.4645  10.4843  10.5138  10.5618
    10.6963  10.7235  10.7987  10.7987  10.7995  10.7995  10.9225  10.9225
    10.9923  10.9937  11.0598  11.0598  11.0632  11.1530  11.1953  11.2607
    11.2712  11.2779  11.3354  11.3418  11.3517  11.3518  11.3804  11.4044
    11.4227  11.4227  11.5090  11.5263  11.6918  11.6918  11.7121  11.7677
    11.7677  11.8840  11.9064  11.9064  12.1209  12.1209  13.3342  13.3342
    13.5948  13.7726

          k = 0.1389 0.1389-0.4167 ( 26020 PWs)   bands (ev):

   -61.0665 -61.0664 -61.0593 -61.0593 -61.0593 -61.0592 -61.0569 -61.0568
   -61.0556 -61.0555 -61.0545 -61.0545 -61.0545 -61.0544 -61.0485 -61.0485
   -31.0581 -31.0581 -31.0581 -31.0581 -31.0531 -31.0531 -31.0529 -31.0528
   -31.0458 -31.0458 -31.0403 -31.0403 -31.0403 -31.0402 -31.0278 -31.0278
   -31.0078 -31.0078 -31.0039 -31.0039 -30.9994 -30.9993 -30.9993 -30.9993
   -30.9864 -30.9864 -30.9765 -30.9765 -30.9764 -30.9763 -30.9763 -30.9763
   -30.9580 -30.9580 -30.9580 -30.9580 -30.9519 -30.9519 -30.9501 -30.9500
   -30.9487 -30.9487 -30.9406 -30.9406 -30.9406 -30.9406 -30.9396 -30.9396
     7.2817   7.2818   8.4428   8.4428   8.4428   8.4428   8.8299   8.8299
     8.8299   8.8299   8.8714   8.8714   8.8899   8.8900   8.9396   8.9396
     8.9744   8.9745   9.2395   9.2395   9.3467   9.3467   9.4912   9.4912
     9.4913   9.4913   9.6446   9.6446   9.6446   9.6446   9.8313   9.8313
     9.9001   9.9002   9.9837   9.9837   9.9837   9.9837  10.1634  10.1634
    10.1634  10.1634  10.2119  10.2120  10.2810  10.2810  10.5439  10.5439
    10.7657  10.7657  10.8588  10.8588  10.8588  10.8588  10.8641  10.8641
    10.9444  10.9444  10.9444  10.9444  11.2142  11.2142  11.2356  11.2356
    11.2845  11.2845  11.3258  11.3258  11.3389  11.3389  11.4191  11.4191
    11.4191  11.4191  11.4296  11.4296  11.8144  11.8144  11.8144  11.8144
    11.8158  11.8158  11.9182  11.9182  11.9182  11.9182  13.5738  13.5738
    13.5738  13.5738

          k = 0.1389 0.2315 0.2315 ( 26064 PWs)   bands (ev):

   -61.0684 -61.0622 -61.0622 -61.0599 -61.0591 -61.0579 -61.0579 -61.0567
   -61.0555 -61.0552 -61.0552 -61.0544 -61.0541 -61.0522 -61.0522 -61.0469
   -31.0681 -31.0651 -31.0651 -31.0568 -31.0568 -31.0509 -31.0466 -31.0466
   -31.0465 -31.0458 -31.0449 -31.0383 -31.0349 -31.0254 -31.0181 -31.0154
   -31.0116 -31.0115 -31.0086 -31.0086 -31.0046 -30.9986 -30.9980 -30.9980
   -30.9826 -30.9826 -30.9821 -30.9809 -30.9809 -30.9761 -30.9746 -30.9679
   -30.9677 -30.9652 -30.9651 -30.9651 -30.9570 -30.9509 -30.9484 -30.9458
   -30.9458 -30.9455 -30.9455 -30.9398 -30.9385 -30.9385 -30.9346 -30.9340
     6.9090   8.0792   8.0792   8.3642   8.4718   8.5262   8.5262   8.6825
     8.6825   8.6850   8.7863   8.8205   9.0084   9.0953   9.1094   9.1094
     9.2137   9.2875   9.2875   9.3253   9.3264   9.3264   9.3553   9.3974
     9.3974   9.4167   9.5309   9.6117   9.6775   9.6944   9.7511   9.7511
     9.8116   9.8513   9.8588   9.8800   9.8860   9.8860  10.0502  10.2131
    10.2131  10.2438  10.4020  10.4020  10.4110  10.5652  10.5652  10.6313
    10.7106  10.7106  10.7230  10.8133  10.8704  10.8704  10.9196  10.9927
    11.0442  11.0442  11.0593  11.0593  11.0957  11.1131  11.1345  11.1345
    11.1900  11.2954  11.3013  11.3063  11.3227  11.3349  11.3499  11.3499
    11.3582  11.4934  11.4934  11.5695  11.6334  11.6847  11.6847  11.7402
    11.7402  11.7990  11.9038  11.9964  12.0598  12.7825  12.7825  13.3267
    13.8340  13.8340

          k = 0.1389 0.2315 0.3241 ( 26082 PWs)   bands (ev):

   -61.0673 -61.0641 -61.0616 -61.0600 -61.0595 -61.0585 -61.0577 -61.0570
   -61.0554 -61.0552 -61.0548 -61.0543 -61.0536 -61.0526 -61.0505 -61.0478
   -31.0648 -31.0611 -31.0592 -31.0543 -31.0535 -31.0506 -31.0498 -31.0489
   -31.0486 -31.0481 -31.0431 -31.0414 -31.0338 -31.0333 -31.0200 -31.0196
   -31.0145 -31.0098 -31.0076 -31.0051 -31.0031 -31.0030 -31.0013 -30.9974
   -30.9911 -30.9822 -30.9818 -30.9787 -30.9756 -30.9751 -30.9739 -30.9725
   -30.9669 -30.9614 -30.9594 -30.9577 -30.9571 -30.9530 -30.9502 -30.9473
   -30.9451 -30.9441 -30.9441 -30.9408 -30.9407 -30.9399 -30.9351 -30.9348
     7.1328   7.7386   8.1764   8.3230   8.5306   8.5477   8.7018   8.7914
     8.7984   8.8027   8.8696   8.9373   8.9731   9.0264   9.0366   9.0645
     9.0969   9.1983   9.2804   9.3168   9.3652   9.3857   9.3886   9.4727
     9.4865   9.4915   9.5180   9.5845   9.6077   9.6552   9.7350   9.7629
     9.7934   9.8619   9.8700   9.8701   9.9346   9.9720   9.9742  10.0036
    10.0332  10.1596  10.2541  10.2741  10.2846  10.3286  10.3459  10.5574
    10.7543  10.8126  10.8407  10.8437  10.8547  10.8714  10.8786  10.8916
    10.9903  11.0281  11.0419  11.0607  11.0645  11.1158  11.1652  11.2290
    11.2551  11.2555  11.2557  11.3187  11.3347  11.3398  11.3756  11.3776
    11.3817  11.3881  11.4497  11.4930  11.5684  11.6139  11.7272  11.7926
    11.8055  11.8169  11.9067  11.9797  11.9883  12.4963  13.2280  13.5984
    14.0984  14.1208

          k = 0.1389 0.2315-0.4167 ( 26068 PWs)   bands (ev):

   -61.0658 -61.0658 -61.0609 -61.0608 -61.0591 -61.0590 -61.0574 -61.0573
   -61.0553 -61.0552 -61.0546 -61.0545 -61.0531 -61.0530 -61.0490 -61.0490
   -31.0598 -31.0598 -31.0560 -31.0560 -31.0516 -31.0516 -31.0513 -31.0513
   -31.0496 -31.0496 -31.0416 -31.0416 -31.0308 -31.0308 -31.0275 -31.0275
   -31.0089 -31.0089 -31.0068 -31.0067 -31.0038 -31.0038 -30.9995 -30.9995
   -30.9861 -30.9861 -30.9823 -30.9823 -30.9769 -30.9769 -30.9694 -30.9694
   -30.9655 -30.9655 -30.9554 -30.9554 -30.9512 -30.9512 -30.9500 -30.9500
   -30.9497 -30.9497 -30.9421 -30.9421 -30.9372 -30.9371 -30.9371 -30.9371
     7.4150   7.4150   8.2621   8.2622   8.5558   8.5558   8.9062   8.9062
     8.9095   8.9095   8.9163   8.9163   8.9166   8.9166   8.9687   8.9687
     9.0691   9.0691   9.2849   9.2849   9.4214   9.4214   9.4696   9.4696
     9.4842   9.4842   9.5330   9.5330   9.6779   9.6779   9.7361   9.7361
     9.8661   9.8661   9.8921   9.8921   9.9885   9.9885  10.0020  10.0020
    10.0082  10.0082  10.0806  10.0806  10.1330  10.1330  10.5320  10.5320
    10.7181  10.7181  10.8499  10.8499  10.9269  10.9270  10.9359  10.9359
    10.9619  10.9619  10.9668  10.9668  11.1901  11.1901  11.2093  11.2093
    11.2420  11.2420  11.2939  11.2939  11.3359  11.3359  11.3364  11.3364
    11.3922  11.3922  11.4538  11.4538  11.6047  11.6047  11.6762  11.6762
    11.8696  11.8697  11.9114  11.9114  12.2303  12.2303  13.6753  13.6753
    13.8827  13.8828

          k = 0.1389 0.3241 0.3241 ( 26025 PWs)   bands (ev):

   -61.0662 -61.0634 -61.0634 -61.0613 -61.0592 -61.0582 -61.0582 -61.0574
   -61.0552 -61.0549 -61.0549 -61.0544 -61.0526 -61.0510 -61.0510 -61.0486
   -31.0630 -31.0564 -31.0564 -31.0545 -31.0545 -31.0516 -31.0516 -31.0493
   -31.0493 -31.0485 -31.0458 -31.0381 -31.0312 -31.0300 -31.0176 -31.0176
   -31.0149 -31.0086 -31.0086 -31.0086 -31.0077 -31.0066 -31.0066 -30.9993
   -30.9857 -30.9823 -30.9822 -30.9803 -30.9793 -30.9793 -30.9764 -30.9674
   -30.9653 -30.9595 -30.9595 -30.9568 -30.9549 -30.9511 -30.9497 -30.9497
   -30.9479 -30.9446 -30.9441 -30.9441 -30.9372 -30.9372 -30.9344 -30.9341
     7.3422   7.8880   7.8880   8.1995   8.6298   8.7145   8.7145   8.8924
     8.8950   8.8950   8.9281   8.9792   9.0271   9.0294   9.0295   9.0655
     9.0673   9.3578   9.3578   9.3637   9.3637   9.3872   9.4272   9.4312
     9.4504   9.4504   9.5313   9.5434   9.6091   9.6091   9.6887   9.7026
     9.7750   9.7847   9.7925   9.8595   9.8910   9.8910   9.9312   9.9458
    10.0196  10.0196  10.0853  10.0853  10.1313  10.1396  10.1396  10.5186
    10.7286  10.8594  10.9149  10.9149  10.9216  10.9595  10.9665  10.9665
    11.0399  11.0565  11.0738  11.0738  11.1023  11.1023  11.1034  11.1034
    11.2112  11.2167  11.2189  11.2774  11.2974  11.3384  11.3389  11.3389
    11.3580  11.3580  11.3854  11.4105  11.5671  11.5688  11.5736  11.5736
    11.8901  11.8901  11.9379  11.9983  12.2680  12.8919  12.8919  13.7026
    13.9140  14.5595

          k = 0.1389 0.3241-0.4167 ( 26052 PWs)   bands (ev):

   -61.0649 -61.0649 -61.0624 -61.0624 -61.0587 -61.0587 -61.0579 -61.0578
   -61.0550 -61.0550 -61.0547 -61.0546 -61.0518 -61.0517 -61.0497 -61.0497
   -31.0595 -31.0595 -31.0538 -31.0538 -31.0536 -31.0536 -31.0509 -31.0509
   -31.0489 -31.0489 -31.0437 -31.0437 -31.0245 -31.0245 -31.0201 -31.0201
   -31.0137 -31.0136 -31.0117 -31.0117 -31.0083 -31.0083 -30.9971 -30.9971
   -30.9908 -30.9908 -30.9798 -30.9798 -30.9775 -30.9775 -30.9736 -30.9736
   -30.9631 -30.9630 -30.9531 -30.9531 -30.9529 -30.9529 -30.9499 -30.9499
   -30.9494 -30.9494 -30.9443 -30.9443 -30.9351 -30.9351 -30.9349 -30.9349
     7.6009   7.6009   8.0500   8.0500   8.6964   8.6964   8.8915   8.8915
     8.9641   8.9641   8.9719   8.9719   8.9876   8.9876   8.9974   8.9974
     9.2149   9.2150   9.3715   9.3715   9.4586   9.4586   9.4618   9.4618
     9.4731   9.4731   9.5056   9.5056   9.5648   9.5649   9.6357   9.6357
     9.8108   9.8108   9.8288   9.8288   9.8649   9.8649   9.9538   9.9539
     9.9600   9.9600   9.9744   9.9744   9.9928   9.9929  10.3068  10.3068
    10.8946  10.8946  10.9112  10.9112  10.9947  10.9947  11.0058  11.0058
    11.0159  11.0159  11.0242  11.0242  11.1229  11.1229  11.1553  11.1553
    11.1560  11.1560  11.2579  11.2580  11.2731  11.2731  11.3465  11.3466
    11.3529  11.3529  11.3753  11.3754  11.4683  11.4683  11.5632  11.5633
    11.9355  11.9355  11.9655  11.9655  12.5730  12.5730  13.2950  13.2950
    14.2454  14.2454

          k = 0.1389-0.4167-0.4167 ( 26036 PWs)   bands (ev):

   -61.0638 -61.0637 -61.0637 -61.0637 -61.0584 -61.0583 -61.0583 -61.0582
   -61.0549 -61.0548 -61.0548 -61.0547 -61.0507 -61.0506 -61.0506 -61.0506
   -31.0573 -31.0573 -31.0573 -31.0573 -31.0516 -31.0516 -31.0516 -31.0516
   -31.0462 -31.0462 -31.0462 -31.0462 -31.0197 -31.0196 -31.0196 -31.0196
   -31.0113 -31.0113 -31.0113 -31.0113 -31.0087 -31.0087 -31.0087 -31.0087
   -30.9821 -30.9821 -30.9821 -30.9821 -30.9784 -30.9784 -30.9783 -30.9783
   -30.9576 -30.9576 -30.9576 -30.9575 -30.9510 -30.9510 -30.9510 -30.9510
   -30.9469 -30.9469 -30.9469 -30.9469 -30.9343 -30.9343 -30.9342 -30.9342
     7.8209   7.8210   7.8210   7.8210   8.8218   8.8218   8.8218   8.8218
     8.9928   8.9929   8.9929   8.9929   9.0106   9.0106   9.0106   9.0106
     9.3886   9.3886   9.3886   9.3886   9.4476   9.4476   9.4476   9.4476
     9.4659   9.4659   9.4659   9.4660   9.5567   9.5567   9.5567   9.5567
     9.7278   9.7278   9.7278   9.7278   9.8982   9.8982   9.8982   9.8982
     9.9377   9.9377   9.9377   9.9377  10.1082  10.1083  10.1083  10.1083
    10.9931  10.9931  10.9931  10.9931  11.0256  11.0256  11.0256  11.0256
    11.0866  11.0866  11.0866  11.0866  11.1012  11.1012  11.1012  11.1013
    11.1216  11.1216  11.1216  11.1216  11.2466  11.2466  11.2466  11.2466
    11.3606  11.3606  11.3606  11.3607  11.4963  11.4963  11.4963  11.4963
    11.9728  11.9728  11.9728  11.9728  12.9295  12.9295  12.9295  12.9295
    14.6262  14.6262

          k = 0.2315 0.2315 0.2315 ( 26040 PWs)   bands (ev):

   -61.0677 -61.0618 -61.0618 -61.0618 -61.0588 -61.0588 -61.0588 -61.0572
   -61.0551 -61.0545 -61.0544 -61.0544 -61.0524 -61.0524 -61.0524 -61.0474
   -31.0639 -31.0639 -31.0639 -31.0503 -31.0502 -31.0502 -31.0488 -31.0488
   -31.0488 -31.0466 -31.0430 -31.0430 -31.0296 -31.0296 -31.0156 -31.0156
   -31.0156 -31.0142 -31.0142 -31.0142 -31.0077 -31.0036 -31.0036 -31.0036
   -30.9761 -30.9761 -30.9761 -30.9756 -30.9756 -30.9756 -30.9735 -30.9708
   -30.9708 -30.9652 -30.9652 -30.9652 -30.9539 -30.9502 -30.9501 -30.9501
   -30.9437 -30.9437 -30.9437 -30.9380 -30.9380 -30.9380 -30.9379 -30.9379
     7.0602   8.1756   8.1756   8.1756   8.4993   8.4993   8.4993   8.7779
     8.7779   8.7779   8.8749   8.8749   8.9974   9.1917   9.1917   9.1917
     9.2932   9.2932   9.2932   9.3140   9.3140   9.3140   9.3166   9.3166
     9.4815   9.4815   9.4815   9.5178   9.7160   9.7160   9.7160   9.7378
     9.7378   9.7654   9.7654   9.7654   9.7984   9.7984  10.0639  10.0639
    10.0639  10.1925  10.1925  10.1925  10.3442  10.3442  10.3442  10.5568
    10.7475  10.7910  10.7910  10.7910  10.9507  10.9507  10.9507  11.0019
    11.0019  11.0019  11.1265  11.1265  11.1265  11.1392  11.1392  11.2393
    11.2393  11.2393  11.3005  11.3005  11.3073  11.3073  11.3073  11.3282
    11.3282  11.5199  11.5199  11.5199  11.6708  11.6708  11.6708  11.7441
    11.7441  11.7999  11.7999  11.7999  12.4434  12.4434  12.4434  14.0699
    14.0699  14.0699

          k = 0.2315 0.2315 0.3241 ( 26024 PWs)   bands (ev):

   -61.0666 -61.0636 -61.0613 -61.0613 -61.0597 -61.0597 -61.0585 -61.0577
   -61.0549 -61.0545 -61.0538 -61.0538 -61.0527 -61.0527 -61.0508 -61.0483
   -31.0609 -31.0609 -31.0576 -31.0524 -31.0524 -31.0499 -31.0495 -31.0477
   -31.0468 -31.0422 -31.0422 -31.0402 -31.0377 -31.0243 -31.0242 -31.0234
   -31.0231 -31.0145 -31.0145 -31.0098 -31.0086 -31.0085 -31.0051 -30.9998
   -30.9836 -30.9833 -30.9758 -30.9733 -30.9719 -30.9719 -30.9683 -30.9683
   -30.9664 -30.9664 -30.9606 -30.9566 -30.9554 -30.9554 -30.9517 -30.9499
   -30.9439 -30.9428 -30.9416 -30.9416 -30.9402 -30.9384 -30.9384 -30.9372
     7.2781   7.8585   8.2905   8.2905   8.4610   8.4610   8.6911   8.8872
     8.8917   8.8917   8.9537   8.9912   8.9950   9.1310   9.1310   9.1689
     9.1737   9.1937   9.2979   9.3021   9.3746   9.3746   9.4141   9.4141
     9.4505   9.5647   9.5647   9.5903   9.5903   9.5903   9.5953   9.7111
     9.7350   9.7418   9.7785   9.7785   9.7815   9.8720   9.9331   9.9331
     9.9781   9.9781  10.0602  10.0879  10.0879  10.1110  10.1376  10.5069
    10.7241  10.8819  10.8945  10.8945  10.9759  10.9759  10.9774  10.9774
    11.0668  11.0819  11.0819  11.0926  11.0990  11.1278  11.1624  11.1980
    11.2566  11.2725  11.3047  11.3079  11.3114  11.3114  11.3312  11.3312
    11.3584  11.3823  11.5439  11.6163  11.6542  11.6542  11.7037  11.7037
    11.7535  11.7997  11.8018  11.8018  12.1519  12.1519  12.8506  13.6836
    14.3598  14.3598

          k = 0.2315 0.2315-0.4167 ( 26058 PWs)   bands (ev):

   -61.0653 -61.0652 -61.0606 -61.0605 -61.0605 -61.0605 -61.0581 -61.0581
   -61.0547 -61.0547 -61.0533 -61.0532 -61.0532 -61.0531 -61.0495 -61.0494
   -31.0568 -31.0568 -31.0568 -31.0568 -31.0497 -31.0496 -31.0492 -31.0492
   -31.0487 -31.0486 -31.0334 -31.0334 -31.0334 -31.0334 -31.0311 -31.0310
   -31.0166 -31.0166 -31.0124 -31.0124 -31.0124 -31.0124 -30.9941 -30.9941
   -30.9917 -30.9917 -30.9750 -30.9750 -30.9687 -30.9687 -30.9687 -30.9687
   -30.9615 -30.9615 -30.9615 -30.9615 -30.9515 -30.9515 -30.9503 -30.9503
   -30.9491 -30.9491 -30.9397 -30.9397 -30.9397 -30.9397 -30.9380 -30.9380
     7.5505   7.5506   8.3927   8.3927   8.3927   8.3927   8.9247   8.9247
     8.9681   8.9681   9.0146   9.0146   9.0147   9.0147   9.0534   9.0534
     9.1109   9.1110   9.2949   9.2949   9.4682   9.4682   9.4682   9.4682
     9.4832   9.4832   9.5617   9.5617   9.5617   9.5617   9.7027   9.7027
     9.7625   9.7625   9.8039   9.8039   9.8647   9.8647   9.8647   9.8647
     9.8873   9.8873   9.8873   9.8873  10.0011  10.0011  10.2939  10.2939
    10.9064  10.9064  10.9732  10.9732  10.9732  10.9732  10.9782  10.9782
    10.9981  10.9981  10.9981  10.9981  11.1935  11.1935  11.2083  11.2083
    11.2682  11.2682  11.3072  11.3072  11.3311  11.3311  11.3314  11.3314
    11.3314  11.3314  11.4756  11.4756  11.7607  11.7607  11.7607  11.7607
    11.8005  11.8005  11.8869  11.8869  11.8869  11.8869  13.2651  13.2651
    14.6533  14.6534

          k = 0.2315 0.3241 0.3241 ( 26039 PWs)   bands (ev):

   -61.0656 -61.0629 -61.0629 -61.0609 -61.0607 -61.0593 -61.0593 -61.0583
   -61.0545 -61.0539 -61.0539 -61.0530 -61.0528 -61.0513 -61.0513 -61.0491
   -31.0590 -31.0553 -31.0553 -31.0524 -31.0524 -31.0520 -31.0478 -31.0465
   -31.0435 -31.0435 -31.0418 -31.0365 -31.0335 -31.0303 -31.0260 -31.0232
   -31.0232 -31.0178 -31.0151 -31.0151 -31.0151 -31.0142 -31.0142 -30.9931
   -30.9917 -30.9758 -30.9758 -30.9711 -30.9711 -30.9695 -30.9666 -30.9661
   -30.9626 -30.9615 -30.9580 -30.9580 -30.9572 -30.9533 -30.9533 -30.9513
   -30.9452 -30.9438 -30.9438 -30.9426 -30.9393 -30.9393 -30.9380 -30.9379
     7.4854   8.0179   8.0179   8.3438   8.4338   8.6553   8.6553   8.9932
     8.9958   8.9958   9.0271   9.0322   9.0974   9.1037   9.1436   9.1436
     9.2098   9.3473   9.3473   9.3613   9.3613   9.3645   9.3699   9.4147
     9.4710   9.4967   9.4967   9.5678   9.5936   9.5936   9.5968   9.6500
     9.6570   9.6698   9.7362   9.7362   9.7442   9.7715   9.8160   9.8423
     9.8423   9.8566   9.9122   9.9312   9.9312   9.9472   9.9472  10.2699
    10.9150  10.9648  10.9648  10.9704  10.9998  11.0618  11.0840  11.0859
    11.0942  11.0942  11.1181  11.1181  11.1239  11.1239  11.1870  11.2268
    11.2662  11.2691  11.2692  11.2736  11.2952  11.3060  11.3060  11.3363
    11.3871  11.3871  11.3986  11.4648  11.6256  11.6256  11.6328  11.7672
    11.7672  11.7794  11.8263  11.8621  11.9145  12.5169  12.5169  13.2806
    14.6800  15.2096

          k = 0.2315 0.3241-0.4167 ( 26054 PWs)   bands (ev):

   -61.0644 -61.0643 -61.0620 -61.0619 -61.0601 -61.0600 -61.0589 -61.0588
   -61.0542 -61.0542 -61.0535 -61.0534 -61.0520 -61.0520 -61.0501 -61.0501
   -31.0559 -31.0559 -31.0531 -31.0530 -31.0506 -31.0506 -31.0484 -31.0484
   -31.0450 -31.0450 -31.0369 -31.0369 -31.0308 -31.0307 -31.0240 -31.0240
   -31.0216 -31.0216 -31.0202 -31.0202 -31.0181 -31.0181 -31.0037 -31.0037
   -30.9836 -30.9836 -30.9701 -30.9701 -30.9684 -30.9684 -30.9680 -30.9680
   -30.9613 -30.9613 -30.9575 -30.9575 -30.9518 -30.9518 -30.9508 -30.9508
   -30.9504 -30.9503 -30.9433 -30.9433 -30.9383 -30.9383 -30.9381 -30.9381
     7.7396   7.7397   8.1901   8.1901   8.5681   8.5681   8.8850   8.8850
     9.0498   9.0498   9.0813   9.0813   9.0940   9.0940   9.1183   9.1183
     9.2383   9.2383   9.3593   9.3593   9.4591   9.4592   9.4617   9.4617
     9.4881   9.4881   9.5116   9.5116   9.5447   9.5448   9.6163   9.6163
     9.6206   9.6206   9.6908   9.6908   9.7305   9.7305   9.7908   9.7908
     9.7911   9.7911   9.8343   9.8343   9.8672   9.8672  10.0700  10.0700
    11.0358  11.0358  11.0424  11.0424  11.0530  11.0530  11.0559  11.0559
    11.0925  11.0925  11.1202  11.1202  11.1758  11.1758  11.1981  11.1981
    11.2398  11.2398  11.2743  11.2743  11.2912  11.2912  11.3001  11.3001
    11.3218  11.3218  11.4848  11.4848  11.6025  11.6025  11.6168  11.6168
    11.7913  11.7913  11.8070  11.8070  12.2070  12.2070  12.8942  12.8942
    15.0149  15.0149

          k = 0.2315-0.4167-0.4167 ( 26028 PWs)   bands (ev):

   -61.0633 -61.0632 -61.0632 -61.0632 -61.0596 -61.0595 -61.0595 -61.0594
   -61.0538 -61.0538 -61.0538 -61.0537 -61.0510 -61.0509 -61.0509 -61.0509
   -31.0534 -31.0534 -31.0534 -31.0534 -31.0497 -31.0496 -31.0496 -31.0496
   -31.0410 -31.0409 -31.0409 -31.0409 -31.0267 -31.0266 -31.0266 -31.0266
   -31.0219 -31.0219 -31.0219 -31.0219 -31.0139 -31.0139 -31.0138 -31.0138
   -30.9758 -30.9758 -30.9758 -30.9758 -30.9681 -30.9681 -30.9680 -30.9680
   -30.9552 -30.9552 -30.9552 -30.9552 -30.9543 -30.9543 -30.9543 -30.9543
   -30.9473 -30.9473 -30.9473 -30.9473 -30.9379 -30.9379 -30.9379 -30.9379
     7.9624   7.9624   7.9624   7.9624   8.7525   8.7525   8.7525   8.7526
     9.1045   9.1045   9.1045   9.1045   9.1283   9.1283   9.1283   9.1283
     9.4046   9.4046   9.4046   9.4047   9.4524   9.4524   9.4524   9.4524
     9.4674   9.4674   9.4674   9.4674   9.5369   9.5369   9.5370   9.5370
     9.5522   9.5522   9.5522   9.5522   9.7406   9.7406   9.7406   9.7406
     9.8163   9.8163   9.8163   9.8163   9.8857   9.8857   9.8857   9.8857
    11.0661  11.0661  11.0661  11.0661  11.1172  11.1172  11.1172  11.1173
    11.1732  11.1732  11.1732  11.1732  11.1740  11.1740  11.1740  11.1740
    11.2328  11.2328  11.2328  11.2328  11.3096  11.3097  11.3097  11.3097
    11.3526  11.3526  11.3526  11.3526  11.5201  11.5201  11.5201  11.5201
    11.8117  11.8117  11.8117  11.8117  12.5441  12.5441  12.5441  12.5441
    15.3981  15.3981

          k = 0.3241 0.3241 0.3241 ( 26002 PWs)   bands (ev):

   -61.0647 -61.0622 -61.0622 -61.0622 -61.0604 -61.0604 -61.0604 -61.0591
   -61.0540 -61.0531 -61.0531 -61.0531 -61.0518 -61.0518 -61.0518 -61.0498
   -31.0530 -31.0530 -31.0530 -31.0506 -31.0506 -31.0506 -31.0436 -31.0424
   -31.0424 -31.0366 -31.0366 -31.0366 -31.0363 -31.0363 -31.0271 -31.0271
   -31.0271 -31.0223 -31.0223 -31.0223 -31.0213 -31.0213 -31.0213 -31.0021
   -30.9839 -30.9692 -30.9692 -30.9692 -30.9642 -30.9642 -30.9642 -30.9596
   -30.9596 -30.9577 -30.9577 -30.9577 -30.9576 -30.9576 -30.9576 -30.9525
   -30.9436 -30.9436 -30.9436 -30.9430 -30.9430 -30.9416 -30.9416 -30.9416
     7.6882   8.1934   8.1934   8.1934   8.5494   8.5494   8.5494   9.0448
     9.1069   9.1119   9.1119   9.1119   9.1576   9.1576   9.2942   9.2942
     9.2942   9.3136   9.3136   9.3136   9.3679   9.3679   9.3953   9.3953
     9.3953   9.5390   9.5390   9.5390   9.5825   9.5825   9.5825   9.5923
     9.5923   9.5923   9.6452   9.6452   9.6588   9.6588   9.6916   9.6916
     9.6916   9.7476   9.7476   9.7476   9.7801   9.7801   9.7801  10.0337
    11.0298  11.0298  11.0298  11.1294  11.1313  11.1313  11.1313  11.1424
    11.1424  11.1424  11.1439  11.1439  11.2082  11.2082  11.2082  11.2428
    11.2428  11.2668  11.2668  11.2668  11.2783  11.2783  11.2783  11.3508
    11.3508  11.5864  11.5864  11.6203  11.6203  11.6203  11.6415  11.6415
    11.6415  11.6663  11.6663  11.6663  12.1926  12.1926  12.1926  12.8991
    15.5345  15.5345

          k = 0.3241 0.3241-0.4167 ( 26004 PWs)   bands (ev):

   -61.0636 -61.0635 -61.0614 -61.0614 -61.0614 -61.0613 -61.0598 -61.0597
   -61.0535 -61.0534 -61.0524 -61.0524 -61.0523 -61.0523 -61.0507 -61.0506
   -31.0508 -31.0508 -31.0508 -31.0508 -31.0472 -31.0472 -31.0453 -31.0453
   -31.0401 -31.0401 -31.0354 -31.0354 -31.0296 -31.0296 -31.0290 -31.0290
   -31.0290 -31.0290 -31.0269 -31.0269 -31.0269 -31.0269 -31.0117 -31.0117
   -30.9763 -30.9763 -30.9631 -30.9631 -30.9631 -30.9630 -30.9621 -30.9620
   -30.9595 -30.9595 -30.9595 -30.9595 -30.9546 -30.9546 -30.9510 -30.9509
   -30.9497 -30.9496 -30.9432 -30.9432 -30.9432 -30.9432 -30.9418 -30.9417
     7.9333   7.9333   8.3849   8.3849   8.3849   8.3849   8.7990   8.7991
     9.1634   9.1634   9.2230   9.2230   9.2238   9.2238   9.2238   9.2238
     9.2835   9.2836   9.3779   9.3779   9.4701   9.4701   9.4701   9.4701
     9.4800   9.4800   9.4800   9.4801   9.4971   9.4971   9.5293   9.5294
     9.5852   9.5852   9.6105   9.6105   9.6105   9.6105   9.6184   9.6184
     9.6758   9.6758   9.6758   9.6758   9.7102   9.7102   9.8442   9.8442
    11.0900  11.0900  11.0946  11.0946  11.0946  11.0946  11.1859  11.1859
    11.2006  11.2006  11.2006  11.2006  11.2117  11.2117  11.2565  11.2565
    11.2628  11.2628  11.2628  11.2628  11.2638  11.2638  11.3632  11.3632
    11.3884  11.3884  11.4773  11.4773  11.6367  11.6367  11.6367  11.6367
    11.6535  11.6535  11.8969  11.8969  11.8969  11.8969  12.5394  12.5394
    15.8647  15.8647

          k = 0.3241-0.4167-0.4167 ( 26008 PWs)   bands (ev):

   -61.0626 -61.0625 -61.0625 -61.0625 -61.0607 -61.0606 -61.0606 -61.0606
   -61.0529 -61.0528 -61.0528 -61.0528 -61.0515 -61.0514 -61.0514 -61.0514
   -31.0477 -31.0477 -31.0477 -31.0477 -31.0458 -31.0457 -31.0457 -31.0457
   -31.0346 -31.0346 -31.0346 -31.0346 -31.0339 -31.0338 -31.0338 -31.0338
   -31.0317 -31.0317 -31.0317 -31.0317 -31.0204 -31.0204 -31.0204 -31.0204
   -30.9694 -30.9694 -30.9694 -30.9694 -30.9586 -30.9586 -30.9586 -30.9586
   -30.9584 -30.9584 -30.9584 -30.9584 -30.9527 -30.9526 -30.9526 -30.9526
   -30.9485 -30.9485 -30.9485 -30.9484 -30.9433 -30.9433 -30.9433 -30.9433
     8.1600   8.1601   8.1601   8.1601   8.6074   8.6075   8.6075   8.6075
     9.2605   9.2605   9.2605   9.2605   9.2785   9.2785   9.2785   9.2785
     9.4248   9.4248   9.4248   9.4248   9.4601   9.4602   9.4602   9.4602
     9.4613   9.4613   9.4613   9.4613   9.4660   9.4660   9.4660   9.4661
     9.5122   9.5122   9.5122   9.5123   9.5926   9.5926   9.5926   9.5926
     9.6409   9.6409   9.6409   9.6409   9.6640   9.6640   9.6640   9.6640
    11.1207  11.1207  11.1207  11.1207  11.1516  11.1516  11.1516  11.1516
    11.2119  11.2119  11.2119  11.2119  11.2497  11.2497  11.2497  11.2497
    11.2883  11.2883  11.2883  11.2883  11.3297  11.3297  11.3297  11.3297
    11.5057  11.5057  11.5057  11.5057  11.6197  11.6197  11.6197  11.6197
    11.6244  11.6244  11.6244  11.6244  12.2102  12.2102  12.2102  12.2102
    16.2572  16.2572

          k =-0.4167-0.4167-0.4167 ( 25912 PWs)   bands (ev):

   -61.0618 -61.0617 -61.0617 -61.0617 -61.0617 -61.0617 -61.0617 -61.0616
   -61.0522 -61.0520 -61.0520 -61.0520 -61.0520 -61.0520 -61.0520 -61.0519
   -31.0404 -31.0404 -31.0404 -31.0403 -31.0403 -31.0403 -31.0403 -31.0403
   -31.0403 -31.0403 -31.0403 -31.0403 -31.0403 -31.0403 -31.0403 -31.0403
   -31.0276 -31.0276 -31.0276 -31.0276 -31.0276 -31.0276 -31.0276 -31.0276
   -30.9634 -30.9634 -30.9634 -30.9634 -30.9634 -30.9634 -30.9634 -30.9634
   -30.9504 -30.9504 -30.9504 -30.9503 -30.9503 -30.9503 -30.9503 -30.9503
   -30.9503 -30.9503 -30.9503 -30.9503 -30.9503 -30.9503 -30.9503 -30.9503
     8.3902   8.3902   8.3902   8.3902   8.3902   8.3902   8.3902   8.3903
     9.4448   9.4448   9.4448   9.4448   9.4448   9.4448   9.4448   9.4448
     9.4448   9.4448   9.4448   9.4448   9.4448   9.4448   9.4449   9.4449
     9.4603   9.4603   9.4603   9.4603   9.4603   9.4603   9.4603   9.4603
     9.4871   9.4871   9.4871   9.4871   9.4871   9.4871   9.4871   9.4871
     9.4871   9.4871   9.4871   9.4871   9.4871   9.4871   9.4871   9.4871
    11.1843  11.1843  11.1843  11.1843  11.1843  11.1843  11.1843  11.1843
    11.1843  11.1843  11.1843  11.1843  11.1843  11.1843  11.1843  11.1843
    11.4427  11.4427  11.4427  11.4427  11.4427  11.4427  11.4427  11.4427
    11.4427  11.4427  11.4427  11.4427  11.4427  11.4427  11.4427  11.4427
    11.9058  11.9058  11.9058  11.9058  11.9058  11.9058  11.9058  11.9058
    17.1816  17.1816

     the Fermi energy is    11.2524 ev

!    total energy              =   -6903.76258904 Ry

     total all-electron energy =   -144991.957759 Ry
     estimated scf accuracy    <       0.00000084 Ry
     smearing contrib. (-TS)   =      -0.16387587 Ry
     internal energy E=F+TS    =   -6903.59871317 Ry

     The total energy is F=E-TS. E is the sum of the following terms:
     one-electron contribution =   -1161.72594033 Ry
     hartree contribution      =     684.23675028 Ry
     xc contribution           =    -457.90160571 Ry
     ewald contribution        =   -2173.70067773 Ry
     one-center paw contrib.   =   -3794.50723969 Ry

     convergence has been achieved in  10 iterations

     Forces acting on atoms (cartesian axes, Ry/au):

     atom    1 type  1   force =     0.00000000    0.00000000    0.00000000
     atom    2 type  1   force =    -0.00000556   -0.00000556   -0.00000556
     atom    3 type  1   force =     0.00000000    0.00000000    0.00000000
     atom    4 type  1   force =    -0.00000556   -0.00000556    0.00000556
     atom    5 type  1   force =     0.00000000    0.00000000    0.00000000
     atom    6 type  1   force =    -0.00000556    0.00000556   -0.00000556
     atom    7 type  1   force =     0.00000000    0.00000000    0.00000000
     atom    8 type  1   force =    -0.00000556    0.00000556    0.00000556
     atom    9 type  1   force =     0.00000000    0.00000000    0.00000000
     atom   10 type  1   force =     0.00000556   -0.00000556   -0.00000556
     atom   11 type  1   force =     0.00000000    0.00000000    0.00000000
     atom   12 type  1   force =     0.00000556   -0.00000556    0.00000556
     atom   13 type  1   force =     0.00000000    0.00000000    0.00000000
     atom   14 type  1   force =     0.00000556    0.00000556   -0.00000556
     atom   15 type  1   force =     0.00000000    0.00000000    0.00000000
     atom   16 type  1   force =     0.00000556    0.00000556    0.00000556

     Total force =     0.000027     Total SCF correction =     0.000705
     SCF correction compared to forces is large: reduce conv_thr to get better values


     Computing stress (Cartesian axis) and pressure

          total   stress  (Ry/bohr**3)                   (kbar)     P=     -384.04
  -0.00261067   0.00000000   0.00000000         -384.04        0.00        0.00
   0.00000000  -0.00261067   0.00000000            0.00     -384.04        0.00
   0.00000000   0.00000000  -0.00261067            0.00        0.00     -384.04


     Writing output data file /scratch/plZYKuTunRUVQQoT.save/
 
     init_run     :      5.44s CPU      5.57s WALL (       1 calls)
     electrons    :    197.34s CPU    200.90s WALL (       1 calls)
     forces       :      1.38s CPU      1.41s WALL (       1 calls)
     stress       :      5.43s CPU      5.50s WALL (       1 calls)

     Called by init_run:
     wfcinit      :      4.38s CPU      4.47s WALL (       1 calls)
     potinit      :      0.13s CPU      0.14s WALL (       1 calls)
     hinit0       :      0.51s CPU      0.52s WALL (       1 calls)

     Called by electrons:
     c_bands      :    174.11s CPU    177.10s WALL (      11 calls)
     sum_band     :     22.07s CPU     22.46s WALL (      11 calls)
     v_of_rho     :      0.22s CPU      0.23s WALL (      11 calls)
     newd         :      0.25s CPU      0.32s WALL (      11 calls)
     PAW_pot      :      0.64s CPU      0.72s WALL (      11 calls)
     mix_rho      :      0.06s CPU      0.07s WALL (      11 calls)

     Called by c_bands:
     init_us_2    :      0.64s CPU      0.67s WALL (     875 calls)
     cegterg      :    171.71s CPU    174.60s WALL (     385 calls)

     Called by *egterg:
     cdiaghg      :     20.53s CPU     21.10s WALL (    1540 calls)
     h_psi        :    105.34s CPU    107.02s WALL (    1610 calls)
     s_psi        :      2.91s CPU      2.94s WALL (    1610 calls)
     g_psi        :      0.14s CPU      0.14s WALL (    1190 calls)

     Called by h_psi:
     h_psi:calbec :      7.13s CPU      7.20s WALL (    1610 calls)
     vloc_psi     :     94.82s CPU     96.38s WALL (    1610 calls)
     add_vuspsi   :      3.07s CPU      3.11s WALL (    1610 calls)

     General routines
     calbec       :     11.05s CPU     11.15s WALL (    2170 calls)
     fft          :      0.26s CPU      0.27s WALL (     167 calls)
     ffts         :      0.01s CPU      0.02s WALL (      22 calls)
     fftw         :    110.40s CPU    112.17s WALL (  366370 calls)
     interpolate  :      0.02s CPU      0.03s WALL (      11 calls)
 
     Parallel routines
     fft_scatt_xy :      5.99s CPU      6.09s WALL (  366559 calls)
     fft_scatt_yz :     85.66s CPU     87.06s WALL (  366559 calls)
 
     PWSCF        :   3m35.74s CPU   3m40.53s WALL

 
   This run was terminated on:  23:50:40  25Nov2021            

=------------------------------------------------------------------------------=
   JOB DONE.
=------------------------------------------------------------------------------=
