
     Program PWSCF v.6.7MaX starts on 26Nov2021 at  0:36:47 

     This program is part of the open-source Quantum ESPRESSO suite
     for quantum simulation of materials; please cite
         "P. Giannozzi et al., J. Phys.:Condens. Matter 21 395502 (2009);
         "P. Giannozzi et al., J. Phys.:Condens. Matter 29 465901 (2017);
          URL http://www.quantum-espresso.org", 
     in publications or presentations arising from this work. More details at
     http://www.quantum-espresso.org/quote

     Parallel version (MPI & OpenMP), running on      72 processor cores
     Number of MPI processes:                72
     Threads/MPI process:                     1

     MPI processes distributed on     1 nodes
     R & G space division:  proc/nbgrp/npool/nimage =      72
     Reading input from bcc_10.in
Warning: card &CELL ignored
Warning: card CELL_DYNAMICS = 'BFGS', ignored
Warning: card CELL_FACTOR = 2.0, ignored
Warning: card PRESS = 0.0, ignored
Warning: card / ignored

     Current dimensions of program PWSCF are:
     Max number of different atomic species (ntypx) = 10
     Max number of k-points (npk) =  40000
     Max angular momentum in pseudopotentials (lmaxx) =  3
     file Ru.pbe-spn-kjpaw_psl.1.0.0.UPF: wavefunction(s)  4D renormalized

     Subspace diagonalization in iterative solution of the eigenvalue problem:
     one sub-group per band group will be used
     ELPA distributed-memory algorithm (size of sub-group:  8*  8 procs)

     Found symmetry operation: I + (  0.2500  0.2500  0.2500)
     This is a supercell, fractional translations are disabled
     Message from routine setup:
     using ibrav=0 with symmetry is DISCOURAGED, use correct ibrav instead
 
     Parallelization info
     --------------------
     sticks:   dense  smooth     PW     G-vecs:    dense   smooth      PW
     Min         224     148     39                21414    11486    1565
     Max         225     149     40                21421    11490    1571
     Sum       16141   10669   2809              1541987   827137  112931
 


     bravais-lattice index     =            0
     lattice parameter (alat)  =      11.4293  a.u.
     unit-cell volume          =   10240.4118 (a.u.)^3
     number of atoms/cell      =           16
     number of atomic types    =            1
     number of electrons       =       256.00
     number of Kohn-Sham states=          154
     kinetic-energy cutoff     =      71.0000  Ry
     charge density cutoff     =     430.0000  Ry
     scf convergence threshold =      1.0E-06
     mixing beta               =       0.1000
     number of iterations used =           10  TF        mixing
     Exchange-correlation= SLA  PW   PBX  PBC
                           (   1   4   3   4   0   0   0)

     celldm(1)=  11.429280  celldm(2)=   0.000000  celldm(3)=   0.000000
     celldm(4)=   0.000000  celldm(5)=   0.000000  celldm(6)=   0.000000

     crystal axes: (cart. coord. in units of alat)
               a(1) = (   1.900000   0.000000   0.000000 )  
               a(2) = (   0.000000   1.900000   0.000000 )  
               a(3) = (   0.000000   0.000000   1.900000 )  

     reciprocal axes: (cart. coord. in units 2 pi/alat)
               b(1) = (  0.526316  0.000000  0.000000 )  
               b(2) = (  0.000000  0.526316  0.000000 )  
               b(3) = (  0.000000  0.000000  0.526316 )  


     PseudoPot. # 1 for Ru read from file:
     /rds/homes/b/bxp912/pp/Ru.pbe-spn-kjpaw_psl.1.0.0.UPF
     MD5 check sum: 0ae1f594dea09af7be8575c3a481d1ae
     Pseudo is Projector augmented-wave + core cor, Zval = 16.0
     Generated using "atomic" code by A. Dal Corso  v.5.1
     Shape of augmentation charge: PSQ
     Using radial grid of 1233 points,  6 beta functions with: 
                l(1) =   0
                l(2) =   0
                l(3) =   1
                l(4) =   1
                l(5) =   2
                l(6) =   2
     Q(r) pseudized with 0 coefficients 


     atomic species   valence    mass     pseudopotential
        Ru            16.00   101.07000     Ru( 1.00)

     48 Sym. Ops., with inversion, found



   Cartesian axes

     site n.     atom                  positions (alat units)
         1           Ru  tau(   1) = (   0.0000000   0.0000000   0.0000000  )
         2           Ru  tau(   2) = (   0.4750000   0.4750000   0.4750000  )
         3           Ru  tau(   3) = (   0.0000000   0.0000000   0.9500000  )
         4           Ru  tau(   4) = (   0.4750000   0.4750000   1.4250000  )
         5           Ru  tau(   5) = (   0.0000000   0.9500000   0.0000000  )
         6           Ru  tau(   6) = (   0.4750000   1.4250000   0.4750000  )
         7           Ru  tau(   7) = (   0.0000000   0.9500000   0.9500000  )
         8           Ru  tau(   8) = (   0.4750000   1.4250000   1.4250000  )
         9           Ru  tau(   9) = (   0.9500000   0.0000000   0.0000000  )
        10           Ru  tau(  10) = (   1.4250000   0.4750000   0.4750000  )
        11           Ru  tau(  11) = (   0.9500000   0.0000000   0.9500000  )
        12           Ru  tau(  12) = (   1.4250000   0.4750000   1.4250000  )
        13           Ru  tau(  13) = (   0.9500000   0.9500000   0.0000000  )
        14           Ru  tau(  14) = (   1.4250000   1.4250000   0.4750000  )
        15           Ru  tau(  15) = (   0.9500000   0.9500000   0.9500000  )
        16           Ru  tau(  16) = (   1.4250000   1.4250000   1.4250000  )

     number of k points=    35  Marzari-Vanderbilt smearing, width (Ry)=  0.0400
                       cart. coord. in units 2pi/alat
        k(    1) = (   0.0292398   0.0292398   0.0292398), wk =   0.0219479
        k(    2) = (   0.0292398   0.0292398   0.0877193), wk =   0.0658436
        k(    3) = (   0.0292398   0.0292398   0.1461988), wk =   0.0658436
        k(    4) = (   0.0292398   0.0292398   0.2046784), wk =   0.0658436
        k(    5) = (   0.0292398   0.0292398  -0.2631579), wk =   0.0329218
        k(    6) = (   0.0292398   0.0877193   0.0877193), wk =   0.0658436
        k(    7) = (   0.0292398   0.0877193   0.1461988), wk =   0.1316872
        k(    8) = (   0.0292398   0.0877193   0.2046784), wk =   0.1316872
        k(    9) = (   0.0292398   0.0877193  -0.2631579), wk =   0.0658436
        k(   10) = (   0.0292398   0.1461988   0.1461988), wk =   0.0658436
        k(   11) = (   0.0292398   0.1461988   0.2046784), wk =   0.1316872
        k(   12) = (   0.0292398   0.1461988  -0.2631579), wk =   0.0658436
        k(   13) = (   0.0292398   0.2046784   0.2046784), wk =   0.0658436
        k(   14) = (   0.0292398   0.2046784  -0.2631579), wk =   0.0658436
        k(   15) = (   0.0292398  -0.2631579  -0.2631579), wk =   0.0164609
        k(   16) = (   0.0877193   0.0877193   0.0877193), wk =   0.0219479
        k(   17) = (   0.0877193   0.0877193   0.1461988), wk =   0.0658436
        k(   18) = (   0.0877193   0.0877193   0.2046784), wk =   0.0658436
        k(   19) = (   0.0877193   0.0877193  -0.2631579), wk =   0.0329218
        k(   20) = (   0.0877193   0.1461988   0.1461988), wk =   0.0658436
        k(   21) = (   0.0877193   0.1461988   0.2046784), wk =   0.1316872
        k(   22) = (   0.0877193   0.1461988  -0.2631579), wk =   0.0658436
        k(   23) = (   0.0877193   0.2046784   0.2046784), wk =   0.0658436
        k(   24) = (   0.0877193   0.2046784  -0.2631579), wk =   0.0658436
        k(   25) = (   0.0877193  -0.2631579  -0.2631579), wk =   0.0164609
        k(   26) = (   0.1461988   0.1461988   0.1461988), wk =   0.0219479
        k(   27) = (   0.1461988   0.1461988   0.2046784), wk =   0.0658436
        k(   28) = (   0.1461988   0.1461988  -0.2631579), wk =   0.0329218
        k(   29) = (   0.1461988   0.2046784   0.2046784), wk =   0.0658436
        k(   30) = (   0.1461988   0.2046784  -0.2631579), wk =   0.0658436
        k(   31) = (   0.1461988  -0.2631579  -0.2631579), wk =   0.0164609
        k(   32) = (   0.2046784   0.2046784   0.2046784), wk =   0.0219479
        k(   33) = (   0.2046784   0.2046784  -0.2631579), wk =   0.0329218
        k(   34) = (   0.2046784  -0.2631579  -0.2631579), wk =   0.0164609
        k(   35) = (  -0.2631579  -0.2631579  -0.2631579), wk =   0.0027435

     Dense  grid:  1541987 G-vectors     FFT dimensions: ( 144, 144, 144)

     Smooth grid:   827137 G-vectors     FFT dimensions: ( 120, 120, 120)

     Estimated max dynamical RAM per process >     218.48 MB

     Estimated total dynamical RAM >      15.36 GB

     Initial potential from superposition of free atoms

     starting charge  255.98980, renormalised to  256.00000
     Starting wfcs are  160 randomized atomic wfcs
     Checking if some PAW data can be deallocated... 

     total cpu time spent up to now is       14.3 secs

     Self-consistent Calculation

     iteration #  1     ecut=    71.00 Ry     beta= 0.10
     Davidson diagonalization with overlap
     ethr =  1.00E-02,  avg # of iterations =  2.0

     total cpu time spent up to now is       43.1 secs

     total energy              =   -6899.21383980 Ry
     estimated scf accuracy    <       9.73265617 Ry

     iteration #  2     ecut=    71.00 Ry     beta= 0.10
     Davidson diagonalization with overlap
     ethr =  3.80E-03,  avg # of iterations =  1.0

     total cpu time spent up to now is       67.3 secs

     total energy              =   -6897.42191773 Ry
     estimated scf accuracy    <       7.49498233 Ry

     iteration #  3     ecut=    71.00 Ry     beta= 0.10
     Davidson diagonalization with overlap
     ethr =  2.93E-03,  avg # of iterations =  1.0

     total cpu time spent up to now is       92.5 secs

     total energy              =   -6897.15404346 Ry
     estimated scf accuracy    <      14.89434099 Ry

     iteration #  4     ecut=    71.00 Ry     beta= 0.10
     Davidson diagonalization with overlap
     ethr =  2.93E-03,  avg # of iterations =  2.0

     total cpu time spent up to now is      130.0 secs

     total energy              =   -6897.77891339 Ry
     estimated scf accuracy    <       5.02090759 Ry

     iteration #  5     ecut=    71.00 Ry     beta= 0.10
     Davidson diagonalization with overlap
     ethr =  1.96E-03,  avg # of iterations =  1.0

     total cpu time spent up to now is      159.0 secs

     total energy              =   -6897.22179377 Ry
     estimated scf accuracy    <       1.07055937 Ry

     iteration #  6     ecut=    71.00 Ry     beta= 0.10
     Davidson diagonalization with overlap
     ethr =  4.18E-04,  avg # of iterations =  2.1

     total cpu time spent up to now is      203.7 secs

     total energy              =   -6897.93038641 Ry
     estimated scf accuracy    <       3.49194085 Ry

     iteration #  7     ecut=    71.00 Ry     beta= 0.10
     Davidson diagonalization with overlap
     ethr =  4.18E-04,  avg # of iterations =  1.0

     total cpu time spent up to now is      228.2 secs

     total energy              =   -6897.79407777 Ry
     estimated scf accuracy    <       2.17096355 Ry

     iteration #  8     ecut=    71.00 Ry     beta= 0.10
     Davidson diagonalization with overlap
     ethr =  4.18E-04,  avg # of iterations =  1.0

     total cpu time spent up to now is      254.0 secs

     total energy              =   -6897.72402749 Ry
     estimated scf accuracy    <       1.22237278 Ry

     iteration #  9     ecut=    71.00 Ry     beta= 0.10
     Davidson diagonalization with overlap
     ethr =  4.18E-04,  avg # of iterations =  1.0

     total cpu time spent up to now is      280.4 secs

     total energy              =   -6897.73075308 Ry
     estimated scf accuracy    <       0.88432556 Ry

     iteration # 10     ecut=    71.00 Ry     beta= 0.10
     Davidson diagonalization with overlap
     ethr =  3.45E-04,  avg # of iterations =  1.0

     total cpu time spent up to now is      305.3 secs

     total energy              =   -6897.70077733 Ry
     estimated scf accuracy    <       0.75375901 Ry

     iteration # 11     ecut=    71.00 Ry     beta= 0.10
     Davidson diagonalization with overlap
     ethr =  2.94E-04,  avg # of iterations =  1.0

     total cpu time spent up to now is      330.0 secs

     total energy              =   -6897.65018668 Ry
     estimated scf accuracy    <       0.48759190 Ry

     iteration # 12     ecut=    71.00 Ry     beta= 0.10
     Davidson diagonalization with overlap
     ethr =  1.90E-04,  avg # of iterations =  1.0

     total cpu time spent up to now is      354.8 secs

     total energy              =   -6897.65469335 Ry
     estimated scf accuracy    <       0.15812436 Ry

     iteration # 13     ecut=    71.00 Ry     beta= 0.10
     Davidson diagonalization with overlap
     ethr =  6.18E-05,  avg # of iterations =  1.2

     total cpu time spent up to now is      380.5 secs

     total energy              =   -6897.62086423 Ry
     estimated scf accuracy    <       0.08826971 Ry

     iteration # 14     ecut=    71.00 Ry     beta= 0.10
     Davidson diagonalization with overlap
     ethr =  3.45E-05,  avg # of iterations =  5.5

     total cpu time spent up to now is      422.5 secs

     total energy              =   -6897.64184069 Ry
     estimated scf accuracy    <       0.23743130 Ry

     iteration # 15     ecut=    71.00 Ry     beta= 0.10
     Davidson diagonalization with overlap
     ethr =  3.45E-05,  avg # of iterations =  1.1

     total cpu time spent up to now is      450.4 secs

     total energy              =   -6897.64546825 Ry
     estimated scf accuracy    <       0.00341589 Ry

     iteration # 16     ecut=    71.00 Ry     beta= 0.10
     Davidson diagonalization with overlap
     ethr =  1.33E-06,  avg # of iterations =  5.9

     total cpu time spent up to now is      494.6 secs

     total energy              =   -6897.64677839 Ry
     estimated scf accuracy    <       0.00161895 Ry

     iteration # 17     ecut=    71.00 Ry     beta= 0.10
     Davidson diagonalization with overlap
     ethr =  6.32E-07,  avg # of iterations =  1.1

     total cpu time spent up to now is      520.1 secs

     total energy              =   -6897.64660383 Ry
     estimated scf accuracy    <       0.00075267 Ry

     iteration # 18     ecut=    71.00 Ry     beta= 0.10
     Davidson diagonalization with overlap
     ethr =  2.94E-07,  avg # of iterations =  4.0

     total cpu time spent up to now is      558.1 secs

     total energy              =   -6897.64675968 Ry
     estimated scf accuracy    <       0.00009715 Ry

     iteration # 19     ecut=    71.00 Ry     beta= 0.10
     Davidson diagonalization with overlap
     ethr =  3.79E-08,  avg # of iterations =  4.9

     total cpu time spent up to now is      603.6 secs

     total energy              =   -6897.64681915 Ry
     estimated scf accuracy    <       0.00014360 Ry

     iteration # 20     ecut=    71.00 Ry     beta= 0.10
     Davidson diagonalization with overlap
     ethr =  3.79E-08,  avg # of iterations =  1.0

     total cpu time spent up to now is      631.3 secs

     total energy              =   -6897.64680415 Ry
     estimated scf accuracy    <       0.00009682 Ry

     iteration # 21     ecut=    71.00 Ry     beta= 0.10
     Davidson diagonalization with overlap
     ethr =  3.78E-08,  avg # of iterations =  2.0

     total cpu time spent up to now is      662.4 secs

     total energy              =   -6897.64680574 Ry
     estimated scf accuracy    <       0.00001765 Ry

     iteration # 22     ecut=    71.00 Ry     beta= 0.10
     Davidson diagonalization with overlap
     ethr =  6.89E-09,  avg # of iterations =  6.8

     total cpu time spent up to now is      702.0 secs

     total energy              =   -6897.64681262 Ry
     estimated scf accuracy    <       0.00000656 Ry

     iteration # 23     ecut=    71.00 Ry     beta= 0.10
     Davidson diagonalization with overlap
     ethr =  2.56E-09,  avg # of iterations =  6.2

     total cpu time spent up to now is      754.0 secs

     total energy              =   -6897.64681416 Ry
     estimated scf accuracy    <       0.00008025 Ry

     iteration # 24     ecut=    71.00 Ry     beta= 0.10
     Davidson diagonalization with overlap
     ethr =  2.56E-09,  avg # of iterations =  5.1

     total cpu time spent up to now is      794.2 secs

     total energy              =   -6897.64681768 Ry
     estimated scf accuracy    <       0.00001431 Ry

     iteration # 25     ecut=    71.00 Ry     beta= 0.10
     Davidson diagonalization with overlap
     ethr =  2.56E-09,  avg # of iterations =  2.0

     total cpu time spent up to now is      828.1 secs

     total energy              =   -6897.64681908 Ry
     estimated scf accuracy    <       0.00000247 Ry

     iteration # 26     ecut=    71.00 Ry     beta= 0.10
     Davidson diagonalization with overlap
     ethr =  9.64E-10,  avg # of iterations =  5.0

     total cpu time spent up to now is      865.0 secs

     total energy              =   -6897.64681959 Ry
     estimated scf accuracy    <       0.00000247 Ry

     iteration # 27     ecut=    71.00 Ry     beta= 0.10
     Davidson diagonalization with overlap
     ethr =  9.64E-10,  avg # of iterations =  1.0

     total cpu time spent up to now is      886.9 secs

     End of self-consistent calculation

          k = 0.0292 0.0292 0.0292 (103404 PWs)   bands (ev):

   -71.3918 -71.3918 -71.3918 -71.3918 -71.3918 -71.3918 -71.3918 -71.3918
   -71.3918 -71.3917 -71.3917 -71.3917 -71.3917 -71.3917 -71.3917 -71.3917
   -41.4729 -41.4729 -41.4729 -41.4728 -41.4728 -41.4728 -41.4728 -41.4728
   -41.4728 -41.4728 -41.4728 -41.4728 -41.4728 -41.4728 -41.4728 -41.4728
   -41.4728 -41.4728 -41.4728 -41.4728 -41.4727 -41.4727 -41.4727 -41.4727
   -41.4727 -41.4727 -41.4727 -41.4727 -41.4727 -41.4727 -41.4727 -41.4727
   -41.4727 -41.4727 -41.4727 -41.4727 -41.4727 -41.4727 -41.4727 -41.4727
   -41.4727 -41.4727 -41.4726 -41.4726 -41.4726 -41.4726 -41.4726 -41.4726
    -1.2868  -0.6513  -0.6512  -0.6512  -0.6487  -0.6487  -0.6487  -0.5857
    -0.5857  -0.5577  -0.5577  -0.5577  -0.5565  -0.5565  -0.5565  -0.5321
    -0.5321  -0.5321  -0.5071  -0.5004  -0.5004  -0.5004  -0.4964  -0.4964
    -0.4955  -0.4955  -0.4935  -0.4858  -0.4858  -0.4858  -0.4751  -0.4751
    -0.4689  -0.4688  -0.4688  -0.4667  -0.4460  -0.4460  -0.4460  -0.4412
    -0.4412  -0.4412  -0.4329  -0.4329  -0.4329  -0.4272  -0.4272  -0.4272
    -0.4025  -0.4025  -0.4025  -0.3864  -0.3864  -0.3864  -0.3861  -0.3861
    -0.3861  -0.3854  -0.3854  -0.3854  -0.3731  -0.3731  -0.3715  -0.3715
    -0.3715  -0.3694  -0.3694  -0.3694  -0.3679  -0.3679  -0.3678  -0.3678
    -0.3113  -0.3078  -0.3078  -0.2903  -0.2903  -0.2903  -0.2886  -0.2886
    -0.2886  -0.1819  -0.1819  -0.1819   0.0035   0.0035   0.0035   0.5562
     0.5562   0.5562

          k = 0.0292 0.0292 0.0877 (103430 PWs)   bands (ev):

   -71.3918 -71.3918 -71.3918 -71.3918 -71.3918 -71.3918 -71.3918 -71.3917
   -71.3917 -71.3917 -71.3917 -71.3917 -71.3917 -71.3917 -71.3917 -71.3917
   -41.4729 -41.4729 -41.4729 -41.4728 -41.4728 -41.4728 -41.4728 -41.4728
   -41.4728 -41.4728 -41.4728 -41.4728 -41.4728 -41.4728 -41.4728 -41.4728
   -41.4728 -41.4728 -41.4728 -41.4727 -41.4727 -41.4727 -41.4727 -41.4727
   -41.4727 -41.4727 -41.4727 -41.4727 -41.4727 -41.4727 -41.4727 -41.4727
   -41.4727 -41.4727 -41.4727 -41.4727 -41.4727 -41.4727 -41.4727 -41.4727
   -41.4727 -41.4727 -41.4726 -41.4726 -41.4726 -41.4726 -41.4726 -41.4726
    -1.2595  -0.6485  -0.6485  -0.6415  -0.6409  -0.6409  -0.6393  -0.6178
    -0.5823  -0.5801  -0.5566  -0.5553  -0.5547  -0.5547  -0.5510  -0.5510
    -0.5462  -0.5462  -0.5224  -0.5148  -0.5148  -0.5125  -0.5039  -0.4989
    -0.4971  -0.4964  -0.4954  -0.4889  -0.4867  -0.4826  -0.4826  -0.4719
    -0.4719  -0.4623  -0.4595  -0.4582  -0.4582  -0.4516  -0.4501  -0.4481
    -0.4481  -0.4432  -0.4251  -0.4251  -0.4189  -0.4189  -0.4185  -0.4178
    -0.4102  -0.3892  -0.3892  -0.3871  -0.3871  -0.3860  -0.3860  -0.3848
    -0.3842  -0.3776  -0.3776  -0.3761  -0.3721  -0.3715  -0.3714  -0.3714
    -0.3708  -0.3708  -0.3705  -0.3693  -0.3686  -0.3685  -0.3680  -0.3678
    -0.3189  -0.3131  -0.3084  -0.2999  -0.2978  -0.2956  -0.2956  -0.2945
    -0.2908  -0.2908  -0.1571  -0.1571   0.0322   0.0322   0.2291   0.4509
     0.4509   0.5652

          k = 0.0292 0.0292 0.1462 (103425 PWs)   bands (ev):

   -71.3918 -71.3918 -71.3918 -71.3918 -71.3918 -71.3918 -71.3918 -71.3918
   -71.3918 -71.3917 -71.3917 -71.3917 -71.3917 -71.3917 -71.3917 -71.3917
   -41.4729 -41.4729 -41.4728 -41.4728 -41.4728 -41.4728 -41.4728 -41.4728
   -41.4728 -41.4728 -41.4728 -41.4728 -41.4728 -41.4728 -41.4728 -41.4728
   -41.4728 -41.4728 -41.4728 -41.4728 -41.4728 -41.4727 -41.4727 -41.4727
   -41.4727 -41.4727 -41.4727 -41.4727 -41.4727 -41.4727 -41.4727 -41.4727
   -41.4727 -41.4727 -41.4727 -41.4727 -41.4727 -41.4727 -41.4727 -41.4727
   -41.4727 -41.4727 -41.4726 -41.4726 -41.4726 -41.4726 -41.4726 -41.4726
    -1.2051  -0.7514  -0.6407  -0.6407  -0.6281  -0.6281  -0.6230  -0.6217
    -0.5755  -0.5695  -0.5678  -0.5678  -0.5543  -0.5526  -0.5475  -0.5475
    -0.5415  -0.5415  -0.5388  -0.5388  -0.5370  -0.5262  -0.5216  -0.5160
    -0.5055  -0.5043  -0.4960  -0.4933  -0.4860  -0.4860  -0.4820  -0.4779
    -0.4778  -0.4718  -0.4703  -0.4611  -0.4611  -0.4536  -0.4536  -0.4340
    -0.4293  -0.4258  -0.4255  -0.4088  -0.4088  -0.4079  -0.4079  -0.4002
    -0.3975  -0.3975  -0.3929  -0.3929  -0.3918  -0.3843  -0.3843  -0.3824
    -0.3819  -0.3819  -0.3759  -0.3759  -0.3716  -0.3702  -0.3701  -0.3700
    -0.3691  -0.3681  -0.3676  -0.3671  -0.3671  -0.3553  -0.3523  -0.3523
    -0.3389  -0.3304  -0.3232  -0.3178  -0.3150  -0.3124  -0.3045  -0.3045
    -0.2967  -0.2967  -0.1068  -0.1068   0.0875   0.0875   0.3200   0.3200
     0.4745   0.4833

          k = 0.0292 0.0292 0.2047 (103397 PWs)   bands (ev):

   -71.3918 -71.3918 -71.3918 -71.3918 -71.3918 -71.3918 -71.3918 -71.3918
   -71.3917 -71.3917 -71.3917 -71.3917 -71.3917 -71.3917 -71.3917 -71.3917
   -41.4728 -41.4728 -41.4728 -41.4728 -41.4728 -41.4728 -41.4728 -41.4728
   -41.4728 -41.4728 -41.4728 -41.4728 -41.4728 -41.4728 -41.4728 -41.4728
   -41.4728 -41.4728 -41.4728 -41.4728 -41.4727 -41.4727 -41.4727 -41.4727
   -41.4727 -41.4727 -41.4727 -41.4727 -41.4727 -41.4727 -41.4727 -41.4727
   -41.4727 -41.4727 -41.4727 -41.4727 -41.4727 -41.4727 -41.4727 -41.4727
   -41.4727 -41.4727 -41.4726 -41.4726 -41.4726 -41.4726 -41.4726 -41.4726
    -1.1245  -0.8923  -0.6280  -0.6280  -0.6106  -0.6106  -0.5984  -0.5980
    -0.5904  -0.5904  -0.5656  -0.5646  -0.5646  -0.5549  -0.5525  -0.5505
    -0.5478  -0.5409  -0.5382  -0.5368  -0.5364  -0.5364  -0.5283  -0.5283
    -0.5242  -0.5206  -0.5047  -0.5047  -0.4935  -0.4935  -0.4932  -0.4899
    -0.4814  -0.4785  -0.4729  -0.4490  -0.4490  -0.4486  -0.4379  -0.4379
    -0.4146  -0.4124  -0.4124  -0.4044  -0.4044  -0.4007  -0.4007  -0.3985
    -0.3981  -0.3952  -0.3952  -0.3904  -0.3893  -0.3893  -0.3813  -0.3808
    -0.3808  -0.3793  -0.3790  -0.3727  -0.3727  -0.3726  -0.3723  -0.3689
    -0.3684  -0.3669  -0.3667  -0.3550  -0.3487  -0.3487  -0.3453  -0.3418
    -0.3415  -0.3376  -0.3372  -0.3346  -0.3346  -0.3196  -0.3167  -0.3167
    -0.3062  -0.3062  -0.0309  -0.0309   0.1660   0.1660   0.1880   0.1880
     0.3734   0.3734

          k = 0.0292 0.0292-0.2632 (103458 PWs)   bands (ev):

   -71.3918 -71.3918 -71.3918 -71.3918 -71.3918 -71.3918 -71.3918 -71.3917
   -71.3917 -71.3917 -71.3917 -71.3917 -71.3917 -71.3917 -71.3917 -71.3917
   -41.4728 -41.4728 -41.4728 -41.4728 -41.4728 -41.4728 -41.4728 -41.4728
   -41.4728 -41.4728 -41.4728 -41.4728 -41.4728 -41.4728 -41.4728 -41.4728
   -41.4728 -41.4728 -41.4728 -41.4728 -41.4727 -41.4727 -41.4727 -41.4727
   -41.4727 -41.4727 -41.4727 -41.4727 -41.4727 -41.4727 -41.4727 -41.4727
   -41.4727 -41.4727 -41.4727 -41.4727 -41.4727 -41.4727 -41.4727 -41.4727
   -41.4727 -41.4727 -41.4727 -41.4727 -41.4727 -41.4727 -41.4727 -41.4726
    -1.0192  -1.0192  -0.6110  -0.6110  -0.6110  -0.6110  -0.5891  -0.5891
    -0.5891  -0.5891  -0.5734  -0.5734  -0.5695  -0.5695  -0.5530  -0.5530
    -0.5448  -0.5448  -0.5393  -0.5393  -0.5379  -0.5379  -0.5220  -0.5220
    -0.5219  -0.5219  -0.5120  -0.5120  -0.5119  -0.5119  -0.4884  -0.4884
    -0.4851  -0.4851  -0.4617  -0.4617  -0.4306  -0.4306  -0.4306  -0.4306
    -0.4203  -0.4203  -0.4203  -0.4203  -0.4014  -0.4014  -0.3944  -0.3944
    -0.3944  -0.3944  -0.3867  -0.3866  -0.3866  -0.3866  -0.3772  -0.3772
    -0.3759  -0.3758  -0.3757  -0.3757  -0.3694  -0.3694  -0.3686  -0.3686
    -0.3626  -0.3626  -0.3625  -0.3625  -0.3596  -0.3596  -0.3542  -0.3542
    -0.3316  -0.3316  -0.3316  -0.3316  -0.3294  -0.3294  -0.3190  -0.3190
    -0.3190  -0.3190   0.0687   0.0687   0.0687   0.0687   0.2635   0.2635
     0.2635   0.2635

          k = 0.0292 0.0877 0.0877 (103454 PWs)   bands (ev):

   -71.3918 -71.3918 -71.3918 -71.3918 -71.3918 -71.3918 -71.3918 -71.3918
   -71.3918 -71.3917 -71.3917 -71.3917 -71.3917 -71.3917 -71.3917 -71.3917
   -41.4729 -41.4729 -41.4728 -41.4728 -41.4728 -41.4728 -41.4728 -41.4728
   -41.4728 -41.4728 -41.4728 -41.4728 -41.4728 -41.4728 -41.4728 -41.4728
   -41.4728 -41.4728 -41.4728 -41.4728 -41.4727 -41.4727 -41.4727 -41.4727
   -41.4727 -41.4727 -41.4727 -41.4727 -41.4727 -41.4727 -41.4727 -41.4727
   -41.4727 -41.4727 -41.4727 -41.4727 -41.4727 -41.4727 -41.4727 -41.4727
   -41.4727 -41.4727 -41.4727 -41.4727 -41.4726 -41.4726 -41.4726 -41.4726
    -1.2324  -0.6517  -0.6388  -0.6388  -0.6323  -0.6323  -0.6290  -0.6193
    -0.6193  -0.5780  -0.5755  -0.5546  -0.5541  -0.5535  -0.5535  -0.5496
    -0.5496  -0.5433  -0.5365  -0.5227  -0.5222  -0.5100  -0.5100  -0.5001
    -0.4972  -0.4948  -0.4935  -0.4935  -0.4895  -0.4815  -0.4796  -0.4787
    -0.4772  -0.4771  -0.4571  -0.4571  -0.4488  -0.4483  -0.4460  -0.4429
    -0.4344  -0.4344  -0.4293  -0.4293  -0.4278  -0.4196  -0.4090  -0.4090
    -0.4009  -0.4009  -0.3925  -0.3882  -0.3877  -0.3877  -0.3868  -0.3858
    -0.3858  -0.3778  -0.3778  -0.3767  -0.3754  -0.3730  -0.3715  -0.3715
    -0.3697  -0.3692  -0.3689  -0.3682  -0.3677  -0.3633  -0.3557  -0.3557
    -0.3296  -0.3173  -0.3066  -0.3056  -0.3056  -0.3040  -0.2996  -0.2996
    -0.2897  -0.2829  -0.2828  -0.1308   0.0602   0.2563   0.2563   0.3023
     0.4641   0.4641

          k = 0.0292 0.0877 0.1462 (103420 PWs)   bands (ev):

   -71.3918 -71.3918 -71.3918 -71.3918 -71.3918 -71.3918 -71.3918 -71.3918
   -71.3917 -71.3917 -71.3917 -71.3917 -71.3917 -71.3917 -71.3917 -71.3917
   -41.4729 -41.4729 -41.4728 -41.4728 -41.4728 -41.4728 -41.4728 -41.4728
   -41.4728 -41.4728 -41.4728 -41.4728 -41.4728 -41.4728 -41.4728 -41.4728
   -41.4728 -41.4728 -41.4728 -41.4728 -41.4727 -41.4727 -41.4727 -41.4727
   -41.4727 -41.4727 -41.4727 -41.4727 -41.4727 -41.4727 -41.4727 -41.4727
   -41.4727 -41.4727 -41.4727 -41.4727 -41.4727 -41.4727 -41.4727 -41.4727
   -41.4727 -41.4727 -41.4727 -41.4727 -41.4726 -41.4726 -41.4726 -41.4726
    -1.1786  -0.7386  -0.6509  -0.6316  -0.6238  -0.6208  -0.6207  -0.6167
    -0.6129  -0.5712  -0.5698  -0.5652  -0.5510  -0.5498  -0.5493  -0.5462
    -0.5461  -0.5413  -0.5399  -0.5364  -0.5317  -0.5269  -0.5217  -0.5058
    -0.5030  -0.5020  -0.4958  -0.4926  -0.4897  -0.4896  -0.4879  -0.4867
    -0.4823  -0.4719  -0.4642  -0.4542  -0.4475  -0.4473  -0.4448  -0.4308
    -0.4300  -0.4229  -0.4180  -0.4164  -0.4141  -0.4106  -0.4101  -0.4073
    -0.4042  -0.3960  -0.3951  -0.3940  -0.3915  -0.3898  -0.3849  -0.3844
    -0.3834  -0.3815  -0.3814  -0.3786  -0.3764  -0.3718  -0.3715  -0.3713
    -0.3708  -0.3704  -0.3681  -0.3668  -0.3637  -0.3519  -0.3440  -0.3416
    -0.3383  -0.3372  -0.3273  -0.3239  -0.3158  -0.3156  -0.3147  -0.3074
    -0.3052  -0.2924  -0.2531  -0.0792   0.1141   0.1505   0.3080   0.3376
     0.4894   0.4964

          k = 0.0292 0.0877 0.2047 (103450 PWs)   bands (ev):

   -71.3918 -71.3918 -71.3918 -71.3918 -71.3918 -71.3918 -71.3918 -71.3918
   -71.3918 -71.3917 -71.3917 -71.3917 -71.3917 -71.3917 -71.3917 -71.3917
   -41.4728 -41.4728 -41.4728 -41.4728 -41.4728 -41.4728 -41.4728 -41.4728
   -41.4728 -41.4728 -41.4728 -41.4728 -41.4728 -41.4728 -41.4728 -41.4728
   -41.4728 -41.4728 -41.4728 -41.4728 -41.4728 -41.4727 -41.4727 -41.4727
   -41.4727 -41.4727 -41.4727 -41.4727 -41.4727 -41.4727 -41.4727 -41.4727
   -41.4727 -41.4727 -41.4727 -41.4727 -41.4727 -41.4727 -41.4727 -41.4727
   -41.4727 -41.4727 -41.4727 -41.4727 -41.4727 -41.4727 -41.4727 -41.4726
    -1.0990  -0.8722  -0.6464  -0.6312  -0.6202  -0.6050  -0.5971  -0.5969
    -0.5933  -0.5878  -0.5639  -0.5629  -0.5618  -0.5513  -0.5508  -0.5484
    -0.5463  -0.5407  -0.5392  -0.5363  -0.5347  -0.5267  -0.5231  -0.5172
    -0.5166  -0.5133  -0.5086  -0.5033  -0.5018  -0.4967  -0.4943  -0.4888
    -0.4807  -0.4748  -0.4604  -0.4598  -0.4427  -0.4357  -0.4324  -0.4275
    -0.4224  -0.4108  -0.4108  -0.4073  -0.4072  -0.4049  -0.4029  -0.4013
    -0.3997  -0.3994  -0.3987  -0.3976  -0.3926  -0.3891  -0.3891  -0.3826
    -0.3819  -0.3803  -0.3796  -0.3764  -0.3750  -0.3733  -0.3731  -0.3731
    -0.3684  -0.3676  -0.3638  -0.3636  -0.3611  -0.3560  -0.3519  -0.3469
    -0.3414  -0.3388  -0.3362  -0.3301  -0.3292  -0.3263  -0.3223  -0.3141
    -0.3117  -0.2989  -0.1956  -0.0038   0.0111   0.1904   0.2097   0.3797
     0.3908   0.5256

          k = 0.0292 0.0877-0.2632 (103482 PWs)   bands (ev):

   -71.3918 -71.3918 -71.3918 -71.3918 -71.3918 -71.3918 -71.3918 -71.3918
   -71.3918 -71.3917 -71.3917 -71.3917 -71.3917 -71.3917 -71.3917 -71.3917
   -41.4728 -41.4728 -41.4728 -41.4728 -41.4728 -41.4728 -41.4728 -41.4728
   -41.4728 -41.4728 -41.4728 -41.4728 -41.4728 -41.4728 -41.4728 -41.4728
   -41.4728 -41.4728 -41.4728 -41.4728 -41.4728 -41.4727 -41.4727 -41.4727
   -41.4727 -41.4727 -41.4727 -41.4727 -41.4727 -41.4727 -41.4727 -41.4727
   -41.4727 -41.4727 -41.4727 -41.4727 -41.4727 -41.4727 -41.4727 -41.4727
   -41.4727 -41.4727 -41.4727 -41.4727 -41.4727 -41.4727 -41.4727 -41.4727
    -0.9956  -0.9956  -0.6394  -0.6394  -0.6052  -0.6052  -0.5857  -0.5857
    -0.5782  -0.5782  -0.5717  -0.5717  -0.5713  -0.5713  -0.5500  -0.5500
    -0.5379  -0.5379  -0.5340  -0.5340  -0.5286  -0.5286  -0.5267  -0.5267
    -0.5200  -0.5200  -0.5114  -0.5114  -0.4993  -0.4993  -0.4989  -0.4989
    -0.4830  -0.4830  -0.4471  -0.4471  -0.4421  -0.4421  -0.4280  -0.4280
    -0.4189  -0.4189  -0.4107  -0.4107  -0.4020  -0.4020  -0.3992  -0.3992
    -0.3944  -0.3944  -0.3894  -0.3894  -0.3891  -0.3891  -0.3835  -0.3835
    -0.3812  -0.3812  -0.3800  -0.3800  -0.3767  -0.3767  -0.3764  -0.3764
    -0.3642  -0.3642  -0.3639  -0.3639  -0.3583  -0.3583  -0.3546  -0.3546
    -0.3465  -0.3465  -0.3392  -0.3392  -0.3256  -0.3256  -0.3191  -0.3191
    -0.3089  -0.3089  -0.1065  -0.1065   0.0936   0.0936   0.2848   0.2848
     0.4641   0.4642

          k = 0.0292 0.1462 0.1462 (103453 PWs)   bands (ev):

   -71.3918 -71.3918 -71.3918 -71.3918 -71.3918 -71.3918 -71.3918 -71.3918
   -71.3917 -71.3917 -71.3917 -71.3917 -71.3917 -71.3917 -71.3917 -71.3917
   -41.4729 -41.4728 -41.4728 -41.4728 -41.4728 -41.4728 -41.4728 -41.4728
   -41.4728 -41.4728 -41.4728 -41.4728 -41.4728 -41.4728 -41.4728 -41.4728
   -41.4728 -41.4728 -41.4728 -41.4728 -41.4728 -41.4728 -41.4727 -41.4727
   -41.4727 -41.4727 -41.4727 -41.4727 -41.4727 -41.4727 -41.4727 -41.4727
   -41.4727 -41.4727 -41.4727 -41.4727 -41.4727 -41.4727 -41.4727 -41.4727
   -41.4727 -41.4727 -41.4727 -41.4727 -41.4727 -41.4726 -41.4726 -41.4726
    -1.1261  -0.7177  -0.7177  -0.6595  -0.6151  -0.6151  -0.6081  -0.6081
    -0.5954  -0.5759  -0.5644  -0.5608  -0.5557  -0.5508  -0.5490  -0.5472
    -0.5427  -0.5427  -0.5356  -0.5356  -0.5281  -0.5280  -0.5182  -0.5072
    -0.5036  -0.5036  -0.4996  -0.4936  -0.4933  -0.4933  -0.4898  -0.4897
    -0.4843  -0.4593  -0.4473  -0.4473  -0.4444  -0.4412  -0.4392  -0.4392
    -0.4322  -0.4301  -0.4178  -0.4126  -0.4118  -0.4118  -0.4080  -0.4021
    -0.3991  -0.3991  -0.3956  -0.3956  -0.3944  -0.3944  -0.3891  -0.3890
    -0.3890  -0.3842  -0.3842  -0.3824  -0.3778  -0.3778  -0.3727  -0.3723
    -0.3716  -0.3703  -0.3675  -0.3652  -0.3612  -0.3596  -0.3494  -0.3376
    -0.3322  -0.3321  -0.3310  -0.3310  -0.3297  -0.3260  -0.3260  -0.3202
    -0.3202  -0.3044  -0.2918  -0.0270  -0.0084   0.1651   0.3713   0.3713
     0.5217   0.5218

          k = 0.0292 0.1462 0.2047 (103504 PWs)   bands (ev):

   -71.3918 -71.3918 -71.3918 -71.3918 -71.3918 -71.3918 -71.3918 -71.3918
   -71.3918 -71.3917 -71.3917 -71.3917 -71.3917 -71.3917 -71.3917 -71.3917
   -41.4728 -41.4728 -41.4728 -41.4728 -41.4728 -41.4728 -41.4728 -41.4728
   -41.4728 -41.4728 -41.4728 -41.4728 -41.4728 -41.4728 -41.4728 -41.4728
   -41.4728 -41.4728 -41.4728 -41.4728 -41.4728 -41.4728 -41.4728 -41.4727
   -41.4727 -41.4727 -41.4727 -41.4727 -41.4727 -41.4727 -41.4727 -41.4727
   -41.4727 -41.4727 -41.4727 -41.4727 -41.4727 -41.4727 -41.4727 -41.4727
   -41.4727 -41.4727 -41.4727 -41.4727 -41.4727 -41.4727 -41.4727 -41.4727
    -1.0489  -0.8348  -0.6962  -0.6682  -0.6068  -0.5962  -0.5950  -0.5936
    -0.5855  -0.5765  -0.5706  -0.5657  -0.5614  -0.5561  -0.5415  -0.5412
    -0.5407  -0.5362  -0.5358  -0.5302  -0.5265  -0.5220  -0.5189  -0.5102
    -0.5086  -0.5082  -0.5079  -0.5017  -0.4991  -0.4971  -0.4948  -0.4845
    -0.4781  -0.4625  -0.4599  -0.4450  -0.4372  -0.4365  -0.4361  -0.4217
    -0.4209  -0.4204  -0.4186  -0.4128  -0.4097  -0.4052  -0.4043  -0.4036
    -0.4026  -0.4019  -0.4005  -0.3970  -0.3961  -0.3927  -0.3889  -0.3882
    -0.3875  -0.3851  -0.3843  -0.3821  -0.3805  -0.3801  -0.3767  -0.3750
    -0.3744  -0.3721  -0.3709  -0.3661  -0.3615  -0.3576  -0.3550  -0.3519
    -0.3508  -0.3463  -0.3438  -0.3411  -0.3379  -0.3273  -0.3160  -0.3124
    -0.3091  -0.3049  -0.2949  -0.1450   0.0469   0.2369   0.2507   0.4187
     0.4243   0.5432

          k = 0.0292 0.1462-0.2632 (103450 PWs)   bands (ev):

   -71.3918 -71.3918 -71.3918 -71.3918 -71.3918 -71.3918 -71.3918 -71.3918
   -71.3917 -71.3917 -71.3917 -71.3917 -71.3917 -71.3917 -71.3917 -71.3917
   -41.4728 -41.4728 -41.4728 -41.4728 -41.4728 -41.4728 -41.4728 -41.4728
   -41.4728 -41.4728 -41.4728 -41.4728 -41.4728 -41.4728 -41.4728 -41.4728
   -41.4728 -41.4728 -41.4728 -41.4728 -41.4728 -41.4728 -41.4727 -41.4727
   -41.4727 -41.4727 -41.4727 -41.4727 -41.4727 -41.4727 -41.4727 -41.4727
   -41.4727 -41.4727 -41.4727 -41.4727 -41.4727 -41.4727 -41.4727 -41.4727
   -41.4727 -41.4727 -41.4727 -41.4727 -41.4727 -41.4727 -41.4727 -41.4726
    -0.9498  -0.9498  -0.6796  -0.6796  -0.5965  -0.5965  -0.5817  -0.5817
    -0.5810  -0.5810  -0.5761  -0.5761  -0.5576  -0.5576  -0.5463  -0.5463
    -0.5316  -0.5316  -0.5248  -0.5248  -0.5236  -0.5236  -0.5147  -0.5147
    -0.5118  -0.5118  -0.5108  -0.5108  -0.5077  -0.5077  -0.4831  -0.4831
    -0.4759  -0.4758  -0.4562  -0.4562  -0.4294  -0.4294  -0.4257  -0.4257
    -0.4195  -0.4195  -0.4058  -0.4058  -0.4045  -0.4045  -0.4023  -0.4023
    -0.4015  -0.4015  -0.4008  -0.4008  -0.3955  -0.3955  -0.3934  -0.3934
    -0.3923  -0.3923  -0.3800  -0.3800  -0.3784  -0.3784  -0.3783  -0.3783
    -0.3684  -0.3684  -0.3665  -0.3665  -0.3626  -0.3626  -0.3621  -0.3621
    -0.3529  -0.3529  -0.3490  -0.3489  -0.3358  -0.3358  -0.3088  -0.3088
    -0.3019  -0.3019  -0.2489  -0.2489   0.1404   0.1405   0.3254   0.3255
     0.4772   0.4772

          k = 0.0292 0.2047 0.2047 (103517 PWs)   bands (ev):

   -71.3918 -71.3918 -71.3918 -71.3918 -71.3918 -71.3918 -71.3918 -71.3918
   -71.3918 -71.3918 -71.3918 -71.3918 -71.3917 -71.3917 -71.3917 -71.3917
   -41.4729 -41.4728 -41.4728 -41.4728 -41.4728 -41.4728 -41.4728 -41.4728
   -41.4728 -41.4728 -41.4728 -41.4728 -41.4728 -41.4728 -41.4728 -41.4728
   -41.4728 -41.4728 -41.4728 -41.4728 -41.4728 -41.4728 -41.4728 -41.4727
   -41.4727 -41.4727 -41.4727 -41.4727 -41.4727 -41.4727 -41.4727 -41.4727
   -41.4727 -41.4727 -41.4727 -41.4727 -41.4727 -41.4727 -41.4727 -41.4727
   -41.4727 -41.4727 -41.4727 -41.4727 -41.4727 -41.4727 -41.4727 -41.4726
    -0.9762  -0.7865  -0.7865  -0.6974  -0.5922  -0.5922  -0.5876  -0.5876
    -0.5860  -0.5763  -0.5717  -0.5704  -0.5610  -0.5499  -0.5402  -0.5402
    -0.5379  -0.5273  -0.5212  -0.5212  -0.5211  -0.5211  -0.5166  -0.5121
    -0.5121  -0.5012  -0.4970  -0.4954  -0.4927  -0.4927  -0.4901  -0.4841
    -0.4760  -0.4544  -0.4429  -0.4429  -0.4372  -0.4370  -0.4370  -0.4345
    -0.4282  -0.4273  -0.4241  -0.4123  -0.4123  -0.4073  -0.4072  -0.4066
    -0.4015  -0.3985  -0.3982  -0.3982  -0.3959  -0.3950  -0.3950  -0.3910
    -0.3905  -0.3905  -0.3877  -0.3853  -0.3853  -0.3850  -0.3850  -0.3781
    -0.3770  -0.3722  -0.3709  -0.3659  -0.3659  -0.3642  -0.3586  -0.3586
    -0.3585  -0.3563  -0.3539  -0.3539  -0.3463  -0.3415  -0.3415  -0.3054
    -0.3054  -0.3014  -0.2947  -0.2689   0.1175   0.3024   0.3080   0.3080
     0.4591   0.4713

          k = 0.0292 0.2047-0.2632 (103496 PWs)   bands (ev):

   -71.3918 -71.3918 -71.3918 -71.3918 -71.3918 -71.3918 -71.3918 -71.3918
   -71.3918 -71.3918 -71.3917 -71.3917 -71.3917 -71.3917 -71.3917 -71.3917
   -41.4728 -41.4728 -41.4728 -41.4728 -41.4728 -41.4728 -41.4728 -41.4728
   -41.4728 -41.4728 -41.4728 -41.4728 -41.4728 -41.4728 -41.4728 -41.4728
   -41.4728 -41.4728 -41.4728 -41.4728 -41.4728 -41.4728 -41.4727 -41.4727
   -41.4727 -41.4727 -41.4727 -41.4727 -41.4727 -41.4727 -41.4727 -41.4727
   -41.4727 -41.4727 -41.4727 -41.4727 -41.4727 -41.4727 -41.4727 -41.4727
   -41.4727 -41.4727 -41.4727 -41.4727 -41.4727 -41.4727 -41.4727 -41.4727
    -0.8856  -0.8856  -0.7375  -0.7375  -0.5888  -0.5888  -0.5814  -0.5814
    -0.5800  -0.5800  -0.5799  -0.5799  -0.5485  -0.5485  -0.5441  -0.5441
    -0.5311  -0.5311  -0.5204  -0.5204  -0.5102  -0.5102  -0.5085  -0.5085
    -0.5058  -0.5058  -0.5000  -0.5000  -0.4988  -0.4988  -0.4743  -0.4743
    -0.4640  -0.4640  -0.4606  -0.4606  -0.4268  -0.4268  -0.4263  -0.4263
    -0.4228  -0.4227  -0.4199  -0.4199  -0.4192  -0.4192  -0.4101  -0.4101
    -0.4029  -0.4029  -0.3997  -0.3997  -0.3919  -0.3919  -0.3914  -0.3914
    -0.3903  -0.3903  -0.3900  -0.3900  -0.3819  -0.3819  -0.3813  -0.3813
    -0.3810  -0.3810  -0.3725  -0.3725  -0.3697  -0.3697  -0.3609  -0.3609
    -0.3558  -0.3558  -0.3524  -0.3524  -0.3451  -0.3451  -0.3440  -0.3440
    -0.3016  -0.3016  -0.2982  -0.2982   0.2056   0.2056   0.3787   0.3787
     0.3826   0.3826

          k = 0.0292-0.2632-0.2632 (103504 PWs)   bands (ev):

   -71.3918 -71.3918 -71.3918 -71.3918 -71.3918 -71.3918 -71.3918 -71.3918
   -71.3918 -71.3918 -71.3918 -71.3918 -71.3917 -71.3917 -71.3917 -71.3917
   -41.4728 -41.4728 -41.4728 -41.4728 -41.4728 -41.4728 -41.4728 -41.4728
   -41.4728 -41.4728 -41.4728 -41.4728 -41.4728 -41.4728 -41.4728 -41.4728
   -41.4728 -41.4728 -41.4728 -41.4728 -41.4728 -41.4728 -41.4728 -41.4728
   -41.4727 -41.4727 -41.4727 -41.4727 -41.4727 -41.4727 -41.4727 -41.4727
   -41.4727 -41.4727 -41.4727 -41.4727 -41.4727 -41.4727 -41.4727 -41.4727
   -41.4727 -41.4727 -41.4727 -41.4727 -41.4727 -41.4727 -41.4727 -41.4727
    -0.8105  -0.8105  -0.8105  -0.8105  -0.5837  -0.5836  -0.5836  -0.5836
    -0.5804  -0.5804  -0.5804  -0.5804  -0.5444  -0.5444  -0.5444  -0.5444
    -0.5273  -0.5273  -0.5273  -0.5273  -0.5007  -0.5007  -0.5007  -0.5007
    -0.4942  -0.4942  -0.4942  -0.4942  -0.4925  -0.4925  -0.4924  -0.4924
    -0.4443  -0.4443  -0.4443  -0.4443  -0.4323  -0.4323  -0.4322  -0.4322
    -0.4303  -0.4303  -0.4303  -0.4303  -0.4273  -0.4273  -0.4273  -0.4273
    -0.3939  -0.3939  -0.3939  -0.3939  -0.3906  -0.3906  -0.3906  -0.3906
    -0.3879  -0.3879  -0.3879  -0.3879  -0.3868  -0.3868  -0.3868  -0.3868
    -0.3852  -0.3852  -0.3852  -0.3852  -0.3716  -0.3716  -0.3716  -0.3716
    -0.3593  -0.3593  -0.3593  -0.3593  -0.3506  -0.3506  -0.3506  -0.3506
    -0.2980  -0.2980  -0.2980  -0.2980   0.2862   0.2862   0.2862   0.2862
     0.4522   0.4523

          k = 0.0877 0.0877 0.0877 (103458 PWs)   bands (ev):

   -71.3918 -71.3918 -71.3918 -71.3918 -71.3918 -71.3918 -71.3918 -71.3918
   -71.3918 -71.3918 -71.3917 -71.3917 -71.3917 -71.3917 -71.3917 -71.3917
   -41.4729 -41.4729 -41.4728 -41.4728 -41.4728 -41.4728 -41.4728 -41.4728
   -41.4728 -41.4728 -41.4728 -41.4728 -41.4728 -41.4728 -41.4728 -41.4728
   -41.4728 -41.4728 -41.4728 -41.4728 -41.4728 -41.4728 -41.4727 -41.4727
   -41.4727 -41.4727 -41.4727 -41.4727 -41.4727 -41.4727 -41.4727 -41.4727
   -41.4727 -41.4727 -41.4727 -41.4727 -41.4727 -41.4727 -41.4727 -41.4727
   -41.4727 -41.4727 -41.4726 -41.4726 -41.4726 -41.4726 -41.4726 -41.4726
    -1.2055  -0.6413  -0.6413  -0.6413  -0.6217  -0.6217  -0.6217  -0.6184
    -0.6184  -0.6184  -0.5724  -0.5724  -0.5531  -0.5531  -0.5531  -0.5495
    -0.5417  -0.5417  -0.5417  -0.5128  -0.5128  -0.5063  -0.5063  -0.5063
    -0.5033  -0.5033  -0.5033  -0.4993  -0.4993  -0.4771  -0.4771  -0.4771
    -0.4729  -0.4638  -0.4638  -0.4638  -0.4577  -0.4577  -0.4464  -0.4408
    -0.4408  -0.4408  -0.4269  -0.4269  -0.4269  -0.4056  -0.4056  -0.4056
    -0.3904  -0.3904  -0.3904  -0.3887  -0.3887  -0.3887  -0.3856  -0.3856
    -0.3856  -0.3856  -0.3855  -0.3855  -0.3755  -0.3755  -0.3696  -0.3696
    -0.3696  -0.3693  -0.3693  -0.3680  -0.3680  -0.3499  -0.3499  -0.3499
    -0.3426  -0.3155  -0.3155  -0.3155  -0.3119  -0.3119  -0.2977  -0.2977
    -0.2977  -0.2661  -0.2661  -0.2661   0.2823   0.2823   0.2823   0.3200
     0.3200   0.3200

          k = 0.0877 0.0877 0.1462 (103445 PWs)   bands (ev):

   -71.3918 -71.3918 -71.3918 -71.3918 -71.3918 -71.3918 -71.3918 -71.3918
   -71.3918 -71.3917 -71.3917 -71.3917 -71.3917 -71.3917 -71.3917 -71.3917
   -41.4729 -41.4729 -41.4728 -41.4728 -41.4728 -41.4728 -41.4728 -41.4728
   -41.4728 -41.4728 -41.4728 -41.4728 -41.4728 -41.4728 -41.4728 -41.4728
   -41.4728 -41.4728 -41.4728 -41.4728 -41.4728 -41.4728 -41.4727 -41.4727
   -41.4727 -41.4727 -41.4727 -41.4727 -41.4727 -41.4727 -41.4727 -41.4727
   -41.4727 -41.4727 -41.4727 -41.4727 -41.4727 -41.4727 -41.4727 -41.4727
   -41.4727 -41.4727 -41.4727 -41.4726 -41.4726 -41.4726 -41.4726 -41.4726
    -1.1523  -0.7256  -0.6401  -0.6401  -0.6216  -0.6193  -0.6193  -0.6091
    -0.6072  -0.6072  -0.5662  -0.5618  -0.5608  -0.5510  -0.5484  -0.5484
    -0.5374  -0.5302  -0.5302  -0.5254  -0.5245  -0.5245  -0.5181  -0.5171
    -0.5051  -0.5026  -0.4976  -0.4954  -0.4954  -0.4923  -0.4923  -0.4815
    -0.4807  -0.4737  -0.4613  -0.4529  -0.4529  -0.4491  -0.4491  -0.4381
    -0.4356  -0.4329  -0.4186  -0.4155  -0.4155  -0.4039  -0.4039  -0.4030
    -0.4030  -0.3975  -0.3932  -0.3932  -0.3900  -0.3887  -0.3884  -0.3884
    -0.3868  -0.3833  -0.3805  -0.3732  -0.3723  -0.3723  -0.3717  -0.3717
    -0.3710  -0.3696  -0.3696  -0.3693  -0.3657  -0.3593  -0.3392  -0.3392
    -0.3371  -0.3361  -0.3327  -0.3285  -0.3285  -0.3219  -0.3124  -0.3100
    -0.2998  -0.2998  -0.2286  -0.2286   0.1726   0.1726   0.3318   0.3319
     0.3538   0.5189

          k = 0.0877 0.0877 0.2047 (103466 PWs)   bands (ev):

   -71.3918 -71.3918 -71.3918 -71.3918 -71.3918 -71.3918 -71.3918 -71.3918
   -71.3918 -71.3917 -71.3917 -71.3917 -71.3917 -71.3917 -71.3917 -71.3917
   -41.4728 -41.4728 -41.4728 -41.4728 -41.4728 -41.4728 -41.4728 -41.4728
   -41.4728 -41.4728 -41.4728 -41.4728 -41.4728 -41.4728 -41.4728 -41.4728
   -41.4728 -41.4728 -41.4728 -41.4728 -41.4728 -41.4728 -41.4727 -41.4727
   -41.4727 -41.4727 -41.4727 -41.4727 -41.4727 -41.4727 -41.4727 -41.4727
   -41.4727 -41.4727 -41.4727 -41.4727 -41.4727 -41.4727 -41.4727 -41.4727
   -41.4727 -41.4727 -41.4727 -41.4727 -41.4727 -41.4727 -41.4726 -41.4726
    -1.0737  -0.8522  -0.6358  -0.6358  -0.6236  -0.6236  -0.5952  -0.5946
    -0.5893  -0.5893  -0.5710  -0.5572  -0.5476  -0.5474  -0.5465  -0.5465
    -0.5394  -0.5394  -0.5374  -0.5352  -0.5326  -0.5283  -0.5161  -0.5161
    -0.5155  -0.5105  -0.5105  -0.5033  -0.4949  -0.4939  -0.4935  -0.4922
    -0.4921  -0.4861  -0.4509  -0.4509  -0.4475  -0.4321  -0.4321  -0.4215
    -0.4215  -0.4175  -0.4174  -0.4152  -0.4142  -0.4078  -0.4011  -0.4011
    -0.4011  -0.4011  -0.3965  -0.3965  -0.3962  -0.3962  -0.3931  -0.3878
    -0.3821  -0.3803  -0.3783  -0.3772  -0.3772  -0.3736  -0.3727  -0.3706
    -0.3699  -0.3695  -0.3693  -0.3631  -0.3631  -0.3624  -0.3601  -0.3564
    -0.3427  -0.3427  -0.3359  -0.3308  -0.3267  -0.3267  -0.3260  -0.3120
    -0.3057  -0.3057  -0.1662  -0.1662   0.0372   0.0372   0.4005   0.4005
     0.4013   0.5268

          k = 0.0877 0.0877-0.2632 (103456 PWs)   bands (ev):

   -71.3918 -71.3918 -71.3918 -71.3918 -71.3918 -71.3918 -71.3918 -71.3918
   -71.3917 -71.3917 -71.3917 -71.3917 -71.3917 -71.3917 -71.3917 -71.3917
   -41.4728 -41.4728 -41.4728 -41.4728 -41.4728 -41.4728 -41.4728 -41.4728
   -41.4728 -41.4728 -41.4728 -41.4728 -41.4728 -41.4728 -41.4728 -41.4728
   -41.4728 -41.4728 -41.4728 -41.4728 -41.4728 -41.4728 -41.4727 -41.4727
   -41.4727 -41.4727 -41.4727 -41.4727 -41.4727 -41.4727 -41.4727 -41.4727
   -41.4727 -41.4727 -41.4727 -41.4727 -41.4727 -41.4727 -41.4727 -41.4727
   -41.4727 -41.4727 -41.4727 -41.4727 -41.4727 -41.4727 -41.4727 -41.4727
    -0.9721  -0.9721  -0.6298  -0.6298  -0.6298  -0.6298  -0.5816  -0.5816
    -0.5686  -0.5686  -0.5686  -0.5686  -0.5656  -0.5656  -0.5459  -0.5459
    -0.5425  -0.5424  -0.5311  -0.5311  -0.5266  -0.5266  -0.5266  -0.5266
    -0.5131  -0.5131  -0.5016  -0.5016  -0.5016  -0.5016  -0.5008  -0.5008
    -0.4910  -0.4910  -0.4391  -0.4391  -0.4391  -0.4391  -0.4317  -0.4317
    -0.4114  -0.4114  -0.4114  -0.4114  -0.4005  -0.4005  -0.3989  -0.3988
    -0.3988  -0.3988  -0.3982  -0.3982  -0.3971  -0.3971  -0.3908  -0.3908
    -0.3872  -0.3872  -0.3872  -0.3872  -0.3771  -0.3771  -0.3767  -0.3767
    -0.3694  -0.3694  -0.3652  -0.3652  -0.3545  -0.3545  -0.3545  -0.3545
    -0.3525  -0.3525  -0.3484  -0.3484  -0.3175  -0.3175  -0.3150  -0.3150
    -0.3150  -0.3150  -0.0773  -0.0773  -0.0773  -0.0773   0.4599   0.4599
     0.4813   0.4813

          k = 0.0877 0.1462 0.1462 (103466 PWs)   bands (ev):

   -71.3918 -71.3918 -71.3918 -71.3918 -71.3918 -71.3918 -71.3918 -71.3918
   -71.3918 -71.3917 -71.3917 -71.3917 -71.3917 -71.3917 -71.3917 -71.3917
   -41.4729 -41.4728 -41.4728 -41.4728 -41.4728 -41.4728 -41.4728 -41.4728
   -41.4728 -41.4728 -41.4728 -41.4728 -41.4728 -41.4728 -41.4728 -41.4728
   -41.4728 -41.4728 -41.4728 -41.4728 -41.4728 -41.4728 -41.4728 -41.4727
   -41.4727 -41.4727 -41.4727 -41.4727 -41.4727 -41.4727 -41.4727 -41.4727
   -41.4727 -41.4727 -41.4727 -41.4727 -41.4727 -41.4727 -41.4727 -41.4727
   -41.4727 -41.4727 -41.4727 -41.4727 -41.4726 -41.4726 -41.4726 -41.4726
    -1.1003  -0.7041  -0.7041  -0.6472  -0.6200  -0.6200  -0.6142  -0.5980
    -0.5980  -0.5911  -0.5692  -0.5587  -0.5531  -0.5464  -0.5461  -0.5461
    -0.5347  -0.5304  -0.5256  -0.5256  -0.5222  -0.5222  -0.5177  -0.5127
    -0.5066  -0.5012  -0.4998  -0.4998  -0.4998  -0.4998  -0.4976  -0.4902
    -0.4678  -0.4669  -0.4669  -0.4613  -0.4485  -0.4485  -0.4475  -0.4469
    -0.4435  -0.4374  -0.4183  -0.4111  -0.4108  -0.4108  -0.4046  -0.4046
    -0.3980  -0.3978  -0.3899  -0.3899  -0.3891  -0.3891  -0.3878  -0.3861
    -0.3861  -0.3810  -0.3790  -0.3790  -0.3783  -0.3746  -0.3733  -0.3733
    -0.3723  -0.3703  -0.3697  -0.3695  -0.3662  -0.3638  -0.3497  -0.3497
    -0.3465  -0.3380  -0.3277  -0.3277  -0.3274  -0.3175  -0.3174  -0.3133
    -0.3133  -0.3097  -0.2985  -0.1819   0.0184   0.2140   0.2140   0.3773
     0.5106   0.5590

          k = 0.0877 0.1462 0.2047 (103476 PWs)   bands (ev):

   -71.3918 -71.3918 -71.3918 -71.3918 -71.3918 -71.3918 -71.3918 -71.3918
   -71.3918 -71.3917 -71.3917 -71.3917 -71.3917 -71.3917 -71.3917 -71.3917
   -41.4728 -41.4728 -41.4728 -41.4728 -41.4728 -41.4728 -41.4728 -41.4728
   -41.4728 -41.4728 -41.4728 -41.4728 -41.4728 -41.4728 -41.4728 -41.4728
   -41.4728 -41.4728 -41.4728 -41.4728 -41.4728 -41.4728 -41.4727 -41.4727
   -41.4727 -41.4727 -41.4727 -41.4727 -41.4727 -41.4727 -41.4727 -41.4727
   -41.4727 -41.4727 -41.4727 -41.4727 -41.4727 -41.4727 -41.4727 -41.4727
   -41.4727 -41.4727 -41.4727 -41.4727 -41.4727 -41.4727 -41.4727 -41.4726
    -1.0241  -0.8149  -0.6821  -0.6547  -0.6169  -0.6122  -0.5939  -0.5887
    -0.5836  -0.5756  -0.5729  -0.5505  -0.5480  -0.5477  -0.5418  -0.5404
    -0.5391  -0.5361  -0.5360  -0.5304  -0.5204  -0.5166  -0.5155  -0.5126
    -0.5098  -0.5085  -0.5065  -0.5041  -0.5038  -0.4984  -0.4945  -0.4893
    -0.4811  -0.4802  -0.4592  -0.4464  -0.4456  -0.4414  -0.4378  -0.4363
    -0.4337  -0.4301  -0.4259  -0.4213  -0.4077  -0.4025  -0.4023  -0.4016
    -0.3996  -0.3989  -0.3973  -0.3946  -0.3945  -0.3919  -0.3912  -0.3911
    -0.3875  -0.3861  -0.3834  -0.3834  -0.3804  -0.3764  -0.3749  -0.3736
    -0.3723  -0.3723  -0.3694  -0.3694  -0.3657  -0.3630  -0.3629  -0.3577
    -0.3577  -0.3557  -0.3403  -0.3327  -0.3299  -0.3186  -0.3178  -0.3169
    -0.3094  -0.3012  -0.2802  -0.1145  -0.1130   0.0848   0.2713   0.4230
     0.4402   0.5875

          k = 0.0877 0.1462-0.2632 (103420 PWs)   bands (ev):

   -71.3918 -71.3918 -71.3918 -71.3918 -71.3918 -71.3918 -71.3918 -71.3918
   -71.3917 -71.3917 -71.3917 -71.3917 -71.3917 -71.3917 -71.3917 -71.3917
   -41.4728 -41.4728 -41.4728 -41.4728 -41.4728 -41.4728 -41.4728 -41.4728
   -41.4728 -41.4728 -41.4728 -41.4728 -41.4728 -41.4728 -41.4728 -41.4728
   -41.4728 -41.4728 -41.4728 -41.4728 -41.4728 -41.4728 -41.4727 -41.4727
   -41.4727 -41.4727 -41.4727 -41.4727 -41.4727 -41.4727 -41.4727 -41.4727
   -41.4727 -41.4727 -41.4727 -41.4727 -41.4727 -41.4727 -41.4727 -41.4727
   -41.4727 -41.4727 -41.4727 -41.4727 -41.4727 -41.4726 -41.4726 -41.4726
    -0.9267  -0.9267  -0.6654  -0.6654  -0.6137  -0.6137  -0.5814  -0.5814
    -0.5675  -0.5675  -0.5664  -0.5664  -0.5539  -0.5539  -0.5408  -0.5408
    -0.5336  -0.5336  -0.5303  -0.5303  -0.5231  -0.5231  -0.5216  -0.5216
    -0.5100  -0.5100  -0.5019  -0.5019  -0.4995  -0.4995  -0.4913  -0.4913
    -0.4891  -0.4891  -0.4535  -0.4535  -0.4366  -0.4366  -0.4208  -0.4208
    -0.4196  -0.4196  -0.4145  -0.4145  -0.4113  -0.4113  -0.4110  -0.4110
    -0.4104  -0.4104  -0.3984  -0.3984  -0.3937  -0.3937  -0.3928  -0.3928
    -0.3928  -0.3928  -0.3918  -0.3918  -0.3782  -0.3782  -0.3774  -0.3774
    -0.3686  -0.3686  -0.3675  -0.3675  -0.3662  -0.3662  -0.3609  -0.3609
    -0.3564  -0.3564  -0.3460  -0.3460  -0.3250  -0.3250  -0.3124  -0.3123
    -0.3076  -0.3076  -0.2135  -0.2135  -0.0257  -0.0257   0.3419   0.3419
     0.5140   0.5140

          k = 0.0877 0.2047 0.2047 (103440 PWs)   bands (ev):

   -71.3918 -71.3918 -71.3918 -71.3918 -71.3918 -71.3918 -71.3918 -71.3918
   -71.3917 -71.3917 -71.3917 -71.3917 -71.3917 -71.3917 -71.3917 -71.3917
   -41.4728 -41.4728 -41.4728 -41.4728 -41.4728 -41.4728 -41.4728 -41.4728
   -41.4728 -41.4728 -41.4728 -41.4728 -41.4728 -41.4728 -41.4728 -41.4728
   -41.4728 -41.4728 -41.4728 -41.4728 -41.4728 -41.4727 -41.4727 -41.4727
   -41.4727 -41.4727 -41.4727 -41.4727 -41.4727 -41.4727 -41.4727 -41.4727
   -41.4727 -41.4727 -41.4727 -41.4727 -41.4727 -41.4727 -41.4727 -41.4727
   -41.4727 -41.4727 -41.4727 -41.4727 -41.4727 -41.4727 -41.4727 -41.4726
    -0.9522  -0.7671  -0.7670  -0.6811  -0.6023  -0.5942  -0.5942  -0.5796
    -0.5796  -0.5775  -0.5596  -0.5569  -0.5562  -0.5439  -0.5374  -0.5341
    -0.5341  -0.5292  -0.5291  -0.5255  -0.5200  -0.5199  -0.5162  -0.5112
    -0.5034  -0.5034  -0.5004  -0.4966  -0.4944  -0.4944  -0.4907  -0.4892
    -0.4790  -0.4619  -0.4619  -0.4570  -0.4570  -0.4552  -0.4544  -0.4441
    -0.4426  -0.4312  -0.4233  -0.4233  -0.4206  -0.4130  -0.4130  -0.4098
    -0.3981  -0.3980  -0.3972  -0.3965  -0.3964  -0.3886  -0.3882  -0.3861
    -0.3849  -0.3849  -0.3844  -0.3844  -0.3823  -0.3823  -0.3777  -0.3736
    -0.3736  -0.3735  -0.3735  -0.3713  -0.3686  -0.3648  -0.3648  -0.3634
    -0.3539  -0.3523  -0.3438  -0.3438  -0.3363  -0.3322  -0.3322  -0.3102
    -0.3101  -0.3067  -0.3006  -0.2287  -0.0445   0.1497   0.1497   0.3215
     0.4952   0.6219

          k = 0.0877 0.2047-0.2632 (103448 PWs)   bands (ev):

   -71.3918 -71.3918 -71.3918 -71.3918 -71.3918 -71.3918 -71.3918 -71.3918
   -71.3917 -71.3917 -71.3917 -71.3917 -71.3917 -71.3917 -71.3917 -71.3917
   -41.4728 -41.4728 -41.4728 -41.4728 -41.4728 -41.4728 -41.4728 -41.4728
   -41.4728 -41.4728 -41.4728 -41.4728 -41.4728 -41.4728 -41.4728 -41.4728
   -41.4728 -41.4728 -41.4728 -41.4728 -41.4728 -41.4728 -41.4728 -41.4727
   -41.4727 -41.4727 -41.4727 -41.4727 -41.4727 -41.4727 -41.4727 -41.4727
   -41.4727 -41.4727 -41.4727 -41.4727 -41.4727 -41.4727 -41.4727 -41.4727
   -41.4727 -41.4727 -41.4727 -41.4727 -41.4727 -41.4727 -41.4726 -41.4726
    -0.8632  -0.8631  -0.7192  -0.7192  -0.5966  -0.5966  -0.5782  -0.5782
    -0.5741  -0.5741  -0.5682  -0.5682  -0.5433  -0.5433  -0.5379  -0.5379
    -0.5305  -0.5305  -0.5198  -0.5198  -0.5179  -0.5179  -0.5126  -0.5126
    -0.5091  -0.5091  -0.4962  -0.4962  -0.4898  -0.4898  -0.4804  -0.4804
    -0.4789  -0.4789  -0.4695  -0.4695  -0.4413  -0.4413  -0.4395  -0.4395
    -0.4362  -0.4362  -0.4345  -0.4345  -0.4318  -0.4318  -0.4278  -0.4278
    -0.3916  -0.3916  -0.3913  -0.3913  -0.3907  -0.3907  -0.3903  -0.3902
    -0.3866  -0.3866  -0.3856  -0.3856  -0.3814  -0.3814  -0.3778  -0.3778
    -0.3709  -0.3709  -0.3699  -0.3699  -0.3673  -0.3673  -0.3672  -0.3672
    -0.3640  -0.3640  -0.3453  -0.3453  -0.3355  -0.3355  -0.3067  -0.3067
    -0.3037  -0.3037  -0.3032  -0.3032   0.0436   0.0436   0.2292   0.2292
     0.5591   0.5591

          k = 0.0877-0.2632-0.2632 (103508 PWs)   bands (ev):

   -71.3918 -71.3918 -71.3918 -71.3918 -71.3918 -71.3918 -71.3918 -71.3918
   -71.3918 -71.3918 -71.3918 -71.3918 -71.3918 -71.3917 -71.3917 -71.3917
   -41.4728 -41.4728 -41.4728 -41.4728 -41.4728 -41.4728 -41.4728 -41.4728
   -41.4728 -41.4728 -41.4728 -41.4728 -41.4728 -41.4728 -41.4728 -41.4728
   -41.4728 -41.4728 -41.4728 -41.4728 -41.4728 -41.4728 -41.4728 -41.4728
   -41.4728 -41.4728 -41.4727 -41.4727 -41.4727 -41.4727 -41.4727 -41.4727
   -41.4727 -41.4727 -41.4727 -41.4727 -41.4727 -41.4727 -41.4727 -41.4727
   -41.4727 -41.4727 -41.4727 -41.4727 -41.4727 -41.4727 -41.4727 -41.4727
    -0.7895  -0.7895  -0.7895  -0.7895  -0.5833  -0.5833  -0.5833  -0.5833
    -0.5731  -0.5731  -0.5730  -0.5730  -0.5383  -0.5382  -0.5382  -0.5382
    -0.5269  -0.5269  -0.5269  -0.5269  -0.5073  -0.5073  -0.5073  -0.5073
    -0.4916  -0.4916  -0.4916  -0.4916  -0.4891  -0.4891  -0.4891  -0.4891
    -0.4610  -0.4609  -0.4609  -0.4609  -0.4596  -0.4596  -0.4596  -0.4596
    -0.4485  -0.4485  -0.4485  -0.4485  -0.4352  -0.4352  -0.4352  -0.4352
    -0.3891  -0.3890  -0.3890  -0.3890  -0.3860  -0.3860  -0.3860  -0.3860
    -0.3802  -0.3802  -0.3802  -0.3802  -0.3801  -0.3801  -0.3801  -0.3801
    -0.3723  -0.3723  -0.3723  -0.3723  -0.3659  -0.3659  -0.3659  -0.3659
    -0.3537  -0.3537  -0.3537  -0.3537  -0.3427  -0.3427  -0.3427  -0.3427
    -0.3035  -0.3035  -0.3035  -0.3035   0.1288   0.1288   0.1288   0.1288
     0.6113   0.6113

          k = 0.1462 0.1462 0.1462 (103510 PWs)   bands (ev):

   -71.3918 -71.3918 -71.3918 -71.3918 -71.3918 -71.3918 -71.3918 -71.3918
   -71.3918 -71.3918 -71.3917 -71.3917 -71.3917 -71.3917 -71.3917 -71.3917
   -41.4729 -41.4729 -41.4728 -41.4728 -41.4728 -41.4728 -41.4728 -41.4728
   -41.4728 -41.4728 -41.4728 -41.4728 -41.4728 -41.4728 -41.4728 -41.4728
   -41.4728 -41.4728 -41.4728 -41.4728 -41.4728 -41.4728 -41.4728 -41.4727
   -41.4727 -41.4727 -41.4727 -41.4727 -41.4727 -41.4727 -41.4727 -41.4727
   -41.4727 -41.4727 -41.4727 -41.4727 -41.4727 -41.4727 -41.4727 -41.4727
   -41.4727 -41.4727 -41.4727 -41.4727 -41.4727 -41.4727 -41.4727 -41.4727
    -1.0495  -0.6814  -0.6814  -0.6814  -0.6241  -0.6240  -0.6240  -0.5848
    -0.5848  -0.5848  -0.5741  -0.5480  -0.5480  -0.5448  -0.5448  -0.5448
    -0.5234  -0.5234  -0.5142  -0.5142  -0.5142  -0.5140  -0.5140  -0.5140
    -0.5111  -0.5111  -0.5111  -0.5054  -0.5054  -0.4933  -0.4933  -0.4933
    -0.4855  -0.4855  -0.4855  -0.4576  -0.4563  -0.4563  -0.4563  -0.4515
    -0.4515  -0.4297  -0.4197  -0.4197  -0.4197  -0.4055  -0.4055  -0.4055
    -0.3991  -0.3911  -0.3911  -0.3911  -0.3858  -0.3858  -0.3858  -0.3834
    -0.3834  -0.3834  -0.3784  -0.3784  -0.3733  -0.3733  -0.3733  -0.3720
    -0.3720  -0.3705  -0.3705  -0.3705  -0.3700  -0.3699  -0.3699  -0.3647
    -0.3647  -0.3279  -0.3279  -0.3279  -0.3197  -0.3197  -0.3109  -0.3109
    -0.3109  -0.2848  -0.2848  -0.2848   0.0667   0.0667   0.0667   0.4043
     0.5947   0.5947

          k = 0.1462 0.1462 0.2047 (103480 PWs)   bands (ev):

   -71.3918 -71.3918 -71.3918 -71.3918 -71.3918 -71.3918 -71.3918 -71.3918
   -71.3918 -71.3917 -71.3917 -71.3917 -71.3917 -71.3917 -71.3917 -71.3917
   -41.4728 -41.4728 -41.4728 -41.4728 -41.4728 -41.4728 -41.4728 -41.4728
   -41.4728 -41.4728 -41.4728 -41.4728 -41.4728 -41.4728 -41.4728 -41.4728
   -41.4728 -41.4728 -41.4728 -41.4728 -41.4728 -41.4728 -41.4727 -41.4727
   -41.4727 -41.4727 -41.4727 -41.4727 -41.4727 -41.4727 -41.4727 -41.4727
   -41.4727 -41.4727 -41.4727 -41.4727 -41.4727 -41.4727 -41.4727 -41.4727
   -41.4727 -41.4727 -41.4727 -41.4727 -41.4727 -41.4727 -41.4727 -41.4726
    -0.9754  -0.7780  -0.6575  -0.6575  -0.6296  -0.6296  -0.5933  -0.5800
    -0.5766  -0.5687  -0.5687  -0.5420  -0.5408  -0.5384  -0.5384  -0.5338
    -0.5317  -0.5314  -0.5313  -0.5313  -0.5217  -0.5107  -0.5107  -0.5102
    -0.5089  -0.5046  -0.5037  -0.5037  -0.5035  -0.5029  -0.5011  -0.5011
    -0.4971  -0.4698  -0.4679  -0.4679  -0.4586  -0.4586  -0.4564  -0.4558
    -0.4378  -0.4368  -0.4368  -0.4226  -0.4211  -0.4093  -0.4050  -0.4045
    -0.4045  -0.3987  -0.3986  -0.3982  -0.3905  -0.3905  -0.3865  -0.3865
    -0.3838  -0.3836  -0.3836  -0.3828  -0.3817  -0.3748  -0.3747  -0.3738
    -0.3715  -0.3707  -0.3690  -0.3690  -0.3686  -0.3675  -0.3675  -0.3668
    -0.3560  -0.3423  -0.3334  -0.3267  -0.3238  -0.3238  -0.3204  -0.3159
    -0.3127  -0.3127  -0.2329  -0.2328  -0.0596  -0.0596   0.1315   0.3024
     0.6411   0.6411

          k = 0.1462 0.1462-0.2632 (103454 PWs)   bands (ev):

   -71.3918 -71.3918 -71.3918 -71.3918 -71.3918 -71.3918 -71.3918 -71.3918
   -71.3917 -71.3917 -71.3917 -71.3917 -71.3917 -71.3917 -71.3917 -71.3917
   -41.4728 -41.4728 -41.4728 -41.4728 -41.4728 -41.4728 -41.4728 -41.4728
   -41.4728 -41.4728 -41.4728 -41.4728 -41.4728 -41.4728 -41.4728 -41.4728
   -41.4728 -41.4728 -41.4728 -41.4728 -41.4728 -41.4728 -41.4727 -41.4727
   -41.4727 -41.4727 -41.4727 -41.4727 -41.4727 -41.4727 -41.4727 -41.4727
   -41.4727 -41.4727 -41.4727 -41.4727 -41.4727 -41.4727 -41.4727 -41.4727
   -41.4727 -41.4727 -41.4727 -41.4727 -41.4727 -41.4727 -41.4726 -41.4726
    -0.8821  -0.8820  -0.6398  -0.6398  -0.6398  -0.6398  -0.5778  -0.5778
    -0.5597  -0.5596  -0.5505  -0.5505  -0.5505  -0.5505  -0.5378  -0.5378
    -0.5319  -0.5319  -0.5269  -0.5269  -0.5269  -0.5269  -0.5187  -0.5187
    -0.5101  -0.5101  -0.5007  -0.5007  -0.4977  -0.4977  -0.4977  -0.4977
    -0.4887  -0.4887  -0.4518  -0.4518  -0.4518  -0.4518  -0.4419  -0.4419
    -0.4377  -0.4377  -0.4377  -0.4377  -0.4341  -0.4341  -0.4282  -0.4282
    -0.3919  -0.3919  -0.3919  -0.3919  -0.3906  -0.3906  -0.3874  -0.3874
    -0.3874  -0.3874  -0.3865  -0.3865  -0.3782  -0.3782  -0.3749  -0.3749
    -0.3711  -0.3711  -0.3684  -0.3684  -0.3678  -0.3678  -0.3678  -0.3678
    -0.3496  -0.3496  -0.3427  -0.3427  -0.3176  -0.3176  -0.3176  -0.3176
    -0.3162  -0.3162  -0.1593  -0.1593  -0.1593  -0.1593   0.2106   0.2106
     0.6879   0.6879

          k = 0.1462 0.2047 0.2047 (103444 PWs)   bands (ev):

   -71.3918 -71.3918 -71.3918 -71.3918 -71.3918 -71.3918 -71.3918 -71.3918
   -71.3918 -71.3917 -71.3917 -71.3917 -71.3917 -71.3917 -71.3917 -71.3917
   -41.4728 -41.4728 -41.4728 -41.4728 -41.4728 -41.4728 -41.4728 -41.4728
   -41.4728 -41.4728 -41.4728 -41.4728 -41.4728 -41.4728 -41.4728 -41.4728
   -41.4728 -41.4728 -41.4728 -41.4728 -41.4728 -41.4728 -41.4727 -41.4727
   -41.4727 -41.4727 -41.4727 -41.4727 -41.4727 -41.4727 -41.4727 -41.4727
   -41.4727 -41.4727 -41.4727 -41.4727 -41.4727 -41.4727 -41.4727 -41.4727
   -41.4727 -41.4727 -41.4727 -41.4727 -41.4727 -41.4726 -41.4726 -41.4726
    -0.9055  -0.7308  -0.7308  -0.6503  -0.6301  -0.5971  -0.5971  -0.5745
    -0.5679  -0.5679  -0.5522  -0.5439  -0.5384  -0.5362  -0.5345  -0.5345
    -0.5325  -0.5232  -0.5232  -0.5221  -0.5196  -0.5166  -0.5166  -0.5153
    -0.5045  -0.5033  -0.5007  -0.5007  -0.5003  -0.4966  -0.4965  -0.4965
    -0.4872  -0.4872  -0.4851  -0.4738  -0.4701  -0.4701  -0.4693  -0.4571
    -0.4546  -0.4448  -0.4439  -0.4385  -0.4385  -0.4351  -0.4351  -0.4328
    -0.3935  -0.3931  -0.3930  -0.3864  -0.3855  -0.3848  -0.3838  -0.3838
    -0.3826  -0.3803  -0.3803  -0.3769  -0.3766  -0.3760  -0.3719  -0.3719
    -0.3707  -0.3707  -0.3703  -0.3703  -0.3692  -0.3692  -0.3678  -0.3665
    -0.3526  -0.3395  -0.3289  -0.3272  -0.3272  -0.3181  -0.3180  -0.3168
    -0.3116  -0.3067  -0.3067  -0.1728  -0.1707   0.0092   0.0093   0.1907
     0.6793   0.7399

          k = 0.1462 0.2047-0.2632 (103482 PWs)   bands (ev):

   -71.3918 -71.3918 -71.3918 -71.3918 -71.3918 -71.3918 -71.3918 -71.3918
   -71.3918 -71.3917 -71.3917 -71.3917 -71.3917 -71.3917 -71.3917 -71.3917
   -41.4728 -41.4728 -41.4728 -41.4728 -41.4728 -41.4728 -41.4728 -41.4728
   -41.4728 -41.4728 -41.4728 -41.4728 -41.4728 -41.4728 -41.4728 -41.4728
   -41.4728 -41.4728 -41.4728 -41.4728 -41.4728 -41.4728 -41.4728 -41.4728
   -41.4727 -41.4727 -41.4727 -41.4727 -41.4727 -41.4727 -41.4727 -41.4727
   -41.4727 -41.4727 -41.4727 -41.4727 -41.4727 -41.4727 -41.4727 -41.4727
   -41.4727 -41.4727 -41.4727 -41.4727 -41.4727 -41.4727 -41.4726 -41.4726
    -0.8200  -0.8200  -0.6846  -0.6845  -0.6088  -0.6088  -0.5708  -0.5708
    -0.5649  -0.5649  -0.5533  -0.5533  -0.5358  -0.5357  -0.5288  -0.5288
    -0.5267  -0.5267  -0.5262  -0.5262  -0.5197  -0.5197  -0.5185  -0.5185
    -0.5072  -0.5072  -0.4980  -0.4980  -0.4949  -0.4949  -0.4930  -0.4930
    -0.4828  -0.4828  -0.4701  -0.4701  -0.4663  -0.4663  -0.4643  -0.4643
    -0.4638  -0.4638  -0.4627  -0.4627  -0.4512  -0.4512  -0.4418  -0.4418
    -0.3885  -0.3885  -0.3881  -0.3881  -0.3874  -0.3873  -0.3801  -0.3801
    -0.3774  -0.3773  -0.3770  -0.3770  -0.3738  -0.3738  -0.3715  -0.3715
    -0.3714  -0.3714  -0.3712  -0.3712  -0.3690  -0.3690  -0.3536  -0.3536
    -0.3520  -0.3520  -0.3417  -0.3417  -0.3292  -0.3292  -0.3159  -0.3159
    -0.3140  -0.3140  -0.2526  -0.2526  -0.0912  -0.0912   0.0926   0.0926
     0.7170   0.7171

          k = 0.1462-0.2632-0.2632 (103480 PWs)   bands (ev):

   -71.3918 -71.3918 -71.3918 -71.3918 -71.3918 -71.3918 -71.3918 -71.3918
   -71.3918 -71.3917 -71.3917 -71.3917 -71.3917 -71.3917 -71.3917 -71.3917
   -41.4728 -41.4728 -41.4728 -41.4728 -41.4728 -41.4728 -41.4728 -41.4728
   -41.4728 -41.4728 -41.4728 -41.4728 -41.4728 -41.4728 -41.4728 -41.4728
   -41.4728 -41.4728 -41.4728 -41.4728 -41.4728 -41.4728 -41.4728 -41.4728
   -41.4727 -41.4727 -41.4727 -41.4727 -41.4727 -41.4727 -41.4727 -41.4727
   -41.4727 -41.4727 -41.4727 -41.4727 -41.4727 -41.4727 -41.4727 -41.4727
   -41.4727 -41.4727 -41.4727 -41.4727 -41.4727 -41.4727 -41.4727 -41.4726
    -0.7493  -0.7492  -0.7492  -0.7492  -0.5817  -0.5817  -0.5817  -0.5817
    -0.5617  -0.5617  -0.5617  -0.5617  -0.5270  -0.5270  -0.5270  -0.5270
    -0.5260  -0.5260  -0.5260  -0.5260  -0.5134  -0.5134  -0.5134  -0.5134
    -0.4900  -0.4900  -0.4900  -0.4900  -0.4861  -0.4861  -0.4861  -0.4861
    -0.4858  -0.4858  -0.4858  -0.4858  -0.4817  -0.4817  -0.4817  -0.4817
    -0.4816  -0.4816  -0.4816  -0.4816  -0.4496  -0.4495  -0.4495  -0.4495
    -0.3862  -0.3862  -0.3862  -0.3862  -0.3838  -0.3838  -0.3838  -0.3838
    -0.3737  -0.3737  -0.3737  -0.3737  -0.3709  -0.3709  -0.3709  -0.3708
    -0.3702  -0.3702  -0.3702  -0.3702  -0.3649  -0.3649  -0.3649  -0.3649
    -0.3383  -0.3383  -0.3383  -0.3383  -0.3138  -0.3138  -0.3138  -0.3138
    -0.3122  -0.3122  -0.3122  -0.3122  -0.0080  -0.0080  -0.0080  -0.0080
     0.7455   0.7455

          k = 0.2047 0.2047 0.2047 (103459 PWs)   bands (ev):

   -71.3918 -71.3918 -71.3918 -71.3918 -71.3918 -71.3918 -71.3918 -71.3918
   -71.3918 -71.3917 -71.3917 -71.3917 -71.3917 -71.3917 -71.3917 -71.3917
   -41.4728 -41.4728 -41.4728 -41.4728 -41.4728 -41.4728 -41.4728 -41.4728
   -41.4728 -41.4728 -41.4728 -41.4728 -41.4728 -41.4728 -41.4728 -41.4728
   -41.4728 -41.4728 -41.4728 -41.4728 -41.4728 -41.4727 -41.4727 -41.4727
   -41.4727 -41.4727 -41.4727 -41.4727 -41.4727 -41.4727 -41.4727 -41.4727
   -41.4727 -41.4727 -41.4727 -41.4727 -41.4727 -41.4727 -41.4727 -41.4727
   -41.4727 -41.4727 -41.4727 -41.4727 -41.4727 -41.4727 -41.4727 -41.4727
    -0.8393  -0.6840  -0.6840  -0.6840  -0.6087  -0.6087  -0.6087  -0.5681
    -0.5530  -0.5529  -0.5529  -0.5341  -0.5341  -0.5341  -0.5261  -0.5261
    -0.5188  -0.5188  -0.5188  -0.5173  -0.5173  -0.5138  -0.5138  -0.5109
    -0.5096  -0.5096  -0.5096  -0.5084  -0.5084  -0.5084  -0.5057  -0.5057
    -0.5057  -0.4931  -0.4931  -0.4931  -0.4744  -0.4744  -0.4743  -0.4675
    -0.4663  -0.4662  -0.4662  -0.4621  -0.4621  -0.4555  -0.4555  -0.4555
    -0.3888  -0.3888  -0.3888  -0.3830  -0.3830  -0.3830  -0.3795  -0.3795
    -0.3753  -0.3753  -0.3730  -0.3730  -0.3730  -0.3728  -0.3728  -0.3728
    -0.3715  -0.3715  -0.3715  -0.3622  -0.3622  -0.3622  -0.3555  -0.3555
    -0.3529  -0.3304  -0.3304  -0.3259  -0.3259  -0.3259  -0.3251  -0.3251
    -0.3251  -0.2570  -0.2570  -0.2570  -0.1052  -0.1052  -0.1052   0.0746
     0.8113   0.8114

          k = 0.2047 0.2047-0.2632 (103470 PWs)   bands (ev):

   -71.3918 -71.3918 -71.3918 -71.3918 -71.3918 -71.3918 -71.3918 -71.3918
   -71.3918 -71.3918 -71.3917 -71.3917 -71.3917 -71.3917 -71.3917 -71.3917
   -41.4728 -41.4728 -41.4728 -41.4728 -41.4728 -41.4728 -41.4728 -41.4728
   -41.4728 -41.4728 -41.4728 -41.4728 -41.4728 -41.4728 -41.4728 -41.4728
   -41.4728 -41.4728 -41.4728 -41.4728 -41.4728 -41.4727 -41.4727 -41.4727
   -41.4727 -41.4727 -41.4727 -41.4727 -41.4727 -41.4727 -41.4727 -41.4727
   -41.4727 -41.4727 -41.4727 -41.4727 -41.4727 -41.4727 -41.4727 -41.4727
   -41.4727 -41.4727 -41.4727 -41.4727 -41.4727 -41.4727 -41.4726 -41.4726
    -0.7607  -0.7606  -0.6386  -0.6386  -0.6386  -0.6386  -0.5619  -0.5619
    -0.5598  -0.5598  -0.5356  -0.5356  -0.5356  -0.5356  -0.5309  -0.5309
    -0.5253  -0.5253  -0.5253  -0.5253  -0.5176  -0.5176  -0.5116  -0.5116
    -0.5115  -0.5115  -0.5051  -0.5051  -0.4959  -0.4959  -0.4956  -0.4956
    -0.4956  -0.4956  -0.4932  -0.4932  -0.4932  -0.4932  -0.4850  -0.4850
    -0.4797  -0.4797  -0.4695  -0.4695  -0.4695  -0.4695  -0.4577  -0.4577
    -0.3848  -0.3848  -0.3848  -0.3848  -0.3839  -0.3839  -0.3791  -0.3791
    -0.3754  -0.3754  -0.3740  -0.3740  -0.3728  -0.3728  -0.3728  -0.3728
    -0.3649  -0.3649  -0.3649  -0.3649  -0.3626  -0.3626  -0.3461  -0.3461
    -0.3414  -0.3414  -0.3268  -0.3268  -0.3268  -0.3268  -0.3255  -0.3255
    -0.3133  -0.3133  -0.1922  -0.1922  -0.1922  -0.1922  -0.0236  -0.0236
     0.8193   0.8193

          k = 0.2047-0.2632-0.2632 (103452 PWs)   bands (ev):

   -71.3918 -71.3918 -71.3918 -71.3918 -71.3918 -71.3918 -71.3918 -71.3918
   -71.3917 -71.3917 -71.3917 -71.3917 -71.3917 -71.3917 -71.3917 -71.3917
   -41.4728 -41.4728 -41.4728 -41.4728 -41.4728 -41.4728 -41.4728 -41.4728
   -41.4728 -41.4728 -41.4728 -41.4728 -41.4728 -41.4728 -41.4728 -41.4728
   -41.4728 -41.4728 -41.4728 -41.4727 -41.4727 -41.4727 -41.4727 -41.4727
   -41.4727 -41.4727 -41.4727 -41.4727 -41.4727 -41.4727 -41.4727 -41.4727
   -41.4727 -41.4727 -41.4727 -41.4727 -41.4727 -41.4727 -41.4727 -41.4727
   -41.4727 -41.4727 -41.4727 -41.4727 -41.4726 -41.4726 -41.4726 -41.4726
    -0.6944  -0.6944  -0.6944  -0.6944  -0.5910  -0.5910  -0.5910  -0.5910
    -0.5468  -0.5468  -0.5468  -0.5468  -0.5244  -0.5244  -0.5244  -0.5244
    -0.5183  -0.5183  -0.5183  -0.5183  -0.5172  -0.5172  -0.5171  -0.5171
    -0.5158  -0.5158  -0.5158  -0.5158  -0.5078  -0.5078  -0.5078  -0.5078
    -0.4971  -0.4971  -0.4971  -0.4971  -0.4881  -0.4881  -0.4881  -0.4881
    -0.4854  -0.4854  -0.4854  -0.4854  -0.4676  -0.4675  -0.4675  -0.4675
    -0.3824  -0.3824  -0.3824  -0.3824  -0.3810  -0.3810  -0.3810  -0.3810
    -0.3757  -0.3757  -0.3757  -0.3757  -0.3741  -0.3741  -0.3741  -0.3741
    -0.3580  -0.3580  -0.3580  -0.3580  -0.3520  -0.3520  -0.3520  -0.3520
    -0.3383  -0.3383  -0.3383  -0.3383  -0.3276  -0.3276  -0.3275  -0.3275
    -0.2627  -0.2627  -0.2627  -0.2627  -0.1176  -0.1175  -0.1175  -0.1175
     0.8404   0.8404

          k =-0.2632-0.2632-0.2632 (103384 PWs)   bands (ev):

   -71.3918 -71.3918 -71.3918 -71.3918 -71.3918 -71.3917 -71.3917 -71.3917
   -71.3917 -71.3917 -71.3917 -71.3917 -71.3917 -71.3917 -71.3917 -71.3917
   -41.4728 -41.4728 -41.4728 -41.4728 -41.4728 -41.4728 -41.4728 -41.4728
   -41.4728 -41.4728 -41.4728 -41.4728 -41.4728 -41.4728 -41.4728 -41.4728
   -41.4727 -41.4727 -41.4727 -41.4727 -41.4727 -41.4727 -41.4727 -41.4727
   -41.4727 -41.4727 -41.4727 -41.4727 -41.4727 -41.4727 -41.4727 -41.4727
   -41.4727 -41.4727 -41.4727 -41.4727 -41.4727 -41.4727 -41.4727 -41.4727
   -41.4727 -41.4727 -41.4727 -41.4727 -41.4727 -41.4727 -41.4727 -41.4727
    -0.6344  -0.6344  -0.6344  -0.6344  -0.6344  -0.6344  -0.6344  -0.6344
    -0.5295  -0.5295  -0.5295  -0.5295  -0.5295  -0.5295  -0.5295  -0.5295
    -0.5219  -0.5219  -0.5219  -0.5219  -0.5219  -0.5219  -0.5219  -0.5219
    -0.5219  -0.5219  -0.5219  -0.5219  -0.5219  -0.5219  -0.5219  -0.5219
    -0.4863  -0.4863  -0.4863  -0.4863  -0.4863  -0.4863  -0.4863  -0.4863
    -0.4863  -0.4863  -0.4863  -0.4863  -0.4863  -0.4863  -0.4863  -0.4863
    -0.3782  -0.3782  -0.3782  -0.3782  -0.3782  -0.3782  -0.3782  -0.3782
    -0.3782  -0.3782  -0.3782  -0.3782  -0.3782  -0.3782  -0.3782  -0.3782
    -0.3429  -0.3429  -0.3429  -0.3429  -0.3429  -0.3429  -0.3429  -0.3429
    -0.3429  -0.3429  -0.3429  -0.3429  -0.3429  -0.3429  -0.3429  -0.3429
    -0.2003  -0.2003  -0.2003  -0.2003  -0.2003  -0.2003  -0.2003  -0.2003
     0.8936   0.8936

     the Fermi energy is    -0.1778 ev

!    total energy              =   -6897.64682046 Ry

     total all-electron energy =   -144985.841990 Ry
     estimated scf accuracy    <       0.00000061 Ry
     smearing contrib. (-TS)   =      -0.51654264 Ry
     internal energy E=F+TS    =   -6897.13027782 Ry

     The total energy is F=E-TS. E is the sum of the following terms:
     one-electron contribution =   -2554.61481642 Ry
     hartree contribution      =    1283.24893055 Ry
     xc contribution           =    -458.47688925 Ry
     ewald contribution        =   -1372.86358594 Ry
     one-center paw contrib.   =   -3794.42391677 Ry

     convergence has been achieved in  27 iterations

     Forces acting on atoms (cartesian axes, Ry/au):

     atom    1 type  1   force =     0.00000000    0.00000000    0.00000000
     atom    2 type  1   force =    -0.00001939   -0.00001939   -0.00001939
     atom    3 type  1   force =     0.00000000    0.00000000    0.00000000
     atom    4 type  1   force =    -0.00001939   -0.00001939    0.00001939
     atom    5 type  1   force =     0.00000000    0.00000000    0.00000000
     atom    6 type  1   force =    -0.00001939    0.00001939   -0.00001939
     atom    7 type  1   force =     0.00000000    0.00000000    0.00000000
     atom    8 type  1   force =    -0.00001939    0.00001939    0.00001939
     atom    9 type  1   force =     0.00000000    0.00000000    0.00000000
     atom   10 type  1   force =     0.00001939   -0.00001939   -0.00001939
     atom   11 type  1   force =     0.00000000    0.00000000    0.00000000
     atom   12 type  1   force =     0.00001939   -0.00001939    0.00001939
     atom   13 type  1   force =     0.00000000    0.00000000    0.00000000
     atom   14 type  1   force =     0.00001939    0.00001939   -0.00001939
     atom   15 type  1   force =     0.00000000    0.00000000    0.00000000
     atom   16 type  1   force =     0.00001939    0.00001939    0.00001939

     Total force =     0.000095     Total SCF correction =     0.000620
     SCF correction compared to forces is large: reduce conv_thr to get better values


     Computing stress (Cartesian axis) and pressure

          total   stress  (Ry/bohr**3)                   (kbar)     P=      -22.46
  -0.00015269   0.00000000   0.00000000          -22.46        0.00        0.00
   0.00000000  -0.00015269   0.00000000            0.00      -22.46        0.00
   0.00000000   0.00000000  -0.00015269            0.00        0.00      -22.46


     Writing output data file /scratch/bYcGKzpQOiYRKMUa.save/
 
     init_run     :     11.21s CPU     11.50s WALL (       1 calls)
     electrons    :    851.11s CPU    872.70s WALL (       1 calls)
     forces       :      3.78s CPU      4.02s WALL (       1 calls)
     stress       :     82.16s CPU     82.97s WALL (       1 calls)

     Called by init_run:
     wfcinit      :      9.95s CPU     10.19s WALL (       1 calls)
     potinit      :      0.20s CPU      0.20s WALL (       1 calls)
     hinit0       :      0.20s CPU      0.20s WALL (       1 calls)

     Called by electrons:
     c_bands      :    745.09s CPU    756.03s WALL (      27 calls)
     sum_band     :     98.37s CPU    104.67s WALL (      27 calls)
     v_of_rho     :      1.63s CPU      1.68s WALL (      28 calls)
     newd         :      3.07s CPU      6.96s WALL (      28 calls)
     PAW_pot      :      1.78s CPU      2.07s WALL (      28 calls)
     mix_rho      :      0.80s CPU      0.85s WALL (      27 calls)

     Called by c_bands:
     init_us_2    :      6.31s CPU      6.42s WALL (    1995 calls)
     cegterg      :    720.52s CPU    731.10s WALL (     945 calls)

     Called by *egterg:
     cdiaghg      :     50.49s CPU     51.06s WALL (    3322 calls)
     h_psi        :    401.47s CPU    407.95s WALL (    3357 calls)
     s_psi        :     27.03s CPU     27.24s WALL (    3357 calls)
     g_psi        :      2.00s CPU      2.02s WALL (    2377 calls)

     Called by h_psi:
     h_psi:calbec :     38.37s CPU     38.70s WALL (    3357 calls)
     vloc_psi     :    335.18s CPU    341.03s WALL (    3357 calls)
     add_vuspsi   :     23.89s CPU     24.13s WALL (    3357 calls)

     General routines
     calbec       :     57.27s CPU     57.82s WALL (    4477 calls)
     fft          :      1.89s CPU      1.91s WALL (     387 calls)
     ffts         :      0.25s CPU      0.33s WALL (      55 calls)
     fftw         :    390.65s CPU    397.34s WALL (  823506 calls)
     interpolate  :      0.33s CPU      0.33s WALL (      28 calls)
 
     Parallel routines
     fft_scatt_xy :     31.65s CPU     32.09s WALL (  823948 calls)
     fft_scatt_yz :    298.99s CPU    304.65s WALL (  823948 calls)
 
     PWSCF        :  15m58.32s CPU  16m25.00s WALL

 
   This run was terminated on:   0:53:12  26Nov2021            

=------------------------------------------------------------------------------=
   JOB DONE.
=------------------------------------------------------------------------------=
