
     Program PWSCF v.6.7MaX starts on 25Nov2021 at 23:40:49 

     This program is part of the open-source Quantum ESPRESSO suite
     for quantum simulation of materials; please cite
         "P. Giannozzi et al., J. Phys.:Condens. Matter 21 395502 (2009);
         "P. Giannozzi et al., J. Phys.:Condens. Matter 29 465901 (2017);
          URL http://www.quantum-espresso.org", 
     in publications or presentations arising from this work. More details at
     http://www.quantum-espresso.org/quote

     Parallel version (MPI & OpenMP), running on      72 processor cores
     Number of MPI processes:                72
     Threads/MPI process:                     1

     MPI processes distributed on     1 nodes
     R & G space division:  proc/nbgrp/npool/nimage =      72
     Reading input from bcc_1.in
Warning: card &CELL ignored
Warning: card CELL_DYNAMICS = 'BFGS', ignored
Warning: card CELL_FACTOR = 2.0, ignored
Warning: card PRESS = 0.0, ignored
Warning: card / ignored

     Current dimensions of program PWSCF are:
     Max number of different atomic species (ntypx) = 10
     Max number of k-points (npk) =  40000
     Max angular momentum in pseudopotentials (lmaxx) =  3
     file Ru.pbe-spn-kjpaw_psl.1.0.0.UPF: wavefunction(s)  4D renormalized

     Subspace diagonalization in iterative solution of the eigenvalue problem:
     one sub-group per band group will be used
     ELPA distributed-memory algorithm (size of sub-group:  8*  8 procs)

     Found symmetry operation: I + (  0.2500  0.2500  0.2500)
     This is a supercell, fractional translations are disabled
     Message from routine setup:
     using ibrav=0 with symmetry is DISCOURAGED, use correct ibrav instead
 
     Parallelization info
     --------------------
     sticks:   dense  smooth     PW     G-vecs:    dense   smooth      PW
     Min          62      41     11                 3124     1673     245
     Max          63      42     12                 3129     1677     252
     Sum        4477    2957    829               225055   120665   17845
 


     bravais-lattice index     =            0
     lattice parameter (alat)  =      11.4293  a.u.
     unit-cell volume          =    1492.9890 (a.u.)^3
     number of atoms/cell      =           16
     number of atomic types    =            1
     number of electrons       =       256.00
     number of Kohn-Sham states=          154
     kinetic-energy cutoff     =      71.0000  Ry
     charge density cutoff     =     430.0000  Ry
     scf convergence threshold =      1.0E-06
     mixing beta               =       0.1000
     number of iterations used =           10  TF        mixing
     Exchange-correlation= SLA  PW   PBX  PBC
                           (   1   4   3   4   0   0   0)

     celldm(1)=  11.429280  celldm(2)=   0.000000  celldm(3)=   0.000000
     celldm(4)=   0.000000  celldm(5)=   0.000000  celldm(6)=   0.000000

     crystal axes: (cart. coord. in units of alat)
               a(1) = (   1.000000   0.000000   0.000000 )  
               a(2) = (   0.000000   1.000000   0.000000 )  
               a(3) = (   0.000000   0.000000   1.000000 )  

     reciprocal axes: (cart. coord. in units 2 pi/alat)
               b(1) = (  1.000000  0.000000  0.000000 )  
               b(2) = (  0.000000  1.000000  0.000000 )  
               b(3) = (  0.000000  0.000000  1.000000 )  


     PseudoPot. # 1 for Ru read from file:
     /rds/homes/b/bxp912/pp/Ru.pbe-spn-kjpaw_psl.1.0.0.UPF
     MD5 check sum: 0ae1f594dea09af7be8575c3a481d1ae
     Pseudo is Projector augmented-wave + core cor, Zval = 16.0
     Generated using "atomic" code by A. Dal Corso  v.5.1
     Shape of augmentation charge: PSQ
     Using radial grid of 1233 points,  6 beta functions with: 
                l(1) =   0
                l(2) =   0
                l(3) =   1
                l(4) =   1
                l(5) =   2
                l(6) =   2
     Q(r) pseudized with 0 coefficients 


     atomic species   valence    mass     pseudopotential
        Ru            16.00   101.07000     Ru( 1.00)

     48 Sym. Ops., with inversion, found



   Cartesian axes

     site n.     atom                  positions (alat units)
         1           Ru  tau(   1) = (   0.0000000   0.0000000   0.0000000  )
         2           Ru  tau(   2) = (   0.2500000   0.2500000   0.2500000  )
         3           Ru  tau(   3) = (   0.0000000   0.0000000   0.5000000  )
         4           Ru  tau(   4) = (   0.2500000   0.2500000   0.7500000  )
         5           Ru  tau(   5) = (   0.0000000   0.5000000   0.0000000  )
         6           Ru  tau(   6) = (   0.2500000   0.7500000   0.2500000  )
         7           Ru  tau(   7) = (   0.0000000   0.5000000   0.5000000  )
         8           Ru  tau(   8) = (   0.2500000   0.7500000   0.7500000  )
         9           Ru  tau(   9) = (   0.5000000   0.0000000   0.0000000  )
        10           Ru  tau(  10) = (   0.7500000   0.2500000   0.2500000  )
        11           Ru  tau(  11) = (   0.5000000   0.0000000   0.5000000  )
        12           Ru  tau(  12) = (   0.7500000   0.2500000   0.7500000  )
        13           Ru  tau(  13) = (   0.5000000   0.5000000   0.0000000  )
        14           Ru  tau(  14) = (   0.7500000   0.7500000   0.2500000  )
        15           Ru  tau(  15) = (   0.5000000   0.5000000   0.5000000  )
        16           Ru  tau(  16) = (   0.7500000   0.7500000   0.7500000  )

     number of k points=    35  Marzari-Vanderbilt smearing, width (Ry)=  0.0400
                       cart. coord. in units 2pi/alat
        k(    1) = (   0.0555556   0.0555556   0.0555556), wk =   0.0219479
        k(    2) = (   0.0555556   0.0555556   0.1666667), wk =   0.0658436
        k(    3) = (   0.0555556   0.0555556   0.2777778), wk =   0.0658436
        k(    4) = (   0.0555556   0.0555556   0.3888889), wk =   0.0658436
        k(    5) = (   0.0555556   0.0555556  -0.5000000), wk =   0.0329218
        k(    6) = (   0.0555556   0.1666667   0.1666667), wk =   0.0658436
        k(    7) = (   0.0555556   0.1666667   0.2777778), wk =   0.1316872
        k(    8) = (   0.0555556   0.1666667   0.3888889), wk =   0.1316872
        k(    9) = (   0.0555556   0.1666667  -0.5000000), wk =   0.0658436
        k(   10) = (   0.0555556   0.2777778   0.2777778), wk =   0.0658436
        k(   11) = (   0.0555556   0.2777778   0.3888889), wk =   0.1316872
        k(   12) = (   0.0555556   0.2777778  -0.5000000), wk =   0.0658436
        k(   13) = (   0.0555556   0.3888889   0.3888889), wk =   0.0658436
        k(   14) = (   0.0555556   0.3888889  -0.5000000), wk =   0.0658436
        k(   15) = (   0.0555556  -0.5000000  -0.5000000), wk =   0.0164609
        k(   16) = (   0.1666667   0.1666667   0.1666667), wk =   0.0219479
        k(   17) = (   0.1666667   0.1666667   0.2777778), wk =   0.0658436
        k(   18) = (   0.1666667   0.1666667   0.3888889), wk =   0.0658436
        k(   19) = (   0.1666667   0.1666667  -0.5000000), wk =   0.0329218
        k(   20) = (   0.1666667   0.2777778   0.2777778), wk =   0.0658436
        k(   21) = (   0.1666667   0.2777778   0.3888889), wk =   0.1316872
        k(   22) = (   0.1666667   0.2777778  -0.5000000), wk =   0.0658436
        k(   23) = (   0.1666667   0.3888889   0.3888889), wk =   0.0658436
        k(   24) = (   0.1666667   0.3888889  -0.5000000), wk =   0.0658436
        k(   25) = (   0.1666667  -0.5000000  -0.5000000), wk =   0.0164609
        k(   26) = (   0.2777778   0.2777778   0.2777778), wk =   0.0219479
        k(   27) = (   0.2777778   0.2777778   0.3888889), wk =   0.0658436
        k(   28) = (   0.2777778   0.2777778  -0.5000000), wk =   0.0329218
        k(   29) = (   0.2777778   0.3888889   0.3888889), wk =   0.0658436
        k(   30) = (   0.2777778   0.3888889  -0.5000000), wk =   0.0658436
        k(   31) = (   0.2777778  -0.5000000  -0.5000000), wk =   0.0164609
        k(   32) = (   0.3888889   0.3888889   0.3888889), wk =   0.0219479
        k(   33) = (   0.3888889   0.3888889  -0.5000000), wk =   0.0329218
        k(   34) = (   0.3888889  -0.5000000  -0.5000000), wk =   0.0164609
        k(   35) = (  -0.5000000  -0.5000000  -0.5000000), wk =   0.0027435

     Dense  grid:   225055 G-vectors     FFT dimensions: (  75,  75,  75)

     Smooth grid:   120665 G-vectors     FFT dimensions: (  64,  64,  64)

     Estimated max dynamical RAM per process >      33.67 MB

     Estimated total dynamical RAM >       2.37 GB

     Check: negative core charge=   -0.000002

     Initial potential from superposition of free atoms

     starting charge  255.98980, renormalised to  256.00000
     Starting wfcs are  160 randomized atomic wfcs
     Checking if some PAW data can be deallocated... 

     total cpu time spent up to now is        5.7 secs

     Self-consistent Calculation

     iteration #  1     ecut=    71.00 Ry     beta= 0.10
     Davidson diagonalization with overlap
     ethr =  1.00E-02,  avg # of iterations =  3.4

     Threshold (ethr) on eigenvalues was too large:
     Diagonalizing with lowered threshold

     Davidson diagonalization with overlap
     ethr =  6.29E-05,  avg # of iterations =  4.4

     total cpu time spent up to now is       38.7 secs

     total energy              =   -6906.10745828 Ry
     estimated scf accuracy    <       0.23619017 Ry

     iteration #  2     ecut=    71.00 Ry     beta= 0.10
     Davidson diagonalization with overlap
     ethr =  9.23E-05,  avg # of iterations =  1.0

     total cpu time spent up to now is       49.1 secs

     total energy              =   -6906.00790457 Ry
     estimated scf accuracy    <       0.18715200 Ry

     iteration #  3     ecut=    71.00 Ry     beta= 0.10
     Davidson diagonalization with overlap
     ethr =  7.31E-05,  avg # of iterations =  2.4

     total cpu time spent up to now is       61.7 secs

     total energy              =   -6906.05161934 Ry
     estimated scf accuracy    <       0.00611398 Ry

     iteration #  4     ecut=    71.00 Ry     beta= 0.10
     Davidson diagonalization with overlap
     ethr =  2.39E-06,  avg # of iterations =  2.3

     total cpu time spent up to now is       71.9 secs

     total energy              =   -6906.05312844 Ry
     estimated scf accuracy    <       0.00361972 Ry

     iteration #  5     ecut=    71.00 Ry     beta= 0.10
     Davidson diagonalization with overlap
     ethr =  1.41E-06,  avg # of iterations =  2.9

     total cpu time spent up to now is       86.0 secs

     total energy              =   -6906.05117974 Ry
     estimated scf accuracy    <       0.00504167 Ry

     iteration #  6     ecut=    71.00 Ry     beta= 0.10
     Davidson diagonalization with overlap
     ethr =  1.41E-06,  avg # of iterations =  2.9

     total cpu time spent up to now is       97.3 secs

     total energy              =   -6906.05273554 Ry
     estimated scf accuracy    <       0.00009458 Ry

     iteration #  7     ecut=    71.00 Ry     beta= 0.10
     Davidson diagonalization with overlap
     ethr =  3.69E-08,  avg # of iterations =  3.1

     total cpu time spent up to now is      113.2 secs

     total energy              =   -6906.05275137 Ry
     estimated scf accuracy    <       0.00007867 Ry

     iteration #  8     ecut=    71.00 Ry     beta= 0.10
     Davidson diagonalization with overlap
     ethr =  3.07E-08,  avg # of iterations =  1.0

     total cpu time spent up to now is      120.9 secs

     total energy              =   -6906.05271935 Ry
     estimated scf accuracy    <       0.00008593 Ry

     iteration #  9     ecut=    71.00 Ry     beta= 0.10
     Davidson diagonalization with overlap
     ethr =  3.07E-08,  avg # of iterations =  1.0

     total cpu time spent up to now is      127.8 secs

     total energy              =   -6906.05273228 Ry
     estimated scf accuracy    <       0.00004596 Ry

     iteration # 10     ecut=    71.00 Ry     beta= 0.10
     Davidson diagonalization with overlap
     ethr =  1.80E-08,  avg # of iterations =  1.0

     total cpu time spent up to now is      135.8 secs

     total energy              =   -6906.05266903 Ry
     estimated scf accuracy    <       0.00006279 Ry

     iteration # 11     ecut=    71.00 Ry     beta= 0.10
     Davidson diagonalization with overlap
     ethr =  1.80E-08,  avg # of iterations =  2.9

     total cpu time spent up to now is      146.9 secs

     total energy              =   -6906.05268570 Ry
     estimated scf accuracy    <       0.00000155 Ry

     iteration # 12     ecut=    71.00 Ry     beta= 0.10
     Davidson diagonalization with overlap
     ethr =  6.06E-10,  avg # of iterations =  2.5

     total cpu time spent up to now is      153.1 secs

     total energy              =   -6906.05268611 Ry
     estimated scf accuracy    <       0.00000147 Ry

     iteration # 13     ecut=    71.00 Ry     beta= 0.10
     Davidson diagonalization with overlap
     ethr =  5.75E-10,  avg # of iterations =  1.1

     total cpu time spent up to now is      160.8 secs

     total energy              =   -6906.05268527 Ry
     estimated scf accuracy    <       0.00000168 Ry

     iteration # 14     ecut=    71.00 Ry     beta= 0.10
     Davidson diagonalization with overlap
     ethr =  5.75E-10,  avg # of iterations =  2.0

     total cpu time spent up to now is      170.7 secs

     End of self-consistent calculation

          k = 0.0556 0.0556 0.0556 ( 15128 PWs)   bands (ev):

   -49.7985 -49.6461 -49.6461 -49.6461 -49.6206 -49.6206 -49.6206 -49.6190
   -49.6190 -49.6190 -49.6182 -49.6182 -49.6182 -49.6067 -49.6065 -49.4896
   -20.2150 -20.2150 -20.2150 -20.2099 -20.2099 -20.2099 -19.9202 -19.9202
   -19.9090 -19.7952 -19.7858 -19.7858 -19.7858 -19.7520 -19.7520 -19.7245
   -19.7245 -19.7245 -19.6635 -19.6635 -19.6197 -19.5850 -19.5850 -19.5850
   -19.5648 -19.5648 -19.5648 -19.5394 -19.5394 -19.5394 -19.5338 -19.5338
   -19.5338 -19.5220 -19.5220 -19.5220 -19.5030 -19.5030 -19.5030 -19.2136
   -19.2113 -19.2113 -19.2113 -19.2058 -19.2058 -19.2058 -19.2016 -19.2016
    15.3733  17.0402  17.0402  17.1379  17.1379  17.1379  17.1500  17.1500
    17.1500  18.5857  18.5857  18.5857  18.7491  18.7491  18.7491  18.7697
    18.7697  18.7697  18.7911  18.7911  18.7911  19.2136  19.3644  19.3644
    19.3644  19.3785  19.3785  19.6772  19.6772  19.8056  19.8651  19.8651
    19.8651  20.4997  20.4997  20.5689  21.0847  21.0847  21.0847  21.2238
    21.2238  21.2238  21.3720  21.3720  21.3720  21.5115  21.5115  21.5115
    22.5121  22.5121  22.5121  22.9102  22.9102  22.9102  23.2149  23.2149
    23.2149  23.2385  23.2385  23.2385  23.2542  23.2542  23.3406  23.3406
    23.3406  23.7328  23.7328  23.7328  23.8203  23.8203  23.8204  23.8204
    24.3046  24.3046  24.3046  24.7917  24.7917  24.7917  24.9512  24.9512
    24.9512  25.0268  25.1773  25.1773  25.5339  25.5339  25.5339  25.9131
    25.9131  25.9131

          k = 0.0556 0.0556 0.1667 ( 15120 PWs)   bands (ev):

   -49.7931 -49.6735 -49.6449 -49.6449 -49.6237 -49.6237 -49.6197 -49.6186
   -49.6186 -49.6174 -49.6166 -49.6166 -49.6077 -49.6071 -49.5931 -49.4936
   -20.2012 -20.2012 -20.1995 -20.1949 -20.1860 -20.1860 -19.9263 -19.9089
   -19.8915 -19.8596 -19.8402 -19.8402 -19.8392 -19.8357 -19.7812 -19.7812
   -19.7235 -19.6747 -19.6536 -19.6475 -19.6263 -19.5845 -19.5845 -19.5766
   -19.5525 -19.5505 -19.5460 -19.5460 -19.5439 -19.5294 -19.5294 -19.5228
   -19.5228 -19.5151 -19.5151 -19.4605 -19.4553 -19.4553 -19.4428 -19.2408
   -19.2277 -19.2277 -19.2255 -19.2209 -19.2120 -19.2112 -19.2112 -19.2062
    15.5094  17.1101  17.1495  17.2032  17.2032  17.2390  17.2390  17.2598
    17.2702  18.2044  18.5363  18.5363  18.7352  18.7352  18.7471  18.7669
    18.7955  18.8150  18.8150  18.8767  18.8767  18.8870  19.0043  19.1473
    19.3082  19.3853  19.3853  19.4878  19.8104  19.8104  20.0461  20.0676
    20.3452  20.4635  20.4966  20.6605  20.7613  20.7613  20.8532  21.0268
    21.0268  21.0459  21.4825  21.4825  21.6688  21.6688  21.7213  21.8789
    22.1342  22.6737  22.6737  22.9000  22.9000  23.0158  23.0158  23.1183
    23.1183  23.1221  23.1825  23.2485  23.2613  23.2932  23.2932  23.3056
    23.3184  23.3766  23.3766  23.6621  23.7383  23.7801  23.7804  23.8154
    23.8162  24.2534  24.4722  24.4722  24.5223  24.7037  24.9154  24.9694
    24.9694  25.1611  25.2261  25.2261  25.6085  25.6085  25.7355  25.7355
    26.0376  26.0376

          k = 0.0556 0.0556 0.2778 ( 15084 PWs)   bands (ev):

   -49.7826 -49.7002 -49.6426 -49.6426 -49.6274 -49.6274 -49.6182 -49.6179
   -49.6179 -49.6160 -49.6159 -49.6159 -49.6093 -49.6083 -49.5690 -49.5015
   -20.1693 -20.1693 -20.1690 -20.1654 -20.1444 -20.1444 -19.9324 -19.9282
   -19.9225 -19.9135 -19.9135 -19.8867 -19.8737 -19.8659 -19.8587 -19.8587
   -19.7075 -19.6957 -19.6855 -19.6647 -19.5808 -19.5808 -19.5760 -19.5712
   -19.5628 -19.5534 -19.5534 -19.5262 -19.5262 -19.5228 -19.5228 -19.4938
   -19.4795 -19.4531 -19.4531 -19.4021 -19.3966 -19.3966 -19.3858 -19.2855
   -19.2546 -19.2546 -19.2534 -19.2506 -19.2326 -19.2277 -19.2277 -19.2233
    15.7750  17.2492  17.3429  17.3429  17.3587  17.4011  17.4011  17.4947
    17.5010  17.7066  18.3680  18.3680  18.4490  18.5227  18.5227  18.6226
    18.7480  18.7674  18.8045  18.9655  18.9655  18.9783  19.0247  19.0675
    19.0675  19.2124  19.5949  19.5949  19.9040  19.9040  20.3588  20.3588
    20.4449  20.4775  20.4855  20.4948  20.5783  20.5783  20.5994  20.6767
    20.7942  21.1635  21.7849  21.8745  21.8745  21.9306  21.9306  21.9530
    21.9530  22.1387  22.3106  22.3106  22.3173  22.7599  22.8685  22.9033
    22.9565  22.9565  23.1716  23.1716  23.3126  23.3447  23.4055  23.4084
    23.4084  23.7061  23.7079  23.7250  23.7485  23.7958  23.7958  23.8059
    23.8098  23.9392  24.2010  24.2414  24.4681  24.6776  24.6776  25.0032
    25.0032  25.0189  25.3216  25.3216  25.4836  25.4836  25.7428  25.7428
    26.0943  26.0943

          k = 0.0556 0.0556 0.3889 ( 15085 PWs)   bands (ev):

   -49.7674 -49.7254 -49.6394 -49.6394 -49.6315 -49.6315 -49.6171 -49.6171
   -49.6161 -49.6159 -49.6159 -49.6142 -49.6114 -49.6101 -49.5473 -49.5132
   -20.1246 -20.1225 -20.1213 -20.1213 -20.0873 -20.0873 -20.0035 -19.9994
   -19.9891 -19.9891 -19.9401 -19.9401 -19.9256 -19.9003 -19.8541 -19.8319
   -19.7631 -19.7406 -19.6648 -19.6434 -19.5995 -19.5881 -19.5753 -19.5753
   -19.5611 -19.5611 -19.5242 -19.5242 -19.5227 -19.5227 -19.4957 -19.4177
   -19.4097 -19.3924 -19.3924 -19.3488 -19.3455 -19.3411 -19.3411 -19.3338
   -19.2944 -19.2943 -19.2916 -19.2916 -19.2628 -19.2552 -19.2552 -19.2512
    16.1556  17.1612  17.4559  17.5500  17.5500  17.6288  17.6288  17.6482
    17.8214  17.8241  18.0601  18.1003  18.1003  18.2204  18.2204  18.3310
    18.5507  18.6374  18.7603  18.7831  18.8641  18.9621  19.1957  19.1957
    19.3364  19.3364  19.8395  19.8395  19.9118  19.9118  20.2203  20.2203
    20.3658  20.3659  20.4483  20.5025  20.5546  20.5752  20.9737  20.9806
    20.9926  21.2440  21.2440  21.4716  21.5566  21.5566  21.6036  22.1677
    22.2066  22.2198  22.2198  22.2806  22.2806  22.5124  22.6202  22.7470
    22.7470  22.8169  22.9484  22.9484  23.4006  23.4189  23.5486  23.6094
    23.6147  23.7047  23.7622  23.7928  23.8048  23.8363  23.9237  23.9237
    23.9273  23.9445  24.1156  24.3011  24.3011  24.6715  24.6715  24.7818
    25.0485  25.0485  25.1199  25.1199  25.2353  25.2353  25.9059  25.9059
    26.1227  26.1227

          k = 0.0556 0.0556-0.5000 ( 15080 PWs)   bands (ev):

   -49.7480 -49.7480 -49.6356 -49.6356 -49.6356 -49.6355 -49.6164 -49.6164
   -49.6163 -49.6163 -49.6138 -49.6138 -49.6121 -49.6121 -49.5286 -49.5286
   -20.0679 -20.0679 -20.0675 -20.0675 -20.0600 -20.0600 -20.0600 -20.0600
   -20.0179 -20.0179 -20.0179 -20.0179 -19.9170 -19.9170 -19.8125 -19.8125
   -19.7899 -19.7899 -19.6317 -19.6317 -19.6163 -19.6163 -19.5685 -19.5685
   -19.5685 -19.5685 -19.5231 -19.5231 -19.5231 -19.5231 -19.4172 -19.4172
   -19.3505 -19.3505 -19.3471 -19.3471 -19.3380 -19.3380 -19.3380 -19.3379
   -19.3019 -19.3019 -19.2933 -19.2933 -19.2933 -19.2933 -19.2885 -19.2885
    16.6288  16.6288  17.7274  17.7274  17.8109  17.8109  17.8109  17.8109
    17.9091  17.9091  17.9091  17.9091  17.9870  17.9870  18.1945  18.1945
    18.2188  18.2188  18.7951  18.7951  18.8342  18.8342  19.4967  19.4967
    19.4967  19.4967  19.6697  19.6697  19.6697  19.6697  20.4815  20.4815
    20.5284  20.5284  20.6048  20.6048  20.6048  20.6048  20.8842  20.8842
    20.8842  20.8842  21.2000  21.2000  21.5597  21.5597  21.5602  21.5602
    22.0795  22.0795  22.4980  22.4980  22.4980  22.4980  22.6482  22.6482
    22.6482  22.6482  23.1509  23.1509  23.3623  23.3623  23.5033  23.5033
    23.5140  23.5140  23.7292  23.7292  23.7776  23.7776  23.8082  23.8082
    24.3816  24.3816  24.3816  24.3816  24.4739  24.4739  24.7570  24.7570
    24.7570  24.7570  25.1082  25.1082  25.1082  25.1082  26.0508  26.0508
    26.0508  26.0508

          k = 0.0556 0.1667 0.1667 ( 15093 PWs)   bands (ev):

   -49.7879 -49.6714 -49.6714 -49.6437 -49.6314 -49.6228 -49.6228 -49.6183
   -49.6160 -49.6160 -49.6105 -49.6091 -49.6072 -49.5935 -49.5935 -49.4974
   -20.1976 -20.1863 -20.1863 -20.1725 -20.1725 -20.1524 -19.9384 -19.9021
   -19.9004 -19.8870 -19.8870 -19.8740 -19.8652 -19.8641 -19.8185 -19.7420
   -19.7119 -19.7119 -19.6550 -19.6459 -19.6459 -19.5951 -19.5755 -19.5755
   -19.5635 -19.5587 -19.5587 -19.5416 -19.5393 -19.5393 -19.5306 -19.5141
   -19.5024 -19.4752 -19.4626 -19.4626 -19.4203 -19.3978 -19.3978 -19.2777
   -19.2543 -19.2389 -19.2389 -19.2252 -19.2252 -19.2206 -19.2055 -19.2017
    15.6419  17.1961  17.2381  17.2408  17.3241  17.3241  17.3440  17.3554
    17.3554  18.1831  18.1831  18.5281  18.7204  18.7204  18.7522  18.8100
    18.8100  18.8170  18.8392  18.8683  18.8683  18.9946  18.9946  19.0040
    19.0237  19.3035  19.3407  19.6022  19.6767  20.0891  20.1212  20.1804
    20.1804  20.3740  20.4794  20.5568  20.5568  20.7188  20.8150  20.9016
    21.3500  21.3500  21.3979  21.3979  21.5532  21.7367  21.9341  21.9341
    22.1231  22.5182  22.5182  22.5499  22.5499  22.9013  22.9013  22.9085
    23.0341  23.0997  23.1479  23.1479  23.1996  23.2658  23.3021  23.3021
    23.5316  23.6622  23.6826  23.6910  23.6910  23.7518  23.7522  23.7984
    23.8011  24.0636  24.0636  24.2953  24.5019  24.5019  24.6181  24.6181
    24.7252  25.0203  25.2128  25.4273  25.5878  25.7265  26.4278  26.4278
    26.4611  26.4611

          k = 0.0556 0.1667 0.2778 ( 15083 PWs)   bands (ev):

   -49.7776 -49.6974 -49.6676 -49.6414 -49.6395 -49.6265 -49.6211 -49.6176
   -49.6153 -49.6147 -49.6111 -49.6081 -49.6053 -49.5944 -49.5702 -49.5050
   -20.1759 -20.1572 -20.1563 -20.1463 -20.1338 -20.1018 -19.9548 -19.9522
   -19.9498 -19.9292 -19.9289 -19.9211 -19.8808 -19.8786 -19.8298 -19.7920
   -19.7214 -19.7048 -19.6476 -19.6386 -19.6350 -19.6346 -19.5984 -19.5826
   -19.5812 -19.5682 -19.5578 -19.5367 -19.5347 -19.5118 -19.5004 -19.4749
   -19.4662 -19.4450 -19.4249 -19.4056 -19.3750 -19.3444 -19.3440 -19.3313
   -19.2906 -19.2613 -19.2610 -19.2528 -19.2405 -19.2386 -19.2109 -19.2083
    15.8993  17.3358  17.3409  17.4448  17.4599  17.5121  17.5126  17.5559
    17.5760  17.7264  18.0937  18.4163  18.4479  18.5211  18.6038  18.6457
    18.7126  18.8064  18.8215  18.8616  18.9477  18.9521  19.0448  19.2016
    19.2529  19.2766  19.3912  19.4162  19.6431  20.0526  20.2951  20.3118
    20.3379  20.3771  20.4001  20.4648  20.4675  20.5030  20.6277  20.8749
    21.0114  21.4903  21.5101  21.7360  21.8507  21.8656  21.8657  21.9627
    22.0266  22.1548  22.1725  22.2619  22.2905  22.4814  22.4937  22.7024
    22.9060  22.9892  23.0214  23.1486  23.2169  23.2706  23.2957  23.3402
    23.5923  23.6747  23.6779  23.7876  23.7902  23.8005  23.8600  23.8682
    23.9144  24.0821  24.1605  24.1784  24.1978  24.2474  24.3001  24.4609
    24.7534  25.0591  25.1331  25.1781  25.5884  25.9455  26.2117  26.6635
    26.8755  26.9604

          k = 0.0556 0.1667 0.3889 ( 15087 PWs)   bands (ev):

   -49.7628 -49.7219 -49.6620 -49.6476 -49.6383 -49.6305 -49.6189 -49.6167
   -49.6153 -49.6136 -49.6131 -49.6095 -49.6013 -49.5959 -49.5492 -49.5163
   -20.1378 -20.1147 -20.1117 -20.1086 -20.0808 -20.0368 -20.0234 -20.0079
   -19.9974 -19.9928 -19.9556 -19.9479 -19.9430 -19.8773 -19.8490 -19.7893
   -19.7595 -19.6908 -19.6883 -19.6316 -19.6278 -19.6147 -19.5983 -19.5949
   -19.5821 -19.5782 -19.5542 -19.5358 -19.5357 -19.4888 -19.4717 -19.4479
   -19.4070 -19.3977 -19.3884 -19.3750 -19.3535 -19.3357 -19.3307 -19.2971
   -19.2954 -19.2944 -19.2933 -19.2915 -19.2698 -19.2609 -19.2278 -19.2273
    16.2663  17.2203  17.5029  17.5350  17.6599  17.7337  17.7339  17.7341
    17.8730  17.8767  17.9203  18.1041  18.1822  18.2652  18.3149  18.4143
    18.4567  18.5893  18.8165  18.8782  18.9827  19.1365  19.1461  19.1631
    19.2804  19.5575  19.5883  19.6249  19.6827  19.7214  20.2477  20.2767
    20.4084  20.4285  20.4620  20.4693  20.4805  20.5482  20.8023  20.8384
    20.8485  21.2028  21.2438  21.4569  21.7284  21.8095  21.8279  21.8348
    21.9023  22.1562  22.1875  22.2491  22.2520  22.3021  22.5021  22.5950
    22.7339  22.7808  22.9241  23.0316  23.2397  23.3200  23.3668  23.4860
    23.5410  23.5657  23.5773  23.7801  23.7849  23.7993  23.8162  23.8945
    23.9401  23.9686  24.0695  24.2057  24.2779  24.4028  24.4494  24.6481
    24.6590  24.6932  25.0234  25.3261  25.3997  25.9136  26.2275  26.7489
    26.9309  27.1792

          k = 0.0556 0.1667-0.5000 ( 15080 PWs)   bands (ev):

   -49.7440 -49.7440 -49.6553 -49.6553 -49.6345 -49.6345 -49.6163 -49.6162
   -49.6159 -49.6159 -49.6112 -49.6112 -49.5982 -49.5981 -49.5312 -49.5312
   -20.0858 -20.0858 -20.0615 -20.0615 -20.0607 -20.0607 -20.0556 -20.0556
   -20.0173 -20.0173 -19.9606 -19.9606 -19.9540 -19.9540 -19.8081 -19.8081
   -19.7427 -19.7427 -19.6513 -19.6513 -19.6141 -19.6141 -19.6082 -19.6082
   -19.5876 -19.5876 -19.5357 -19.5357 -19.4793 -19.4793 -19.4735 -19.4735
   -19.3886 -19.3886 -19.3454 -19.3454 -19.3373 -19.3373 -19.3299 -19.3299
   -19.3078 -19.3078 -19.2919 -19.2919 -19.2575 -19.2575 -19.2561 -19.2561
    16.7183  16.7183  17.7066  17.7066  17.7933  17.7933  17.9101  17.9101
    17.9926  17.9926  18.0087  18.0087  18.0718  18.0718  18.1926  18.1926
    18.2467  18.2467  18.8613  18.8613  18.9567  18.9567  19.3987  19.3987
    19.4165  19.4165  19.5248  19.5248  19.9041  19.9041  20.2397  20.2397
    20.2752  20.2752  20.4689  20.4689  20.6521  20.6521  20.8471  20.8471
    21.0527  21.0527  21.3238  21.3238  21.3299  21.3299  21.5125  21.5125
    22.2190  22.2190  22.3171  22.3171  22.5304  22.5304  22.6186  22.6186
    22.6957  22.6957  22.7072  22.7072  23.2417  23.2417  23.4419  23.4419
    23.4679  23.4679  23.6727  23.6727  23.7845  23.7845  23.8615  23.8615
    23.9925  23.9925  24.1742  24.1742  24.3724  24.3724  24.4941  24.4941
    24.7715  24.7715  25.0785  25.0785  25.5999  25.5999  26.5162  26.5162
    27.1389  27.1389

          k = 0.0556 0.2778 0.2778 ( 15075 PWs)   bands (ev):

   -49.7679 -49.6920 -49.6920 -49.6518 -49.6392 -49.6247 -49.6247 -49.6168
   -49.6142 -49.6142 -49.6135 -49.6086 -49.5960 -49.5726 -49.5726 -49.5121
   -20.1647 -20.1310 -20.1310 -20.1132 -20.1132 -20.0434 -19.9822 -19.9822
   -19.9800 -19.9724 -19.9599 -19.9576 -19.9155 -19.8609 -19.7863 -19.7231
   -19.7160 -19.7160 -19.6943 -19.6943 -19.6390 -19.6142 -19.6086 -19.5955
   -19.5955 -19.5709 -19.5709 -19.5559 -19.5559 -19.5467 -19.4768 -19.4316
   -19.4128 -19.4128 -19.4033 -19.3946 -19.3875 -19.3453 -19.3349 -19.2972
   -19.2972 -19.2746 -19.2746 -19.2602 -19.2602 -19.2590 -19.2049 -19.2021
    16.1391  17.3915  17.4770  17.6374  17.6681  17.6806  17.6806  17.7181
    17.7181  17.7318  17.7318  18.3660  18.3660  18.4248  18.5204  18.6407
    18.6713  18.9367  18.9367  18.9654  18.9654  19.0129  19.0178  19.0178
    19.2376  19.2855  19.4692  19.4802  19.5185  19.9935  19.9935  20.1468
    20.3434  20.3905  20.4150  20.4150  20.4420  20.4845  20.5741  20.9539
    21.2385  21.2385  21.2799  21.6649  21.6649  21.8557  21.8557  21.9309
    21.9309  22.0232  22.1111  22.2196  22.2196  22.2449  22.4705  22.6370
    22.6370  22.8965  23.0649  23.0649  23.1599  23.1599  23.1822  23.2500
    23.2924  23.5953  23.5972  23.5981  23.7860  23.8043  23.8048  23.9087
    23.9849  23.9905  23.9905  24.0808  24.0808  24.3284  24.3284  24.5401
    24.5401  24.6298  25.2800  25.4031  25.6469  26.2979  27.0362  27.0362
    27.7220  27.7220

          k = 0.0556 0.2778 0.3889 ( 15083 PWs)   bands (ev):

   -49.7538 -49.7151 -49.6843 -49.6637 -49.6361 -49.6285 -49.6222 -49.6163
   -49.6159 -49.6143 -49.6127 -49.6097 -49.5880 -49.5764 -49.5531 -49.5226
   -20.1371 -20.0948 -20.0933 -20.0845 -20.0688 -20.0423 -20.0139 -20.0021
   -20.0016 -19.9961 -19.9893 -19.9717 -19.9641 -19.8309 -19.8035 -19.7461
   -19.7377 -19.7021 -19.6784 -19.6347 -19.6341 -19.6307 -19.6291 -19.6258
   -19.6204 -19.6080 -19.5802 -19.5558 -19.5536 -19.5060 -19.4691 -19.4559
   -19.4237 -19.3863 -19.3811 -19.3642 -19.3621 -19.3512 -19.3163 -19.2960
   -19.2939 -19.2920 -19.2862 -19.2730 -19.2579 -19.2572 -19.2105 -19.2089
    16.4758  17.3138  17.4830  17.6592  17.6867  17.8527  17.8606  17.9222
    17.9257  17.9737  17.9803  18.1290  18.2245  18.2949  18.4001  18.4508
    18.5113  18.6300  18.9429  19.0235  19.1204  19.1576  19.1642  19.2048
    19.3152  19.3165  19.3492  19.4209  19.6599  19.8556  19.9538  20.0341
    20.3912  20.4257  20.4412  20.4702  20.4982  20.5574  20.6070  20.6191
    20.7397  21.0858  21.2308  21.3517  21.4139  21.5796  21.6254  21.6682
    22.1448  22.1758  22.2676  22.2966  22.3203  22.3488  22.3553  22.5362
    22.6943  22.7188  22.8633  22.9384  23.0055  23.1457  23.1836  23.2349
    23.3864  23.4325  23.4728  23.4813  23.6549  23.7949  23.7990  23.8358
    23.8709  23.9547  23.9667  24.0461  24.0595  24.1191  24.1710  24.3303
    24.8580  24.9719  25.2542  25.5524  25.7899  26.6601  26.7232  27.4990
    27.8894  28.0694

          k = 0.0556 0.2778-0.5000 ( 15094 PWs)   bands (ev):

   -49.7360 -49.7360 -49.6747 -49.6747 -49.6325 -49.6325 -49.6193 -49.6193
   -49.6150 -49.6150 -49.6111 -49.6111 -49.5815 -49.5815 -49.5363 -49.5363
   -20.0953 -20.0953 -20.0505 -20.0505 -20.0502 -20.0502 -20.0483 -20.0483
   -20.0173 -20.0173 -19.9979 -19.9979 -19.8904 -19.8904 -19.7921 -19.7921
   -19.6851 -19.6851 -19.6684 -19.6684 -19.6583 -19.6583 -19.6173 -19.6173
   -19.6052 -19.6052 -19.5559 -19.5559 -19.5504 -19.5504 -19.4438 -19.4438
   -19.4382 -19.4382 -19.3331 -19.3331 -19.3255 -19.3255 -19.3216 -19.3216
   -19.3195 -19.3195 -19.2917 -19.2917 -19.2279 -19.2279 -19.2279 -19.2279
    16.8803  16.8803  17.5927  17.5927  17.8813  17.8813  18.0459  18.0459
    18.0787  18.0787  18.1763  18.1763  18.2283  18.2283  18.2710  18.2710
    18.2777  18.2777  19.0099  19.0099  19.1168  19.1168  19.3115  19.3115
    19.3453  19.3453  19.3762  19.3762  19.8270  19.8270  19.9676  19.9676
    20.2815  20.2815  20.4287  20.4287  20.6471  20.6471  20.7241  20.7241
    20.9516  20.9516  20.9774  20.9774  21.0303  21.0303  21.9071  21.9071
    22.1585  22.1585  22.1971  22.1971  22.4414  22.4414  22.6206  22.6206
    22.6470  22.6470  22.7207  22.7207  22.9553  22.9553  23.3277  23.3277
    23.3518  23.3518  23.5700  23.5700  23.6312  23.6312  23.8182  23.8182
    23.8476  23.8476  23.9104  23.9104  24.0326  24.0326  24.2457  24.2457
    25.1054  25.1054  25.3206  25.3206  26.2302  26.2302  27.1460  27.1460
    28.2966  28.2966

          k = 0.0556 0.3889 0.3889 ( 15060 PWs)   bands (ev):

   -49.7409 -49.7054 -49.7054 -49.6791 -49.6332 -49.6259 -49.6259 -49.6195
   -49.6148 -49.6130 -49.6130 -49.6105 -49.5765 -49.5589 -49.5589 -49.5318
   -20.1202 -20.0686 -20.0686 -20.0534 -20.0534 -20.0466 -20.0466 -20.0236
   -20.0178 -20.0177 -20.0173 -19.9887 -19.8949 -19.8034 -19.7256 -19.7256
   -19.7216 -19.7216 -19.6978 -19.6822 -19.6688 -19.6432 -19.6432 -19.6398
   -19.6175 -19.5798 -19.5797 -19.5684 -19.5652 -19.5652 -19.5500 -19.4423
   -19.4264 -19.3801 -19.3801 -19.3491 -19.3367 -19.3291 -19.3104 -19.3038
   -19.3014 -19.3014 -19.2921 -19.2921 -19.2280 -19.2280 -19.2042 -19.2028
    16.7597  17.4022  17.4022  17.4753  17.8042  17.9661  18.1049  18.1049
    18.1122  18.1122  18.1387  18.1387  18.2214  18.3320  18.3639  18.4346
    18.4771  18.9747  18.9747  19.1096  19.1096  19.1720  19.1720  19.2154
    19.2444  19.2563  19.3208  19.3521  19.6635  19.6635  19.8572  19.8974
    20.2272  20.4179  20.4233  20.4424  20.4847  20.5243  20.5466  20.5466
    20.8840  20.8840  20.9107  20.9107  21.1477  21.1477  21.2457  21.9450
    22.1423  22.1901  22.3358  22.3358  22.4838  22.4838  22.5180  22.5474
    22.7406  22.7406  22.7795  22.9540  22.9988  22.9988  23.0202  23.0301
    23.0301  23.3338  23.3385  23.3392  23.4993  23.6707  23.6707  23.7001
    23.8197  23.8738  23.9238  23.9238  23.9598  24.0829  24.0888  24.0888
    25.2126  25.2126  25.3709  25.5745  26.3395  27.2776  27.4309  27.4309
    28.2766  28.2766

          k = 0.0556 0.3889-0.5000 ( 15078 PWs)   bands (ev):

   -49.7246 -49.7246 -49.6932 -49.6932 -49.6296 -49.6296 -49.6228 -49.6228
   -49.6138 -49.6138 -49.6117 -49.6117 -49.5667 -49.5667 -49.5440 -49.5440
   -20.0891 -20.0891 -20.0414 -20.0414 -20.0411 -20.0411 -20.0378 -20.0378
   -20.0374 -20.0374 -20.0198 -20.0198 -19.8102 -19.8102 -19.7678 -19.7678
   -19.6996 -19.6996 -19.6759 -19.6759 -19.6474 -19.6474 -19.6358 -19.6358
   -19.6243 -19.6243 -19.6018 -19.6018 -19.5768 -19.5768 -19.5023 -19.5023
   -19.4010 -19.4010 -19.3420 -19.3420 -19.3181 -19.3181 -19.3158 -19.3158
   -19.3123 -19.3123 -19.2956 -19.2956 -19.2099 -19.2099 -19.2094 -19.2094
    17.0822  17.0822  17.4559  17.4559  17.9615  17.9615  18.0565  18.0565
    18.2448  18.2448  18.2965  18.2965  18.3127  18.3127  18.3279  18.3279
    18.5854  18.5854  19.1722  19.1722  19.2406  19.2406  19.2427  19.2427
    19.2529  19.2529  19.4111  19.4111  19.4273  19.4273  19.7310  19.7310
    20.4612  20.4612  20.5410  20.5410  20.5685  20.5685  20.5981  20.5981
    20.6546  20.6546  20.6610  20.6610  20.8303  20.8304  21.6197  21.6197
    22.2065  22.2065  22.3305  22.3305  22.6325  22.6325  22.6734  22.6734
    22.7768  22.7768  22.7779  22.7779  22.7781  22.7781  23.1664  23.1664
    23.1766  23.1766  23.2208  23.2208  23.4525  23.4525  23.5423  23.5423
    23.8585  23.8585  23.9483  23.9483  23.9515  23.9515  24.0838  24.0838
    25.3535  25.3535  25.4595  25.4595  26.9031  26.9031  27.8158  27.8158
    28.1884  28.1884

          k = 0.0556-0.5000-0.5000 ( 15084 PWs)   bands (ev):

   -49.7101 -49.7101 -49.7101 -49.7101 -49.6263 -49.6263 -49.6263 -49.6263
   -49.6126 -49.6126 -49.6126 -49.6126 -49.5542 -49.5542 -49.5542 -49.5542
   -20.0692 -20.0692 -20.0692 -20.0692 -20.0380 -20.0380 -20.0380 -20.0380
   -20.0265 -20.0265 -20.0265 -20.0265 -19.7365 -19.7365 -19.7365 -19.7365
   -19.7239 -19.7239 -19.7239 -19.7239 -19.6688 -19.6688 -19.6688 -19.6688
   -19.5930 -19.5930 -19.5930 -19.5930 -19.5629 -19.5629 -19.5629 -19.5629
   -19.3686 -19.3686 -19.3686 -19.3686 -19.3109 -19.3109 -19.3109 -19.3109
   -19.3047 -19.3047 -19.3047 -19.3047 -19.2035 -19.2035 -19.2035 -19.2035
    17.2839  17.2839  17.2839  17.2839  18.0244  18.0244  18.0244  18.0244
    18.3218  18.3218  18.3218  18.3218  18.3585  18.3585  18.3585  18.3585
    18.9800  18.9800  18.9800  18.9800  19.2486  19.2486  19.2486  19.2486
    19.2556  19.2556  19.2556  19.2556  19.5477  19.5477  19.5477  19.5477
    20.4438  20.4438  20.4438  20.4438  20.5186  20.5186  20.5186  20.5186
    20.6024  20.6024  20.6024  20.6024  21.1139  21.1139  21.1139  21.1139
    22.3621  22.3621  22.3621  22.3621  22.7557  22.7557  22.7557  22.7557
    22.8250  22.8250  22.8250  22.8250  22.9711  22.9711  22.9711  22.9711
    22.9733  22.9733  22.9733  22.9733  23.4092  23.4092  23.4092  23.4092
    23.9000  23.9000  23.9000  23.9000  23.9955  23.9955  23.9955  23.9955
    25.4742  25.4742  25.4742  25.4742  27.5685  27.5685  27.5685  27.5685
    28.4627  28.4627

          k = 0.1667 0.1667 0.1667 ( 15099 PWs)   bands (ev):

   -49.7828 -49.6695 -49.6695 -49.6695 -49.6303 -49.6303 -49.6303 -49.6116
   -49.6100 -49.6100 -49.6100 -49.6062 -49.5939 -49.5939 -49.5939 -49.5011
   -20.1823 -20.1823 -20.1823 -20.1414 -20.1414 -20.1414 -19.9359 -19.9269
   -19.9269 -19.9168 -19.9168 -19.9168 -19.8298 -19.8278 -19.8278 -19.7518
   -19.7518 -19.7518 -19.6592 -19.6592 -19.6592 -19.5796 -19.5796 -19.5796
   -19.5696 -19.5696 -19.5316 -19.5316 -19.5316 -19.5221 -19.5221 -19.5221
   -19.4674 -19.4674 -19.4674 -19.4570 -19.3685 -19.3685 -19.3685 -19.3152
   -19.2611 -19.2611 -19.2611 -19.2203 -19.2203 -19.2203 -19.2125 -19.2125
    15.7715  17.3062  17.3062  17.3619  17.3619  17.3619  17.4555  17.4555
    17.4555  18.1883  18.1883  18.1883  18.6523  18.8226  18.8226  18.8226
    18.8332  18.8332  18.8332  18.9098  18.9098  18.9098  19.0047  19.0047
    19.0047  19.1388  19.1388  19.9218  19.9218  19.9766  19.9766  19.9766
    20.0987  20.3608  20.3608  20.5226  20.5226  20.5227  20.9921  21.0959
    21.0959  21.0959  21.5278  21.5278  21.5278  22.0265  22.0265  22.0265
    22.0392  22.0392  22.0392  22.8499  22.8499  22.8499  22.8574  22.8574
    22.8574  22.9704  22.9704  22.9704  23.1590  23.1590  23.3295  23.3295
    23.3295  23.6889  23.6889  23.6889  23.7522  23.7522  23.7568  23.7568
    23.8219  23.8691  23.8691  23.8691  24.4988  24.4988  24.4988  24.9530
    24.9530  24.9783  24.9783  24.9783  26.0594  26.0594  26.0594  26.6069
    26.6069  26.6069

          k = 0.1667 0.1667 0.2778 ( 15090 PWs)   bands (ev):

   -49.7728 -49.6947 -49.6657 -49.6657 -49.6382 -49.6382 -49.6282 -49.6148
   -49.6092 -49.6059 -49.6051 -49.6051 -49.5947 -49.5947 -49.5713 -49.5085
   -20.1615 -20.1615 -20.1524 -20.1202 -20.0944 -20.0944 -19.9739 -19.9661
   -19.9661 -19.9474 -19.9461 -19.9097 -19.9041 -19.8156 -19.8156 -19.7897
   -19.7863 -19.7206 -19.6767 -19.6616 -19.6616 -19.6093 -19.6009 -19.6009
   -19.5881 -19.5832 -19.5365 -19.5073 -19.5073 -19.4883 -19.4776 -19.4776
   -19.4726 -19.4726 -19.4101 -19.4076 -19.3712 -19.3293 -19.3293 -19.3215
   -19.2912 -19.2912 -19.2751 -19.2496 -19.2336 -19.2245 -19.2245 -19.2131
    16.0227  17.4359  17.4645  17.4645  17.5163  17.6000  17.6200  17.6200
    17.6632  17.7638  18.1422  18.1422  18.5168  18.5291  18.6456  18.6456
    18.7163  18.8261  18.9366  18.9366  18.9837  18.9937  19.0499  19.1371
    19.1371  19.2106  19.2106  19.6432  19.8253  19.8253  20.1580  20.2349
    20.2502  20.2929  20.3381  20.3430  20.3694  20.3694  20.7523  20.7523
    21.2265  21.3642  21.4277  21.4277  21.6857  21.8221  21.8724  21.8724
    22.1562  22.1562  22.2356  22.2356  22.2894  22.4351  22.4989  22.7830
    22.7830  22.9542  23.0834  23.1917  23.1917  23.2720  23.2807  23.2906
    23.3083  23.3083  23.6674  23.6709  23.7002  23.7486  23.7768  23.7832
    23.7832  24.1286  24.1636  24.1636  24.2085  24.4813  24.5068  24.5068
    24.5110  25.0355  25.0981  25.0981  25.6514  25.6514  26.8827  26.9127
    26.9127  27.6253

          k = 0.1667 0.1667 0.3889 ( 15082 PWs)   bands (ev):

   -49.7583 -49.7185 -49.6603 -49.6603 -49.6461 -49.6461 -49.6254 -49.6183
   -49.6082 -49.6063 -49.6012 -49.6012 -49.5962 -49.5961 -49.5511 -49.5193
   -20.1257 -20.1257 -20.1086 -20.0903 -20.0341 -20.0341 -20.0228 -20.0228
   -20.0140 -19.9854 -19.9624 -19.9613 -19.8894 -19.8894 -19.8707 -19.7775
   -19.7447 -19.7413 -19.6540 -19.6540 -19.6492 -19.6432 -19.6214 -19.6214
   -19.5969 -19.5827 -19.5545 -19.4953 -19.4953 -19.4784 -19.4784 -19.4397
   -19.4236 -19.4236 -19.4135 -19.3661 -19.3529 -19.3288 -19.3288 -19.2973
   -19.2924 -19.2918 -19.2918 -19.2809 -19.2647 -19.2379 -19.2379 -19.2254
    16.3789  17.2905  17.6219  17.6219  17.6277  17.8053  17.8400  17.8400
    17.9312  17.9329  18.0061  18.0061  18.1811  18.3801  18.3801  18.3821
    18.4650  18.7309  18.8272  18.8996  18.9960  19.1149  19.1149  19.3331
    19.4626  19.4626  19.4801  19.4801  19.6207  19.6207  20.1797  20.2185
    20.2412  20.3108  20.4279  20.4279  20.4765  20.4765  20.5946  20.7010
    20.8336  20.8336  21.4981  21.5099  21.5226  21.5226  21.6661  21.7369
    21.9817  22.1412  22.2764  22.2764  22.2835  22.2835  22.5997  22.5997
    22.6692  22.7270  22.9054  22.9742  22.9742  23.2297  23.3594  23.4297
    23.5404  23.5680  23.7092  23.7092  23.7143  23.7405  23.8280  23.8510
    23.8900  23.8900  23.9800  24.1401  24.4970  24.4970  24.5267  24.5807
    24.5807  24.9734  25.0204  25.0204  25.2285  25.2285  27.2632  27.2632
    27.7114  27.7114

          k = 0.1667 0.1667-0.5000 ( 15044 PWs)   bands (ev):

   -49.7400 -49.7400 -49.6536 -49.6536 -49.6536 -49.6536 -49.6220 -49.6219
   -49.6071 -49.6071 -49.5983 -49.5982 -49.5982 -49.5982 -49.5336 -49.5336
   -20.0780 -20.0780 -20.0780 -20.0779 -20.0538 -20.0538 -20.0524 -20.0524
   -19.9669 -19.9669 -19.9642 -19.9642 -19.9642 -19.9642 -19.8281 -19.8281
   -19.6957 -19.6957 -19.6945 -19.6945 -19.6397 -19.6397 -19.6397 -19.6397
   -19.5714 -19.5714 -19.5163 -19.5163 -19.4858 -19.4858 -19.4858 -19.4858
   -19.3734 -19.3734 -19.3733 -19.3733 -19.3476 -19.3476 -19.3278 -19.3278
   -19.3047 -19.3047 -19.2606 -19.2606 -19.2606 -19.2606 -19.2484 -19.2484
    16.8138  16.8138  17.8144  17.8144  17.8144  17.8144  17.8779  17.8779
    18.1008  18.1008  18.1008  18.1008  18.1386  18.1386  18.1926  18.1926
    18.3275  18.3275  18.8477  18.8477  19.0985  19.0985  19.3545  19.3545
    19.3545  19.3545  19.6592  19.6592  19.6592  19.6592  20.1652  20.1652
    20.2814  20.2814  20.3861  20.3861  20.3861  20.3861  20.9033  20.9033
    20.9033  20.9033  21.0887  21.0887  21.1202  21.1202  21.8042  21.8042
    22.2010  22.2010  22.3312  22.3312  22.4311  22.4311  22.4311  22.4311
    22.6588  22.6588  22.6588  22.6588  23.3887  23.3887  23.4299  23.4299
    23.4588  23.4588  23.6232  23.6232  23.7285  23.7285  23.9017  23.9017
    23.9017  23.9017  23.9364  23.9364  24.7928  24.7928  24.8018  24.8018
    24.8018  24.8018  24.8318  24.8318  24.8319  24.8319  27.5636  27.5636
    27.5636  27.5636

          k = 0.1667 0.2778 0.2778 ( 15086 PWs)   bands (ev):

   -49.7633 -49.6895 -49.6895 -49.6620 -49.6502 -49.6357 -49.6357 -49.6191
   -49.6047 -49.6047 -49.6046 -49.5961 -49.5954 -49.5736 -49.5736 -49.5152
   -20.1499 -20.1332 -20.1332 -20.0804 -20.0804 -20.0401 -19.9949 -19.9896
   -19.9885 -19.9885 -19.9603 -19.9262 -19.8984 -19.8582 -19.8062 -19.7430
   -19.7430 -19.7430 -19.7223 -19.7223 -19.6811 -19.6362 -19.6362 -19.6331
   -19.5564 -19.5319 -19.5319 -19.5194 -19.5194 -19.4810 -19.4807 -19.4575
   -19.4339 -19.4315 -19.4140 -19.4140 -19.3756 -19.3284 -19.3081 -19.2947
   -19.2947 -19.2895 -19.2895 -19.2512 -19.2512 -19.2466 -19.2193 -19.2134
    16.2601  17.5201  17.5898  17.6936  17.7009  17.7009  17.7757  17.8003
    17.8003  17.8162  17.8162  18.1817  18.4315  18.4934  18.4934  18.8086
    18.8708  18.9132  18.9132  18.9217  18.9217  18.9700  18.9995  19.1365
    19.1545  19.1545  19.4400  19.6484  19.7134  19.9072  19.9072  20.1221
    20.1349  20.2526  20.2590  20.2590  20.2706  20.2917  20.5700  20.9111
    20.9395  20.9395  21.2911  21.2911  21.5172  21.7567  21.7567  21.8894
    22.0053  22.0054  22.0638  22.3256  22.4575  22.4575  22.5949  22.7228
    22.9294  22.9294  22.9625  22.9720  22.9720  23.1373  23.1903  23.1903
    23.2226  23.6032  23.6100  23.6152  23.6375  23.7225  23.7328  23.7328
    23.7704  24.0703  24.0703  24.2013  24.2967  24.4632  24.4632  24.6114
    24.6114  24.6547  25.0226  25.1431  25.2450  26.4212  26.4212  27.3189
    27.9981  27.9981

          k = 0.1667 0.2778 0.3889 ( 15086 PWs)   bands (ev):

   -49.7496 -49.7119 -49.6819 -49.6618 -49.6568 -49.6433 -49.6323 -49.6236
   -49.6042 -49.6039 -49.6011 -49.5966 -49.5884 -49.5772 -49.5548 -49.5253
   -20.1233 -20.1023 -20.0922 -20.0613 -20.0376 -20.0296 -20.0241 -20.0167
   -19.9972 -19.9814 -19.9800 -19.9734 -19.9127 -19.8693 -19.8197 -19.7784
   -19.7757 -19.7107 -19.6930 -19.6866 -19.6813 -19.6640 -19.6635 -19.6603
   -19.5867 -19.5524 -19.5335 -19.5063 -19.5038 -19.4883 -19.4753 -19.4581
   -19.4246 -19.3985 -19.3911 -19.3721 -19.3605 -19.3450 -19.3205 -19.3040
   -19.2903 -19.2872 -19.2752 -19.2597 -19.2580 -19.2568 -19.2233 -19.2181
    16.5918  17.4046  17.6121  17.7707  17.7872  17.8445  17.9645  17.9779
    18.0257  18.0290  18.0543  18.1366  18.2441  18.3511  18.3628  18.5767
    18.6429  18.6939  18.9166  19.0448  19.0856  19.1384  19.1403  19.2088
    19.2776  19.3311  19.4850  19.4994  19.6134  19.7050  19.9195  20.0032
    20.2075  20.2311  20.3097  20.3156  20.3855  20.4047  20.4051  20.4863
    20.5317  20.7731  21.0744  21.1497  21.2155  21.2460  21.3165  21.8464
    22.1723  22.2391  22.3675  22.3685  22.4186  22.4639  22.4821  22.5930
    22.7746  22.7845  22.8579  22.9827  22.9830  23.1151  23.2647  23.3394
    23.4516  23.4859  23.4992  23.6305  23.7190  23.7200  23.7683  23.8080
    23.8212  23.8334  23.8366  24.0171  24.2358  24.3191  24.5934  24.6490
    24.7314  24.7716  24.9825  25.0297  25.2161  25.9391  27.2393  27.7745
    28.4009  28.4407

          k = 0.1667 0.2778-0.5000 ( 15084 PWs)   bands (ev):

   -49.7323 -49.7323 -49.6725 -49.6725 -49.6504 -49.6504 -49.6282 -49.6282
   -49.6039 -49.6039 -49.5985 -49.5985 -49.5821 -49.5821 -49.5386 -49.5386
   -20.0845 -20.0845 -20.0639 -20.0639 -20.0403 -20.0403 -20.0394 -20.0394
   -19.9937 -19.9937 -19.9720 -19.9720 -19.8985 -19.8985 -19.8282 -19.8282
   -19.7299 -19.7299 -19.6900 -19.6900 -19.6785 -19.6785 -19.6406 -19.6406
   -19.5829 -19.5829 -19.5455 -19.5455 -19.4964 -19.4964 -19.4393 -19.4393
   -19.4214 -19.4214 -19.3528 -19.3528 -19.3403 -19.3403 -19.3208 -19.3208
   -19.3138 -19.3138 -19.2701 -19.2701 -19.2369 -19.2369 -19.2327 -19.2327
    16.9870  16.9870  17.7139  17.7139  17.9919  17.9919  18.0052  18.0052
    18.1651  18.1651  18.2530  18.2530  18.2897  18.2897  18.3131  18.3131
    18.3899  18.3899  18.9450  18.9450  19.2443  19.2443  19.2957  19.2957
    19.3473  19.3473  19.3960  19.3960  19.6979  19.6979  19.9363  19.9363
    20.2003  20.2003  20.2060  20.2060  20.4239  20.4239  20.6272  20.6272
    20.7100  20.7100  20.7791  20.7792  20.7924  20.7924  21.6680  21.6680
    22.2049  22.2049  22.4069  22.4069  22.5226  22.5226  22.6269  22.6269
    22.6945  22.6945  22.7099  22.7099  23.3101  23.3101  23.3299  23.3299
    23.3762  23.3762  23.5329  23.5329  23.6871  23.6871  23.7183  23.7183
    23.8539  23.8539  23.9838  23.9838  24.1910  24.1910  24.4738  24.4738
    24.9307  24.9307  25.0439  25.0439  25.4436  25.4436  28.0555  28.0555
    28.1817  28.1817

          k = 0.1667 0.3889 0.3889 ( 15088 PWs)   bands (ev):

   -49.7370 -49.7025 -49.7025 -49.6768 -49.6519 -49.6393 -49.6393 -49.6291
   -49.6024 -49.6011 -49.6011 -49.5975 -49.5773 -49.5604 -49.5604 -49.5343
   -20.1061 -20.0697 -20.0697 -20.0382 -20.0382 -20.0313 -20.0246 -20.0246
   -20.0182 -20.0052 -19.9982 -19.9456 -19.9019 -19.8460 -19.7770 -19.7631
   -19.7631 -19.7421 -19.7421 -19.7105 -19.7059 -19.7059 -19.7026 -19.6389
   -19.5795 -19.5387 -19.5291 -19.5291 -19.5187 -19.5187 -19.4984 -19.4254
   -19.4205 -19.3759 -19.3759 -19.3642 -19.3602 -19.3285 -19.3162 -19.3162
   -19.2997 -19.2873 -19.2873 -19.2845 -19.2355 -19.2355 -19.2178 -19.2148
    16.8794  17.5170  17.5170  17.6106  17.9238  18.0861  18.1326  18.1326
    18.2285  18.2389  18.2389  18.2390  18.2390  18.2633  18.3763  18.5897
    18.6709  18.9751  18.9751  19.0759  19.0759  19.0837  19.1643  19.2344
    19.2516  19.2516  19.4046  19.4758  19.6333  19.6333  19.8268  19.8921
    20.0082  20.1567  20.1917  20.2026  20.2971  20.2971  20.3565  20.3910
    20.6515  20.6515  20.7162  20.7162  20.7806  20.7806  20.9261  21.6377
    22.2347  22.4301  22.5323  22.5323  22.5764  22.6816  22.6816  22.6834
    22.8409  22.9652  22.9899  22.9899  23.0761  23.0761  23.0853  23.0853
    23.3035  23.3694  23.3760  23.4622  23.5006  23.6595  23.6595  23.7276
    23.7698  23.7698  23.8437  23.8835  24.1215  24.2237  24.2469  24.2469
    24.9861  24.9861  25.1128  25.2699  25.5265  26.6920  26.6920  28.1638
    28.3346  29.2237

          k = 0.1667 0.3889-0.5000 ( 15090 PWs)   bands (ev):

   -49.7211 -49.7211 -49.6906 -49.6906 -49.6460 -49.6460 -49.6345 -49.6344
   -49.6015 -49.6015 -49.5990 -49.5990 -49.5679 -49.5679 -49.5460 -49.5460
   -20.0763 -20.0763 -20.0473 -20.0473 -20.0321 -20.0321 -20.0263 -20.0263
   -20.0206 -20.0206 -19.9844 -19.9844 -19.8233 -19.8233 -19.8091 -19.8091
   -19.7487 -19.7487 -19.7366 -19.7366 -19.7171 -19.7171 -19.6606 -19.6606
   -19.5839 -19.5839 -19.5296 -19.5295 -19.5079 -19.5079 -19.4731 -19.4731
   -19.3978 -19.3978 -19.3349 -19.3349 -19.3338 -19.3338 -19.3241 -19.3241
   -19.3187 -19.3187 -19.2849 -19.2849 -19.2219 -19.2219 -19.2203 -19.2203
    17.2029  17.2029  17.5874  17.5874  18.0848  18.0848  18.1827  18.1827
    18.2182  18.2182  18.3634  18.3634  18.4088  18.4088  18.4696  18.4696
    18.6156  18.6156  19.1197  19.1197  19.2253  19.2253  19.2652  19.2652
    19.3190  19.3190  19.4009  19.4009  19.4083  19.4083  19.7011  19.7011
    20.2213  20.2213  20.3227  20.3227  20.3339  20.3339  20.3645  20.3645
    20.3934  20.3934  20.4937  20.4937  20.5456  20.5456  21.1616  21.1616
    22.5125  22.5125  22.6327  22.6327  22.7468  22.7468  22.8025  22.8025
    22.8314  22.8314  22.8512  22.8512  23.0476  23.0476  23.2030  23.2030
    23.2170  23.2170  23.4296  23.4296  23.4978  23.4978  23.6429  23.6429
    23.7460  23.7460  23.8187  23.8187  24.0120  24.0120  24.2187  24.2187
    25.1058  25.1058  25.1852  25.1852  26.1137  26.1137  27.4435  27.4435
    28.8491  28.8491

          k = 0.1667-0.5000-0.5000 ( 15064 PWs)   bands (ev):

   -49.7070 -49.7070 -49.7070 -49.7070 -49.6405 -49.6405 -49.6405 -49.6405
   -49.5999 -49.5999 -49.5999 -49.5999 -49.5558 -49.5558 -49.5558 -49.5558
   -20.0558 -20.0558 -20.0558 -20.0558 -20.0345 -20.0345 -20.0345 -20.0345
   -20.0012 -20.0012 -20.0012 -20.0012 -19.7772 -19.7772 -19.7772 -19.7772
   -19.7438 -19.7438 -19.7438 -19.7438 -19.7424 -19.7424 -19.7424 -19.7424
   -19.5277 -19.5277 -19.5277 -19.5277 -19.5186 -19.5186 -19.5186 -19.5186
   -19.3623 -19.3623 -19.3623 -19.3623 -19.3232 -19.3232 -19.3232 -19.3232
   -19.3038 -19.3038 -19.3038 -19.3038 -19.2163 -19.2163 -19.2163 -19.2163
    17.4153  17.4153  17.4153  17.4153  18.1517  18.1517  18.1517  18.1517
    18.3636  18.3636  18.3636  18.3636  18.4791  18.4791  18.4791  18.4791
    19.0020  19.0020  19.0020  19.0020  19.2470  19.2470  19.2470  19.2470
    19.2560  19.2560  19.2560  19.2560  19.5190  19.5190  19.5190  19.5190
    20.1654  20.1655  20.1655  20.1655  20.3348  20.3348  20.3348  20.3348
    20.3711  20.3711  20.3711  20.3711  20.7161  20.7161  20.7161  20.7161
    22.7433  22.7433  22.7433  22.7433  22.8405  22.8405  22.8405  22.8405
    23.0214  23.0214  23.0214  23.0214  23.0521  23.0521  23.0521  23.0521
    23.1303  23.1303  23.1303  23.1303  23.3975  23.3975  23.3975  23.3975
    23.7832  23.7832  23.7832  23.7832  24.0714  24.0714  24.0714  24.0714
    25.2054  25.2054  25.2054  25.2054  26.7910  26.7910  26.7910  26.7910
    29.4802  29.4802

          k = 0.2778 0.2778 0.2778 ( 15081 PWs)   bands (ev):

   -49.7543 -49.6844 -49.6844 -49.6844 -49.6471 -49.6471 -49.6471 -49.6251
   -49.6014 -49.5963 -49.5963 -49.5963 -49.5757 -49.5757 -49.5757 -49.5215
   -20.1208 -20.1208 -20.1208 -20.0342 -20.0342 -20.0342 -20.0048 -20.0043
   -20.0043 -20.0043 -19.9366 -19.9366 -19.8855 -19.8855 -19.7905 -19.7905
   -19.7905 -19.7452 -19.7452 -19.7452 -19.6925 -19.6754 -19.6754 -19.6754
   -19.4903 -19.4876 -19.4876 -19.4876 -19.4832 -19.4832 -19.4832 -19.4779
   -19.4779 -19.4181 -19.4181 -19.4181 -19.3512 -19.3208 -19.3208 -19.3208
   -19.2773 -19.2773 -19.2773 -19.2475 -19.2475 -19.2475 -19.2356 -19.2356
    16.4915  17.7678  17.7678  17.7678  17.8043  17.8043  17.8982  17.8982
    17.8982  17.9702  17.9702  17.9702  18.3977  18.6900  18.6900  18.6900
    18.8536  18.8536  18.8536  18.9784  18.9784  18.9784  19.0346  19.0346
    19.3289  19.3289  19.3289  19.7772  19.7772  19.7772  19.8987  19.9715
    19.9715  20.0719  20.0719  20.0720  20.0768  20.0768  20.5919  20.5919
    20.5919  20.8203  20.8203  20.8203  21.3646  21.3646  21.3646  21.8517
    22.1552  22.2120  22.2120  22.2120  22.6513  22.6513  22.6513  22.8071
    22.8071  22.8071  23.0874  23.0874  23.1682  23.1682  23.1682  23.4111
    23.4111  23.4111  23.6130  23.6130  23.6130  23.6222  23.6222  23.6765
    23.6765  24.0830  24.0830  24.0830  24.4307  24.4307  24.4307  24.5893
    24.5893  24.7617  24.7617  24.7617  25.8568  25.8568  25.8568  28.4417
    28.4417  28.4417

          k = 0.2778 0.2778 0.3889 ( 15063 PWs)   bands (ev):

   -49.7413 -49.7057 -49.6772 -49.6772 -49.6581 -49.6581 -49.6426 -49.6313
   -49.5991 -49.5967 -49.5892 -49.5892 -49.5790 -49.5790 -49.5582 -49.5308
   -20.0964 -20.0964 -20.0784 -20.0311 -20.0311 -20.0268 -20.0122 -20.0048
   -19.9774 -19.9774 -19.9687 -19.9588 -19.9019 -19.8500 -19.8500 -19.8370
   -19.8046 -19.7500 -19.7500 -19.7276 -19.7155 -19.7102 -19.7102 -19.6401
   -19.5608 -19.5347 -19.4935 -19.4908 -19.4613 -19.4613 -19.4353 -19.4353
   -19.4268 -19.4268 -19.4057 -19.3607 -19.3530 -19.3530 -19.3324 -19.3173
   -19.2889 -19.2682 -19.2646 -19.2646 -19.2538 -19.2487 -19.2487 -19.2325
    16.8110  17.5600  17.8594  17.8594  17.9587  17.9587  17.9663  18.0963
    18.1143  18.1674  18.1674  18.1960  18.3924  18.4191  18.5916  18.5916
    18.7084  18.9033  18.9595  18.9765  19.1084  19.1084  19.1255  19.1255
    19.2655  19.4959  19.4959  19.5532  19.5532  19.6328  19.8717  19.9153
    19.9309  19.9588  20.0173  20.1049  20.1049  20.2339  20.2907  20.2907
    20.3498  20.3498  20.6753  20.7762  20.8206  20.8534  20.8534  21.6121
    22.2308  22.4280  22.4919  22.4919  22.7157  22.7157  22.7336  22.7336
    22.8969  23.0287  23.0287  23.0585  23.0585  23.0685  23.2541  23.2587
    23.4990  23.5193  23.6218  23.6218  23.6230  23.6292  23.6824  23.6824
    23.7137  23.8025  24.0761  24.2943  24.2943  24.3385  24.5181  24.5181
    24.6272  24.7383  24.7691  24.7691  25.3101  25.3101  26.6311  28.1636
    28.9220  28.9220

          k = 0.2778 0.2778-0.5000 ( 15080 PWs)   bands (ev):

   -49.7249 -49.7249 -49.6683 -49.6683 -49.6683 -49.6683 -49.6373 -49.6373
   -49.5977 -49.5977 -49.5834 -49.5834 -49.5834 -49.5834 -49.5431 -49.5431
   -20.0644 -20.0644 -20.0644 -20.0644 -20.0238 -20.0238 -20.0193 -20.0193
   -19.9923 -19.9923 -19.9144 -19.9144 -19.9144 -19.9144 -19.8574 -19.8574
   -19.7832 -19.7832 -19.7368 -19.7368 -19.7368 -19.7368 -19.6375 -19.6375
   -19.5872 -19.5872 -19.4956 -19.4956 -19.4411 -19.4411 -19.4411 -19.4411
   -19.3914 -19.3914 -19.3914 -19.3914 -19.3421 -19.3421 -19.3210 -19.3210
   -19.3103 -19.3103 -19.2546 -19.2546 -19.2546 -19.2546 -19.2386 -19.2386
    17.1829  17.1829  17.9388  17.9388  17.9388  17.9388  18.1739  18.1739
    18.3510  18.3510  18.3857  18.3857  18.3857  18.3857  18.4221  18.4221
    18.5213  18.5213  18.9549  18.9549  19.3068  19.3068  19.3068  19.3068
    19.3583  19.3583  19.4603  19.4603  19.4603  19.4603  19.8689  19.8689
    19.9489  19.9489  20.1242  20.1242  20.1242  20.1242  20.3281  20.3281
    20.3940  20.3940  20.3940  20.3940  20.4759  20.4759  21.1356  21.1356
    22.6402  22.6402  22.6683  22.6683  22.7150  22.7150  22.7150  22.7150
    22.7821  22.7821  22.7821  22.7821  23.3065  23.3065  23.3703  23.3703
    23.4644  23.4644  23.5537  23.5537  23.6293  23.6293  23.6836  23.6836
    23.6836  23.6836  24.0176  24.0176  24.6649  24.6649  24.6649  24.6649
    24.7429  24.7429  24.7712  24.7712  24.7712  24.7712  27.4102  27.4102
    29.3019  29.3019

          k = 0.2778 0.3889 0.3889 ( 15068 PWs)   bands (ev):

   -49.7294 -49.6967 -49.6967 -49.6723 -49.6706 -49.6528 -49.6528 -49.6390
   -49.5954 -49.5905 -49.5905 -49.5817 -49.5788 -49.5633 -49.5633 -49.5391
   -20.0782 -20.0580 -20.0580 -20.0294 -20.0241 -20.0241 -20.0033 -19.9840
   -19.9840 -19.9802 -19.9664 -19.9155 -19.8963 -19.8907 -19.8529 -19.8084
   -19.8084 -19.7792 -19.7792 -19.7783 -19.7642 -19.7642 -19.7546 -19.6298
   -19.5864 -19.4831 -19.4831 -19.4639 -19.4631 -19.4631 -19.4320 -19.4226
   -19.3968 -19.3913 -19.3802 -19.3709 -19.3709 -19.3371 -19.3371 -19.3263
   -19.2855 -19.2855 -19.2851 -19.2718 -19.2492 -19.2492 -19.2447 -19.2383
    17.1055  17.7265  17.7265  17.8733  18.1326  18.1517  18.1990  18.1990
    18.3107  18.3448  18.3976  18.3976  18.4652  18.4799  18.4799  18.8264
    18.8846  18.9298  18.9696  18.9696  19.0840  19.0840  19.1175  19.1968
    19.3396  19.3396  19.4775  19.5931  19.5931  19.6001  19.7003  19.7272
    19.7716  19.8777  19.8872  19.9292  19.9481  19.9481  20.0900  20.1146
    20.2756  20.2756  20.3473  20.3473  20.3667  20.3667  20.4672  21.0862
    22.6626  22.6626  22.6642  22.6943  22.7809  22.9304  22.9596  23.0325
    23.0326  23.0326  23.0522  23.0522  23.1326  23.1326  23.2320  23.4098
    23.4879  23.4978  23.4978  23.5001  23.5999  23.6162  23.6162  23.7037
    23.7211  23.7211  23.8290  23.8829  24.3521  24.3522  24.3522  24.6657
    24.6657  24.6874  24.7333  24.8268  24.8276  26.0324  26.0324  27.4773
    29.4906  30.1331

          k = 0.2778 0.3889-0.5000 ( 15064 PWs)   bands (ev):

   -49.7143 -49.7143 -49.6854 -49.6854 -49.6623 -49.6623 -49.6463 -49.6463
   -49.5925 -49.5925 -49.5855 -49.5855 -49.5702 -49.5702 -49.5499 -49.5499
   -20.0516 -20.0516 -20.0388 -20.0388 -20.0110 -20.0110 -20.0052 -20.0052
   -19.9931 -19.9931 -19.9371 -19.9371 -19.8588 -19.8588 -19.8478 -19.8478
   -19.8165 -19.8165 -19.7893 -19.7893 -19.7835 -19.7835 -19.7043 -19.7043
   -19.5337 -19.5337 -19.4627 -19.4627 -19.4431 -19.4431 -19.4348 -19.4348
   -19.3920 -19.3920 -19.3636 -19.3636 -19.3316 -19.3316 -19.3278 -19.3278
   -19.3226 -19.3226 -19.2794 -19.2794 -19.2453 -19.2453 -19.2409 -19.2409
    17.4296  17.4296  17.8395  17.8395  18.2211  18.2211  18.3183  18.3183
    18.4250  18.4250  18.5108  18.5108  18.5687  18.5687  18.6421  18.6421
    18.6756  18.6756  19.0923  19.0923  19.2259  19.2259  19.2840  19.2840
    19.3579  19.3579  19.3833  19.3833  19.3860  19.3860  19.6511  19.6511
    19.9009  19.9009  19.9378  19.9378  19.9915  19.9915  20.0002  20.0002
    20.0670  20.0670  20.1366  20.1366  20.1700  20.1700  20.6413  20.6413
    22.8399  22.8399  22.8922  22.8922  22.9097  22.9097  22.9244  22.9244
    23.0154  23.0154  23.1274  23.1274  23.2688  23.2688  23.3029  23.3029
    23.3861  23.3861  23.4634  23.4634  23.5046  23.5046  23.6079  23.6079
    23.6626  23.6626  24.0263  24.0263  24.1819  24.1819  24.3226  24.3226
    24.7219  24.7219  24.7731  24.7731  25.4275  25.4275  26.7640  26.7640
    29.9785  29.9785

          k = 0.2778-0.5000-0.5000 ( 15072 PWs)   bands (ev):

   -49.7009 -49.7009 -49.7009 -49.7009 -49.6548 -49.6548 -49.6548 -49.6548
   -49.5885 -49.5885 -49.5885 -49.5885 -49.5590 -49.5590 -49.5590 -49.5590
   -20.0293 -20.0293 -20.0293 -20.0293 -20.0163 -20.0163 -20.0163 -20.0163
   -19.9645 -19.9645 -19.9645 -19.9645 -19.8324 -19.8324 -19.8324 -19.8324
   -19.8157 -19.8157 -19.8157 -19.8157 -19.7762 -19.7762 -19.7762 -19.7762
   -19.4825 -19.4825 -19.4825 -19.4825 -19.4480 -19.4480 -19.4480 -19.4480
   -19.3514 -19.3514 -19.3514 -19.3514 -19.3419 -19.3419 -19.3419 -19.3419
   -19.3078 -19.3078 -19.3078 -19.3078 -19.2415 -19.2415 -19.2415 -19.2415
    17.6673  17.6673  17.6673  17.6673  18.3979  18.3979  18.3979  18.3979
    18.4648  18.4648  18.4648  18.4648  18.6837  18.6837  18.6837  18.6837
    19.0428  19.0428  19.0428  19.0428  19.2400  19.2400  19.2400  19.2400
    19.2603  19.2603  19.2603  19.2603  19.4680  19.4680  19.4680  19.4680
    19.7645  19.7645  19.7645  19.7645  19.9621  19.9621  19.9621  19.9621
    20.0471  20.0471  20.0471  20.0471  20.2309  20.2309  20.2309  20.2309
    22.9445  22.9445  22.9445  22.9445  23.0999  23.0999  23.0999  23.0999
    23.1871  23.1871  23.1871  23.1871  23.2257  23.2257  23.2257  23.2257
    23.3714  23.3714  23.3714  23.3714  23.6330  23.6330  23.6330  23.6330
    23.6427  23.6427  23.6427  23.6427  24.1006  24.1006  24.1006  24.1006
    24.7798  24.7798  24.7798  24.7798  26.1009  26.1009  26.1009  26.1009
    30.6056  30.6056

          k = 0.3889 0.3889 0.3889 ( 15066 PWs)   bands (ev):

   -49.7184 -49.6883 -49.6883 -49.6883 -49.6659 -49.6659 -49.6658 -49.6488
   -49.5895 -49.5814 -49.5814 -49.5814 -49.5677 -49.5677 -49.5677 -49.5463
   -20.0375 -20.0375 -20.0375 -20.0129 -20.0129 -20.0129 -19.9820 -19.9436
   -19.9436 -19.9349 -19.9349 -19.9349 -19.9230 -19.9230 -19.8410 -19.8410
   -19.8410 -19.8275 -19.8275 -19.8275 -19.8130 -19.8130 -19.8130 -19.6919
   -19.5340 -19.4382 -19.4382 -19.4382 -19.4169 -19.4169 -19.4169 -19.3952
   -19.3952 -19.3712 -19.3712 -19.3712 -19.3645 -19.3645 -19.3645 -19.3312
   -19.2840 -19.2840 -19.2840 -19.2730 -19.2730 -19.2656 -19.2656 -19.2656
    17.4065  17.9804  17.9804  17.9804  18.2470  18.2470  18.2470  18.4612
    18.4612  18.5888  18.5888  18.5888  18.6107  18.7655  18.7655  18.7655
    18.9849  18.9849  18.9849  19.1043  19.1043  19.1544  19.1544  19.1544
    19.2643  19.4273  19.4273  19.4273  19.5492  19.5492  19.5492  19.6492
    19.6492  19.6492  19.7008  19.7008  19.7092  19.7092  19.8470  19.8470
    19.8470  19.9653  19.9653  19.9653  19.9891  19.9891  19.9891  20.5724
    22.8417  22.8417  22.8417  23.1263  23.1263  23.1417  23.1417  23.1417
    23.1461  23.1461  23.1461  23.1499  23.2796  23.2796  23.2796  23.4478
    23.4478  23.4934  23.4934  23.4934  23.5256  23.5256  23.5256  23.6886
    23.6886  24.1962  24.1962  24.2178  24.2178  24.2178  24.3769  24.3769
    24.3769  24.4175  24.4175  24.4175  25.4139  25.4139  25.4139  26.7996
    30.7173  30.7174

          k = 0.3889 0.3889-0.5000 ( 15084 PWs)   bands (ev):

   -49.7045 -49.7045 -49.6779 -49.6779 -49.6779 -49.6779 -49.6579 -49.6579
   -49.5849 -49.5849 -49.5738 -49.5738 -49.5738 -49.5738 -49.5559 -49.5559
   -20.0177 -20.0177 -20.0177 -20.0177 -19.9853 -19.9852 -19.9835 -19.9835
   -19.9580 -19.9580 -19.8967 -19.8967 -19.8811 -19.8811 -19.8811 -19.8811
   -19.8708 -19.8708 -19.8431 -19.8431 -19.8431 -19.8431 -19.7596 -19.7596
   -19.4843 -19.4843 -19.4077 -19.4077 -19.3983 -19.3983 -19.3983 -19.3983
   -19.3851 -19.3851 -19.3851 -19.3851 -19.3439 -19.3439 -19.3346 -19.3346
   -19.3177 -19.3177 -19.2785 -19.2785 -19.2785 -19.2785 -19.2661 -19.2661
    17.7249  17.7249  18.1840  18.1840  18.1840  18.1840  18.6049  18.6049
    18.7039  18.7039  18.7285  18.7285  18.7568  18.7568  18.7568  18.7568
    18.7918  18.7918  19.1196  19.1196  19.2829  19.2829  19.2829  19.2829
    19.3180  19.3180  19.3180  19.3180  19.3968  19.3968  19.5459  19.5459
    19.5869  19.5869  19.6243  19.6243  19.7087  19.7087  19.7087  19.7087
    19.7186  19.7186  19.7186  19.7186  19.7924  19.7924  20.1544  20.1544
    22.9921  22.9921  23.0290  23.0290  23.0290  23.0290  23.2726  23.2726
    23.2726  23.2726  23.2901  23.2901  23.3237  23.3237  23.4552  23.4552
    23.4764  23.4764  23.4816  23.4816  23.4816  23.4816  23.6663  23.6663
    23.7115  23.7115  23.9874  23.9874  24.3538  24.3538  24.3538  24.3538
    24.3743  24.3743  24.8097  24.8097  24.8097  24.8097  26.1107  26.1107
    31.1510  31.1510

          k = 0.3889-0.5000-0.5000 ( 15088 PWs)   bands (ev):

   -49.6922 -49.6922 -49.6922 -49.6922 -49.6686 -49.6686 -49.6686 -49.6686
   -49.5787 -49.5787 -49.5787 -49.5787 -49.5639 -49.5639 -49.5639 -49.5639
   -19.9907 -19.9907 -19.9907 -19.9907 -19.9845 -19.9845 -19.9845 -19.9845
   -19.9192 -19.9192 -19.9192 -19.9192 -19.8891 -19.8891 -19.8891 -19.8891
   -19.8822 -19.8822 -19.8822 -19.8822 -19.8204 -19.8204 -19.8204 -19.8204
   -19.4387 -19.4387 -19.4387 -19.4387 -19.3832 -19.3832 -19.3832 -19.3832
   -19.3676 -19.3676 -19.3676 -19.3676 -19.3386 -19.3386 -19.3386 -19.3386
   -19.3155 -19.3155 -19.3155 -19.3155 -19.2785 -19.2785 -19.2785 -19.2785
    18.0127  18.0127  18.0127  18.0127  18.5459  18.5459  18.5459  18.5459
    18.7447  18.7447  18.7447  18.7447  18.9679  18.9679  18.9679  18.9679
    19.0962  19.0962  19.0962  19.0962  19.2045  19.2045  19.2045  19.2045
    19.2930  19.2930  19.2930  19.2930  19.3939  19.3939  19.3939  19.3939
    19.4055  19.4055  19.4055  19.4055  19.6002  19.6002  19.6002  19.6002
    19.6242  19.6242  19.6242  19.6242  19.7601  19.7601  19.7601  19.7601
    23.0894  23.0894  23.0894  23.0894  23.1860  23.1860  23.1860  23.1860
    23.3276  23.3276  23.3276  23.3276  23.4535  23.4535  23.4535  23.4535
    23.5009  23.5009  23.5009  23.5009  23.5782  23.5782  23.5782  23.5782
    24.0429  24.0429  24.0429  24.0429  24.2277  24.2277  24.2277  24.2277
    24.3106  24.3106  24.3106  24.3106  25.4598  25.4598  25.4598  25.4598
    31.8083  31.8084

          k =-0.5000-0.5000-0.5000 ( 15192 PWs)   bands (ev):

   -49.6812 -49.6812 -49.6812 -49.6812 -49.6812 -49.6812 -49.6812 -49.6812
   -49.5705 -49.5705 -49.5705 -49.5705 -49.5704 -49.5704 -49.5704 -49.5704
   -19.9412 -19.9412 -19.9412 -19.9412 -19.9412 -19.9412 -19.9412 -19.9412
   -19.9412 -19.9412 -19.9412 -19.9412 -19.9412 -19.9412 -19.9412 -19.9412
   -19.8697 -19.8697 -19.8697 -19.8697 -19.8697 -19.8697 -19.8697 -19.8697
   -19.4001 -19.4001 -19.4001 -19.4001 -19.4001 -19.4001 -19.4001 -19.4001
   -19.3262 -19.3262 -19.3262 -19.3262 -19.3262 -19.3262 -19.3262 -19.3262
   -19.3262 -19.3262 -19.3262 -19.3262 -19.3262 -19.3262 -19.3262 -19.3262
    18.3777  18.3777  18.3777  18.3777  18.3777  18.3777  18.3777  18.3777
    19.1535  19.1535  19.1535  19.1535  19.1535  19.1535  19.1535  19.1535
    19.1535  19.1535  19.1535  19.1535  19.1535  19.1535  19.1535  19.1535
    19.3436  19.3436  19.3436  19.3436  19.3436  19.3436  19.3436  19.3436
    19.3436  19.3436  19.3436  19.3436  19.3436  19.3436  19.3436  19.3436
    19.3474  19.3474  19.3474  19.3474  19.3474  19.3474  19.3474  19.3474
    23.2648  23.2648  23.2648  23.2648  23.2648  23.2648  23.2648  23.2648
    23.2648  23.2648  23.2648  23.2648  23.2648  23.2648  23.2648  23.2648
    23.8702  23.8702  23.8702  23.8702  23.8702  23.8702  23.8702  23.8702
    23.8702  23.8702  23.8702  23.8702  23.8702  23.8702  23.8702  23.8702
    24.8383  24.8383  24.8383  24.8383  24.8383  24.8383  24.8383  24.8383
    33.0089  33.0089

     the Fermi energy is    23.3756 ev

!    total energy              =   -6906.05268622 Ry

     total all-electron energy =   -144994.247856 Ry
     estimated scf accuracy    <       0.00000001 Ry
     smearing contrib. (-TS)   =      -0.04391947 Ry
     internal energy E=F+TS    =   -6906.00876674 Ry

     The total energy is F=E-TS. E is the sum of the following terms:
     one-electron contribution =    -497.67891365 Ry
     hartree contribution      =     459.17334913 Ry
     xc contribution           =    -464.33475562 Ry
     ewald contribution        =   -2608.44081328 Ry
     one-center paw contrib.   =   -3794.72763333 Ry

     convergence has been achieved in  14 iterations

     Forces acting on atoms (cartesian axes, Ry/au):

     atom    1 type  1   force =     0.00000000    0.00000000    0.00000000
     atom    2 type  1   force =     0.00000801    0.00000801    0.00000801
     atom    3 type  1   force =     0.00000000    0.00000000    0.00000000
     atom    4 type  1   force =     0.00000801    0.00000801   -0.00000801
     atom    5 type  1   force =     0.00000000    0.00000000    0.00000000
     atom    6 type  1   force =     0.00000801   -0.00000801    0.00000801
     atom    7 type  1   force =     0.00000000    0.00000000    0.00000000
     atom    8 type  1   force =     0.00000801   -0.00000801   -0.00000801
     atom    9 type  1   force =     0.00000000    0.00000000    0.00000000
     atom   10 type  1   force =    -0.00000801    0.00000801    0.00000801
     atom   11 type  1   force =     0.00000000    0.00000000    0.00000000
     atom   12 type  1   force =    -0.00000801    0.00000801   -0.00000801
     atom   13 type  1   force =     0.00000000    0.00000000    0.00000000
     atom   14 type  1   force =    -0.00000801   -0.00000801    0.00000801
     atom   15 type  1   force =     0.00000000    0.00000000    0.00000000
     atom   16 type  1   force =    -0.00000801   -0.00000801   -0.00000801

     Total force =     0.000039     Total SCF correction =     0.000010
     SCF correction compared to forces is large: reduce conv_thr to get better values


     Computing stress (Cartesian axis) and pressure

          total   stress  (Ry/bohr**3)                   (kbar)     P=       86.35
   0.00058700   0.00000000   0.00000000           86.35        0.00        0.00
   0.00000000   0.00058700   0.00000000            0.00       86.35        0.00
   0.00000000   0.00000000   0.00058700            0.00        0.00       86.35


     Writing output data file /scratch/eMFzZtaOGFceIUsf.save/
 
     init_run     :      2.75s CPU      2.91s WALL (       1 calls)
     electrons    :    161.15s CPU    165.02s WALL (       1 calls)
     forces       :      1.07s CPU      1.09s WALL (       1 calls)
     stress       :      2.26s CPU      2.28s WALL (       1 calls)

     Called by init_run:
     wfcinit      :      2.19s CPU      2.29s WALL (       1 calls)
     potinit      :      0.12s CPU      0.14s WALL (       1 calls)
     hinit0       :      0.22s CPU      0.23s WALL (       1 calls)

     Called by electrons:
     c_bands      :    140.26s CPU    143.36s WALL (      15 calls)
     sum_band     :     19.08s CPU     19.65s WALL (      15 calls)
     v_of_rho     :      0.11s CPU      0.13s WALL (      15 calls)
     newd         :      0.36s CPU      0.41s WALL (      15 calls)
     PAW_pot      :      1.03s CPU      1.14s WALL (      15 calls)
     mix_rho      :      0.04s CPU      0.05s WALL (      15 calls)

     Called by c_bands:
     init_us_2    :      0.45s CPU      0.48s WALL (    1155 calls)
     cegterg      :    138.14s CPU    141.16s WALL (     525 calls)

     Called by *egterg:
     cdiaghg      :     25.53s CPU     25.98s WALL (    1678 calls)
     h_psi        :     62.90s CPU     64.71s WALL (    1748 calls)
     s_psi        :      2.37s CPU      2.40s WALL (    1748 calls)
     g_psi        :      0.09s CPU      0.09s WALL (    1188 calls)

     Called by h_psi:
     h_psi:calbec :      7.01s CPU      7.10s WALL (    1748 calls)
     vloc_psi     :     53.06s CPU     54.74s WALL (    1748 calls)
     add_vuspsi   :      2.64s CPU      2.67s WALL (    1748 calls)

     General routines
     calbec       :     10.84s CPU     10.98s WALL (    2448 calls)
     fft          :      0.18s CPU      0.20s WALL (     219 calls)
     ffts         :      0.04s CPU      0.06s WALL (      30 calls)
     fftw         :     66.87s CPU     68.87s WALL (  485422 calls)
     interpolate  :      0.07s CPU      0.09s WALL (      15 calls)
 
     Parallel routines
     fft_scatt_xy :      4.18s CPU      4.32s WALL (  485671 calls)
     fft_scatt_yz :     58.63s CPU     60.40s WALL (  485671 calls)
 
     PWSCF        :   2m52.68s CPU   2m57.38s WALL

 
   This run was terminated on:  23:43:47  25Nov2021            

=------------------------------------------------------------------------------=
   JOB DONE.
=------------------------------------------------------------------------------=
