
     Program PWSCF v.6.7MaX starts on 25Nov2021 at 23:55:32 

     This program is part of the open-source Quantum ESPRESSO suite
     for quantum simulation of materials; please cite
         "P. Giannozzi et al., J. Phys.:Condens. Matter 21 395502 (2009);
         "P. Giannozzi et al., J. Phys.:Condens. Matter 29 465901 (2017);
          URL http://www.quantum-espresso.org", 
     in publications or presentations arising from this work. More details at
     http://www.quantum-espresso.org/quote

     Parallel version (MPI & OpenMP), running on      72 processor cores
     Number of MPI processes:                72
     Threads/MPI process:                     1

     MPI processes distributed on     1 nodes
     R & G space division:  proc/nbgrp/npool/nimage =      72
     Reading input from bcc_5.in
Warning: card &CELL ignored
Warning: card CELL_DYNAMICS = 'BFGS', ignored
Warning: card CELL_FACTOR = 2.0, ignored
Warning: card PRESS = 0.0, ignored
Warning: card / ignored

     Current dimensions of program PWSCF are:
     Max number of different atomic species (ntypx) = 10
     Max number of k-points (npk) =  40000
     Max angular momentum in pseudopotentials (lmaxx) =  3
     file Ru.pbe-spn-kjpaw_psl.1.0.0.UPF: wavefunction(s)  4D renormalized

     Subspace diagonalization in iterative solution of the eigenvalue problem:
     one sub-group per band group will be used
     ELPA distributed-memory algorithm (size of sub-group:  8*  8 procs)

     Found symmetry operation: I + (  0.2500  0.2500  0.2500)
     This is a supercell, fractional translations are disabled
     Message from routine setup:
     using ibrav=0 with symmetry is DISCOURAGED, use correct ibrav instead
 
     Parallelization info
     --------------------
     sticks:   dense  smooth     PW     G-vecs:    dense   smooth      PW
     Min         121      80     21                 8561     4594     645
     Max         122      81     22                 8568     4601     652
     Sum        8757    5761   1565               616525   330901   46681
 


     bravais-lattice index     =            0
     lattice parameter (alat)  =      11.4293  a.u.
     unit-cell volume          =    4096.7619 (a.u.)^3
     number of atoms/cell      =           16
     number of atomic types    =            1
     number of electrons       =       256.00
     number of Kohn-Sham states=          154
     kinetic-energy cutoff     =      71.0000  Ry
     charge density cutoff     =     430.0000  Ry
     scf convergence threshold =      1.0E-06
     mixing beta               =       0.1000
     number of iterations used =           10  TF        mixing
     Exchange-correlation= SLA  PW   PBX  PBC
                           (   1   4   3   4   0   0   0)

     celldm(1)=  11.429280  celldm(2)=   0.000000  celldm(3)=   0.000000
     celldm(4)=   0.000000  celldm(5)=   0.000000  celldm(6)=   0.000000

     crystal axes: (cart. coord. in units of alat)
               a(1) = (   1.400000   0.000000   0.000000 )  
               a(2) = (   0.000000   1.400000   0.000000 )  
               a(3) = (   0.000000   0.000000   1.400000 )  

     reciprocal axes: (cart. coord. in units 2 pi/alat)
               b(1) = (  0.714286  0.000000  0.000000 )  
               b(2) = (  0.000000  0.714286  0.000000 )  
               b(3) = (  0.000000  0.000000  0.714286 )  


     PseudoPot. # 1 for Ru read from file:
     /rds/homes/b/bxp912/pp/Ru.pbe-spn-kjpaw_psl.1.0.0.UPF
     MD5 check sum: 0ae1f594dea09af7be8575c3a481d1ae
     Pseudo is Projector augmented-wave + core cor, Zval = 16.0
     Generated using "atomic" code by A. Dal Corso  v.5.1
     Shape of augmentation charge: PSQ
     Using radial grid of 1233 points,  6 beta functions with: 
                l(1) =   0
                l(2) =   0
                l(3) =   1
                l(4) =   1
                l(5) =   2
                l(6) =   2
     Q(r) pseudized with 0 coefficients 


     atomic species   valence    mass     pseudopotential
        Ru            16.00   101.07000     Ru( 1.00)

     48 Sym. Ops., with inversion, found



   Cartesian axes

     site n.     atom                  positions (alat units)
         1           Ru  tau(   1) = (   0.0000000   0.0000000   0.0000000  )
         2           Ru  tau(   2) = (   0.3500000   0.3500000   0.3500000  )
         3           Ru  tau(   3) = (   0.0000000   0.0000000   0.7000000  )
         4           Ru  tau(   4) = (   0.3500000   0.3500000   1.0500000  )
         5           Ru  tau(   5) = (   0.0000000   0.7000000   0.0000000  )
         6           Ru  tau(   6) = (   0.3500000   1.0500000   0.3500000  )
         7           Ru  tau(   7) = (   0.0000000   0.7000000   0.7000000  )
         8           Ru  tau(   8) = (   0.3500000   1.0500000   1.0500000  )
         9           Ru  tau(   9) = (   0.7000000   0.0000000   0.0000000  )
        10           Ru  tau(  10) = (   1.0500000   0.3500000   0.3500000  )
        11           Ru  tau(  11) = (   0.7000000   0.0000000   0.7000000  )
        12           Ru  tau(  12) = (   1.0500000   0.3500000   1.0500000  )
        13           Ru  tau(  13) = (   0.7000000   0.7000000   0.0000000  )
        14           Ru  tau(  14) = (   1.0500000   1.0500000   0.3500000  )
        15           Ru  tau(  15) = (   0.7000000   0.7000000   0.7000000  )
        16           Ru  tau(  16) = (   1.0500000   1.0500000   1.0500000  )

     number of k points=    35  Marzari-Vanderbilt smearing, width (Ry)=  0.0400
                       cart. coord. in units 2pi/alat
        k(    1) = (   0.0396825   0.0396825   0.0396825), wk =   0.0219479
        k(    2) = (   0.0396825   0.0396825   0.1190476), wk =   0.0658436
        k(    3) = (   0.0396825   0.0396825   0.1984127), wk =   0.0658436
        k(    4) = (   0.0396825   0.0396825   0.2777778), wk =   0.0658436
        k(    5) = (   0.0396825   0.0396825  -0.3571429), wk =   0.0329218
        k(    6) = (   0.0396825   0.1190476   0.1190476), wk =   0.0658436
        k(    7) = (   0.0396825   0.1190476   0.1984127), wk =   0.1316872
        k(    8) = (   0.0396825   0.1190476   0.2777778), wk =   0.1316872
        k(    9) = (   0.0396825   0.1190476  -0.3571429), wk =   0.0658436
        k(   10) = (   0.0396825   0.1984127   0.1984127), wk =   0.0658436
        k(   11) = (   0.0396825   0.1984127   0.2777778), wk =   0.1316872
        k(   12) = (   0.0396825   0.1984127  -0.3571429), wk =   0.0658436
        k(   13) = (   0.0396825   0.2777778   0.2777778), wk =   0.0658436
        k(   14) = (   0.0396825   0.2777778  -0.3571429), wk =   0.0658436
        k(   15) = (   0.0396825  -0.3571429  -0.3571429), wk =   0.0164609
        k(   16) = (   0.1190476   0.1190476   0.1190476), wk =   0.0219479
        k(   17) = (   0.1190476   0.1190476   0.1984127), wk =   0.0658436
        k(   18) = (   0.1190476   0.1190476   0.2777778), wk =   0.0658436
        k(   19) = (   0.1190476   0.1190476  -0.3571429), wk =   0.0329218
        k(   20) = (   0.1190476   0.1984127   0.1984127), wk =   0.0658436
        k(   21) = (   0.1190476   0.1984127   0.2777778), wk =   0.1316872
        k(   22) = (   0.1190476   0.1984127  -0.3571429), wk =   0.0658436
        k(   23) = (   0.1190476   0.2777778   0.2777778), wk =   0.0658436
        k(   24) = (   0.1190476   0.2777778  -0.3571429), wk =   0.0658436
        k(   25) = (   0.1190476  -0.3571429  -0.3571429), wk =   0.0164609
        k(   26) = (   0.1984127   0.1984127   0.1984127), wk =   0.0219479
        k(   27) = (   0.1984127   0.1984127   0.2777778), wk =   0.0658436
        k(   28) = (   0.1984127   0.1984127  -0.3571429), wk =   0.0329218
        k(   29) = (   0.1984127   0.2777778   0.2777778), wk =   0.0658436
        k(   30) = (   0.1984127   0.2777778  -0.3571429), wk =   0.0658436
        k(   31) = (   0.1984127  -0.3571429  -0.3571429), wk =   0.0164609
        k(   32) = (   0.2777778   0.2777778   0.2777778), wk =   0.0219479
        k(   33) = (   0.2777778   0.2777778  -0.3571429), wk =   0.0329218
        k(   34) = (   0.2777778  -0.3571429  -0.3571429), wk =   0.0164609
        k(   35) = (  -0.3571429  -0.3571429  -0.3571429), wk =   0.0027435

     Dense  grid:   616525 G-vectors     FFT dimensions: ( 108, 108, 108)

     Smooth grid:   330901 G-vectors     FFT dimensions: (  90,  90,  90)

     Estimated max dynamical RAM per process >      88.84 MB

     Estimated total dynamical RAM >       6.25 GB

     Check: negative core charge=   -0.000002

     Initial potential from superposition of free atoms

     starting charge  255.98980, renormalised to  256.00000
     Starting wfcs are  160 randomized atomic wfcs
     Checking if some PAW data can be deallocated... 

     total cpu time spent up to now is        9.7 secs

     Self-consistent Calculation

     iteration #  1     ecut=    71.00 Ry     beta= 0.10
     Davidson diagonalization with overlap
     ethr =  1.00E-02,  avg # of iterations =  3.5

     Threshold (ethr) on eigenvalues was too large:
     Diagonalizing with lowered threshold

     Davidson diagonalization with overlap
     ethr =  8.70E-04,  avg # of iterations =  2.9

     total cpu time spent up to now is       41.2 secs

     total energy              =   -6900.93460014 Ry
     estimated scf accuracy    <       1.75645593 Ry

     iteration #  2     ecut=    71.00 Ry     beta= 0.10
     Davidson diagonalization with overlap
     ethr =  6.86E-04,  avg # of iterations =  1.5

     total cpu time spent up to now is       55.6 secs

     total energy              =   -6900.67124852 Ry
     estimated scf accuracy    <       1.09851434 Ry

     iteration #  3     ecut=    71.00 Ry     beta= 0.10
     Davidson diagonalization with overlap
     ethr =  4.29E-04,  avg # of iterations =  2.3

     total cpu time spent up to now is       73.5 secs

     total energy              =   -6900.75332619 Ry
     estimated scf accuracy    <       0.45802687 Ry

     iteration #  4     ecut=    71.00 Ry     beta= 0.10
     Davidson diagonalization with overlap
     ethr =  1.79E-04,  avg # of iterations =  2.4

     total cpu time spent up to now is       92.0 secs

     total energy              =   -6900.77315572 Ry
     estimated scf accuracy    <       0.02303244 Ry

     iteration #  5     ecut=    71.00 Ry     beta= 0.10
     Davidson diagonalization with overlap
     ethr =  9.00E-06,  avg # of iterations =  5.3

     total cpu time spent up to now is      114.1 secs

     total energy              =   -6900.76877555 Ry
     estimated scf accuracy    <       0.01879991 Ry

     iteration #  6     ecut=    71.00 Ry     beta= 0.10
     Davidson diagonalization with overlap
     ethr =  7.34E-06,  avg # of iterations =  2.0

     total cpu time spent up to now is      131.7 secs

     total energy              =   -6900.76998501 Ry
     estimated scf accuracy    <       0.03371903 Ry

     iteration #  7     ecut=    71.00 Ry     beta= 0.10
     Davidson diagonalization with overlap
     ethr =  7.34E-06,  avg # of iterations =  1.0

     total cpu time spent up to now is      145.9 secs

     total energy              =   -6900.77028216 Ry
     estimated scf accuracy    <       0.00226652 Ry

     iteration #  8     ecut=    71.00 Ry     beta= 0.10
     Davidson diagonalization with overlap
     ethr =  8.85E-07,  avg # of iterations =  1.8

     total cpu time spent up to now is      161.9 secs

     total energy              =   -6900.77039535 Ry
     estimated scf accuracy    <       0.00241296 Ry

     iteration #  9     ecut=    71.00 Ry     beta= 0.10
     Davidson diagonalization with overlap
     ethr =  8.85E-07,  avg # of iterations =  2.0

     total cpu time spent up to now is      176.9 secs

     total energy              =   -6900.77044159 Ry
     estimated scf accuracy    <       0.00106417 Ry

     iteration # 10     ecut=    71.00 Ry     beta= 0.10
     Davidson diagonalization with overlap
     ethr =  4.16E-07,  avg # of iterations =  1.1

     total cpu time spent up to now is      192.7 secs

     total energy              =   -6900.77037213 Ry
     estimated scf accuracy    <       0.00045944 Ry

     iteration # 11     ecut=    71.00 Ry     beta= 0.10
     Davidson diagonalization with overlap
     ethr =  1.79E-07,  avg # of iterations =  2.7

     total cpu time spent up to now is      210.8 secs

     total energy              =   -6900.77046221 Ry
     estimated scf accuracy    <       0.00006800 Ry

     iteration # 12     ecut=    71.00 Ry     beta= 0.10
     Davidson diagonalization with overlap
     ethr =  2.66E-08,  avg # of iterations =  2.1

     total cpu time spent up to now is      224.9 secs

     total energy              =   -6900.77045124 Ry
     estimated scf accuracy    <       0.00003865 Ry

     iteration # 13     ecut=    71.00 Ry     beta= 0.10
     Davidson diagonalization with overlap
     ethr =  1.51E-08,  avg # of iterations =  2.7

     total cpu time spent up to now is      241.8 secs

     total energy              =   -6900.77046087 Ry
     estimated scf accuracy    <       0.00000250 Ry

     iteration # 14     ecut=    71.00 Ry     beta= 0.10
     Davidson diagonalization with overlap
     ethr =  9.77E-10,  avg # of iterations =  3.2

     total cpu time spent up to now is      257.4 secs

     End of self-consistent calculation

          k = 0.0397 0.0397 0.0397 ( 41437 PWs)   bands (ev):

   -66.5656 -66.5645 -66.5645 -66.5644 -66.5643 -66.5643 -66.5643 -66.5643
   -66.5643 -66.5643 -66.5643 -66.5643 -66.5642 -66.5642 -66.5642 -66.5632
   -36.5605 -36.5604 -36.5604 -36.5603 -36.5603 -36.5603 -36.5564 -36.5564
   -36.5561 -36.5513 -36.5512 -36.5511 -36.5511 -36.5504 -36.5504 -36.5497
   -36.5497 -36.5497 -36.5485 -36.5485 -36.5484 -36.5484 -36.5484 -36.5478
   -36.5477 -36.5477 -36.5477 -36.5477 -36.5477 -36.5476 -36.5476 -36.5476
   -36.5475 -36.5469 -36.5469 -36.5469 -36.5463 -36.5463 -36.5463 -36.5395
   -36.5392 -36.5392 -36.5389 -36.5389 -36.5389 -36.5388 -36.5388 -36.5388
     2.2352   3.7710   3.7711   3.7711   3.7800   3.7800   3.7800   3.9250
     3.9250   3.9250   3.9712   3.9712   4.1229   4.1229   4.1229   4.2479
     4.2479   4.2479   4.2528   4.2529   4.2529   4.3538   4.3965   4.3965
     4.4703   4.4703   4.4994   4.5150   4.5150   4.5150   4.5920   4.5920
     4.6062   4.6139   4.6139   4.6139   4.7632   4.7632   4.7632   4.7962
     4.7962   4.7962   4.8292   4.8293   4.8293   4.8588   4.8588   4.8588
     5.0391   5.0392   5.0392   5.1202   5.1203   5.1203   5.1423   5.1423
     5.1423   5.1463   5.1463   5.1463   5.1876   5.1876   5.2118   5.2119
     5.2119   5.2343   5.2344   5.2344   5.2449   5.2449   5.2449   5.2449
     5.5081   5.5297   5.5297   5.5612   5.5612   5.5613   5.6123   5.6124
     5.6124   5.6231   5.6231   5.6231   5.8225   5.8225   5.8225   6.8601
     6.8601   6.8601

          k = 0.0397 0.0397 0.1190 ( 41410 PWs)   bands (ev):

   -66.5656 -66.5647 -66.5645 -66.5644 -66.5644 -66.5644 -66.5643 -66.5643
   -66.5643 -66.5643 -66.5643 -66.5643 -66.5643 -66.5642 -66.5640 -66.5632
   -36.5602 -36.5602 -36.5601 -36.5600 -36.5598 -36.5598 -36.5564 -36.5561
   -36.5556 -36.5527 -36.5526 -36.5526 -36.5525 -36.5523 -36.5511 -36.5511
   -36.5499 -36.5499 -36.5492 -36.5488 -36.5484 -36.5484 -36.5481 -36.5479
   -36.5478 -36.5478 -36.5476 -36.5475 -36.5474 -36.5469 -36.5469 -36.5466
   -36.5464 -36.5464 -36.5462 -36.5455 -36.5450 -36.5450 -36.5448 -36.5400
   -36.5395 -36.5393 -36.5393 -36.5393 -36.5392 -36.5391 -36.5390 -36.5389
     2.2928   3.6522   3.7788   3.7788   3.8060   3.8060   3.8061   3.8142
     3.9307   3.9308   3.9892   3.9937   4.1183   4.1183   4.2237   4.2478
     4.2527   4.2628   4.2628   4.2775   4.2775   4.3011   4.3410   4.3770
     4.4131   4.4240   4.5080   4.5081   4.5641   4.5655   4.5866   4.5887
     4.5887   4.5938   4.6271   4.6788   4.6945   4.6946   4.7071   4.7555
     4.7556   4.7795   4.8592   4.8592   4.8967   4.8967   4.9058   4.9392
     4.9596   5.1164   5.1165   5.1167   5.1168   5.1325   5.1325   5.1489
     5.1524   5.1546   5.1547   5.1694   5.1948   5.1949   5.1950   5.2007
     5.2086   5.2115   5.2116   5.2350   5.2395   5.2397   5.2442   5.2446
     5.4132   5.4609   5.4940   5.4960   5.5187   5.5270   5.5816   5.5817
     5.5823   5.5824   5.6128   5.6128   5.8680   5.8680   6.2175   6.5328
     6.5328   6.9801

          k = 0.0397 0.0397 0.1984 ( 41374 PWs)   bands (ev):

   -66.5655 -66.5649 -66.5644 -66.5644 -66.5644 -66.5644 -66.5643 -66.5643
   -66.5643 -66.5643 -66.5643 -66.5643 -66.5643 -66.5642 -66.5638 -66.5633
   -36.5596 -36.5596 -36.5594 -36.5593 -36.5589 -36.5589 -36.5562 -36.5556
   -36.5550 -36.5543 -36.5543 -36.5543 -36.5541 -36.5537 -36.5529 -36.5529
   -36.5513 -36.5506 -36.5495 -36.5488 -36.5484 -36.5483 -36.5480 -36.5479
   -36.5479 -36.5477 -36.5473 -36.5473 -36.5470 -36.5469 -36.5464 -36.5449
   -36.5448 -36.5448 -36.5446 -36.5441 -36.5435 -36.5435 -36.5434 -36.5408
   -36.5400 -36.5400 -36.5399 -36.5398 -36.5397 -36.5396 -36.5393 -36.5393
     2.4070   3.3502   3.8014   3.8014   3.8482   3.8482   3.8733   3.8796
     3.9296   3.9296   4.0248   4.0361   4.0914   4.0914   4.2432   4.2485
     4.2486   4.2535   4.2968   4.2969   4.2999   4.3016   4.3148   4.3212
     4.3212   4.3563   4.5325   4.5325   4.5732   4.5732   4.5869   4.5981
     4.6301   4.6301   4.6583   4.6608   4.6608   4.6623   4.6657   4.6732
     4.6787   4.8490   4.8838   4.9428   4.9428   4.9532   4.9532   4.9946
     5.0212   5.0213   5.0322   5.0741   5.0742   5.1201   5.1201   5.1336
     5.1612   5.1638   5.1679   5.1679   5.1935   5.2085   5.2135   5.2136
     5.2291   5.2291   5.2362   5.2431   5.2443   5.2781   5.2888   5.2888
     5.3238   5.3333   5.3698   5.3890   5.4278   5.5044   5.5331   5.5332
     5.5816   5.5816   5.6285   5.6285   5.9583   5.9584   6.2326   6.2326
     6.7280   6.7342

          k = 0.0397 0.0397 0.2778 ( 41398 PWs)   bands (ev):

   -66.5654 -66.5651 -66.5644 -66.5644 -66.5644 -66.5644 -66.5643 -66.5643
   -66.5643 -66.5643 -66.5643 -66.5643 -66.5643 -66.5642 -66.5637 -66.5634
   -36.5586 -36.5586 -36.5585 -36.5584 -36.5578 -36.5577 -36.5559 -36.5559
   -36.5559 -36.5558 -36.5557 -36.5548 -36.5547 -36.5547 -36.5546 -36.5542
   -36.5526 -36.5520 -36.5491 -36.5486 -36.5483 -36.5483 -36.5483 -36.5481
   -36.5481 -36.5480 -36.5472 -36.5472 -36.5470 -36.5470 -36.5448 -36.5433
   -36.5433 -36.5433 -36.5431 -36.5428 -36.5423 -36.5421 -36.5421 -36.5420
   -36.5409 -36.5408 -36.5407 -36.5407 -36.5406 -36.5403 -36.5400 -36.5400
     2.5756   3.0568   3.8355   3.8355   3.9043   3.9043   3.9100   3.9100
     3.9668   3.9699   4.0371   4.0371   4.0769   4.0930   4.1751   4.1939
     4.2120   4.2241   4.2518   4.2578   4.2755   4.2986   4.3489   4.3489
     4.3825   4.3825   4.4970   4.4971   4.5403   4.5404   4.5932   4.6061
     4.6292   4.6371   4.6371   4.6396   4.6885   4.6885   4.7002   4.8078
     4.8136   4.8141   4.8890   4.8890   4.9350   4.9539   4.9540   5.0077
     5.0077   5.0205   5.0205   5.0813   5.0904   5.0904   5.0935   5.1150
     5.1297   5.1298   5.1338   5.1388   5.1776   5.1804   5.2140   5.2144
     5.2281   5.2379   5.2415   5.2448   5.2701   5.2860   5.2984   5.3081
     5.3081   5.3394   5.3497   5.3806   5.3806   5.4655   5.4698   5.4698
     5.5308   5.5308   5.7069   5.7069   5.9973   5.9973   6.0922   6.0922
     6.4843   6.4843

          k = 0.0397 0.0397-0.3571 ( 41396 PWs)   bands (ev):

   -66.5653 -66.5652 -66.5644 -66.5644 -66.5644 -66.5644 -66.5643 -66.5643
   -66.5643 -66.5643 -66.5643 -66.5643 -66.5643 -66.5642 -66.5635 -66.5635
   -36.5574 -36.5574 -36.5573 -36.5573 -36.5572 -36.5572 -36.5572 -36.5572
   -36.5564 -36.5563 -36.5563 -36.5563 -36.5554 -36.5553 -36.5538 -36.5538
   -36.5532 -36.5531 -36.5487 -36.5486 -36.5484 -36.5483 -36.5482 -36.5482
   -36.5482 -36.5481 -36.5471 -36.5471 -36.5471 -36.5471 -36.5434 -36.5433
   -36.5420 -36.5420 -36.5420 -36.5419 -36.5419 -36.5419 -36.5418 -36.5418
   -36.5417 -36.5416 -36.5412 -36.5412 -36.5410 -36.5410 -36.5409 -36.5409
     2.7945   2.7945   3.8750   3.8750   3.8750   3.8750   3.9700   3.9700
     3.9700   3.9700   4.0744   4.0744   4.0778   4.0778   4.1440   4.1440
     4.1558   4.1558   4.2599   4.2599   4.2699   4.2699   4.4168   4.4168
     4.4168   4.4169   4.4586   4.4586   4.4586   4.4587   4.6068   4.6068
     4.6195   4.6195   4.7510   4.7510   4.7510   4.7511   4.7524   4.7524
     4.8110   4.8110   4.8110   4.8110   4.9647   4.9647   4.9649   4.9649
     5.0142   5.0142   5.0536   5.0536   5.0536   5.0536   5.0831   5.0832
     5.0832   5.0832   5.1961   5.1961   5.1972   5.1972   5.1972   5.1973
     5.2385   5.2385   5.2397   5.2397   5.2488   5.2488   5.2533   5.2533
     5.3941   5.3941   5.3941   5.3942   5.4130   5.4131   5.4627   5.4627
     5.4627   5.4628   5.8261   5.8261   5.8261   5.8261   6.2680   6.2680
     6.2680   6.2680

          k = 0.0397 0.1190 0.1190 ( 41429 PWs)   bands (ev):

   -66.5655 -66.5647 -66.5647 -66.5644 -66.5644 -66.5644 -66.5643 -66.5643
   -66.5643 -66.5643 -66.5643 -66.5643 -66.5642 -66.5641 -66.5640 -66.5632
   -36.5602 -36.5598 -36.5598 -36.5595 -36.5595 -36.5590 -36.5566 -36.5559
   -36.5550 -36.5539 -36.5538 -36.5536 -36.5534 -36.5529 -36.5520 -36.5503
   -36.5499 -36.5498 -36.5496 -36.5496 -36.5485 -36.5484 -36.5482 -36.5480
   -36.5479 -36.5478 -36.5478 -36.5475 -36.5475 -36.5471 -36.5470 -36.5460
   -36.5455 -36.5455 -36.5455 -36.5452 -36.5442 -36.5436 -36.5436 -36.5407
   -36.5400 -36.5397 -36.5396 -36.5396 -36.5393 -36.5392 -36.5392 -36.5388
     2.3499   3.6741   3.6741   3.7645   3.8141   3.8141   3.8390   3.8390
     3.8475   3.9411   4.0083   4.0146   4.1209   4.2201   4.2201   4.2523
     4.2623   4.2623   4.2676   4.2766   4.2766   4.3030   4.3117   4.3921
     4.4175   4.4175   4.4576   4.4859   4.5503   4.5700   4.5734   4.5752
     4.5931   4.6256   4.6256   4.6572   4.6572   4.6609   4.6907   4.7386
     4.8272   4.8273   4.8524   4.8524   4.8741   4.9078   4.9513   4.9513
     5.0383   5.0383   5.0564   5.1011   5.1194   5.1194   5.1339   5.1385
     5.1385   5.1494   5.1495   5.1658   5.1732   5.1894   5.2067   5.2067
     5.2304   5.2358   5.2364   5.2367   5.2421   5.2433   5.2720   5.2720
     5.3963   5.4164   5.4164   5.4633   5.4633   5.4667   5.5223   5.5223
     5.5278   5.5359   5.6164   5.6214   5.9242   6.1235   6.2828   6.2828
     6.6908   6.6908

          k = 0.0397 0.1190 0.1984 ( 41406 PWs)   bands (ev):

   -66.5655 -66.5649 -66.5646 -66.5645 -66.5644 -66.5644 -66.5643 -66.5643
   -66.5643 -66.5643 -66.5643 -66.5642 -66.5642 -66.5641 -66.5639 -66.5633
   -36.5598 -36.5593 -36.5592 -36.5589 -36.5587 -36.5580 -36.5567 -36.5554
   -36.5554 -36.5549 -36.5548 -36.5547 -36.5543 -36.5541 -36.5534 -36.5514
   -36.5513 -36.5500 -36.5497 -36.5493 -36.5486 -36.5486 -36.5484 -36.5482
   -36.5481 -36.5479 -36.5476 -36.5474 -36.5471 -36.5467 -36.5462 -36.5456
   -36.5445 -36.5443 -36.5441 -36.5440 -36.5430 -36.5424 -36.5422 -36.5419
   -36.5409 -36.5402 -36.5401 -36.5401 -36.5398 -36.5396 -36.5393 -36.5390
     2.4628   3.3856   3.7079   3.7600   3.8365   3.8796   3.8816   3.9014
     3.9029   3.9478   4.0424   4.0572   4.1050   4.1865   4.2065   4.2448
     4.2536   4.2625   4.2768   4.2915   4.2953   4.3183   4.3286   4.3574
     4.3644   4.4136   4.4596   4.4837   4.5218   4.5458   4.5573   4.5963
     4.5967   4.6409   4.6505   4.6547   4.6553   4.6575   4.6866   4.7049
     4.7261   4.8949   4.9101   4.9372   4.9384   4.9402   4.9550   4.9607
     4.9703   5.0131   5.0255   5.0701   5.0741   5.1009   5.1046   5.1228
     5.1373   5.1376   5.1449   5.1515   5.1588   5.1835   5.1995   5.2048
     5.2253   5.2258   5.2400   5.2415   5.2448   5.2952   5.3109   5.3185
     5.3285   5.3450   5.3611   5.3990   5.4016   5.4253   5.4278   5.4552
     5.5044   5.5310   5.6079   5.6884   5.8060   6.0314   6.3893   6.4072
     6.8051   6.8618

          k = 0.0397 0.1190 0.2778 ( 41408 PWs)   bands (ev):

   -66.5654 -66.5650 -66.5646 -66.5645 -66.5644 -66.5644 -66.5643 -66.5643
   -66.5643 -66.5643 -66.5643 -66.5642 -66.5642 -66.5641 -66.5637 -66.5634
   -36.5591 -36.5584 -36.5583 -36.5581 -36.5576 -36.5568 -36.5566 -36.5566
   -36.5560 -36.5560 -36.5557 -36.5557 -36.5549 -36.5546 -36.5532 -36.5531
   -36.5525 -36.5506 -36.5495 -36.5495 -36.5490 -36.5486 -36.5485 -36.5483
   -36.5482 -36.5479 -36.5473 -36.5471 -36.5463 -36.5462 -36.5458 -36.5446
   -36.5432 -36.5431 -36.5430 -36.5429 -36.5428 -36.5419 -36.5419 -36.5413
   -36.5410 -36.5409 -36.5409 -36.5408 -36.5407 -36.5402 -36.5397 -36.5394
     2.6292   3.1013   3.7385   3.7597   3.8694   3.9336   3.9360   3.9703
     3.9747   3.9851   4.0589   4.0913   4.1152   4.1221   4.1521   4.1833
     4.2129   4.2493   4.2660   4.2828   4.3049   4.3335   4.3452   4.3483
     4.3750   4.4340   4.4639   4.4751   4.4872   4.5415   4.5523   4.5711
     4.6030   4.6300   4.6321   4.6704   4.6842   4.7184   4.7571   4.7576
     4.7753   4.8085   4.8808   4.8864   4.9367   4.9624   4.9937   5.0014
     5.0047   5.0096   5.0099   5.0213   5.0270   5.0468   5.0545   5.0908
     5.0942   5.1164   5.1214   5.1524   5.1681   5.1744   5.2093   5.2099
     5.2121   5.2192   5.2341   5.2418   5.2504   5.2553   5.2787   5.2976
     5.3069   5.3143   5.3571   5.3827   5.3890   5.4107   5.4460   5.4473
     5.4674   5.5069   5.5730   5.6073   5.8003   6.1443   6.1826   6.5814
     6.6005   7.0420

          k = 0.0397 0.1190-0.3571 ( 41382 PWs)   bands (ev):

   -66.5652 -66.5652 -66.5646 -66.5646 -66.5644 -66.5644 -66.5643 -66.5643
   -66.5643 -66.5643 -66.5643 -66.5642 -66.5641 -66.5641 -66.5635 -66.5635
   -36.5581 -36.5581 -36.5573 -36.5573 -36.5571 -36.5571 -36.5571 -36.5571
   -36.5564 -36.5563 -36.5563 -36.5562 -36.5550 -36.5549 -36.5537 -36.5537
   -36.5519 -36.5519 -36.5493 -36.5493 -36.5490 -36.5490 -36.5484 -36.5484
   -36.5481 -36.5480 -36.5472 -36.5472 -36.5461 -36.5460 -36.5447 -36.5446
   -36.5432 -36.5432 -36.5419 -36.5419 -36.5418 -36.5418 -36.5418 -36.5418
   -36.5417 -36.5417 -36.5410 -36.5409 -36.5404 -36.5404 -36.5401 -36.5401
     2.8446   2.8446   3.7552   3.7552   3.9061   3.9061   3.9964   3.9964
     4.0458   4.0458   4.0755   4.0755   4.0819   4.0819   4.1518   4.1518
     4.1808   4.1808   4.2771   4.2771   4.3029   4.3029   4.3918   4.3918
     4.4082   4.4082   4.4393   4.4393   4.5161   4.5161   4.5565   4.5565
     4.6148   4.6148   4.6780   4.6781   4.7523   4.7523   4.7929   4.7930
     4.8183   4.8183   4.8457   4.8457   4.9003   4.9003   4.9062   4.9062
     5.0196   5.0197   5.0308   5.0309   5.0569   5.0569   5.0732   5.0732
     5.0934   5.0934   5.1075   5.1076   5.1890   5.1890   5.1917   5.1917
     5.2158   5.2158   5.2442   5.2442   5.2450   5.2451   5.2657   5.2657
     5.3159   5.3159   5.3460   5.3460   5.4163   5.4163   5.4658   5.4658
     5.4995   5.4995   5.5181   5.5181   5.9511   5.9511   6.3728   6.3728
     6.7969   6.7969

          k = 0.0397 0.1984 0.1984 ( 41431 PWs)   bands (ev):

   -66.5654 -66.5648 -66.5648 -66.5646 -66.5644 -66.5644 -66.5643 -66.5643
   -66.5643 -66.5643 -66.5643 -66.5642 -66.5641 -66.5639 -66.5639 -66.5634
   -36.5597 -36.5588 -36.5587 -36.5583 -36.5583 -36.5571 -36.5567 -36.5563
   -36.5562 -36.5554 -36.5554 -36.5550 -36.5550 -36.5542 -36.5531 -36.5511
   -36.5510 -36.5500 -36.5497 -36.5497 -36.5492 -36.5488 -36.5484 -36.5484
   -36.5482 -36.5477 -36.5477 -36.5475 -36.5475 -36.5472 -36.5461 -36.5444
   -36.5443 -36.5437 -36.5435 -36.5432 -36.5432 -36.5424 -36.5419 -36.5412
   -36.5411 -36.5406 -36.5405 -36.5405 -36.5401 -36.5401 -36.5392 -36.5389
     2.5730   3.4496   3.4496   3.7187   3.9026   3.9026   3.9377   3.9377
     3.9656   3.9703   4.0725   4.1013   4.1120   4.1719   4.2110   4.2183
     4.2183   4.2945   4.2946   4.3049   4.3163   4.3163   4.3838   4.3839
     4.3876   4.4254   4.4385   4.4507   4.4858   4.5182   4.5182   4.5292
     4.5981   4.6253   4.6451   4.6541   4.6554   4.6554   4.6826   4.7633
     4.8052   4.8052   4.8332   4.9596   4.9596   4.9652   4.9807   4.9821
     4.9821   5.0090   5.0090   5.0308   5.0308   5.0377   5.0584   5.0585
     5.1061   5.1327   5.1327   5.1332   5.1495   5.1495   5.1930   5.2134
     5.2147   5.2158   5.2233   5.2420   5.2478   5.2678   5.3089   5.3098
     5.3196   5.3196   5.3234   5.3234   5.3374   5.4025   5.4025   5.4265
     5.4265   5.5194   5.5476   5.6127   5.8002   6.1626   6.6166   6.6166
     6.9504   6.9504

          k = 0.0397 0.1984 0.2778 ( 41388 PWs)   bands (ev):

   -66.5653 -66.5650 -66.5648 -66.5646 -66.5644 -66.5644 -66.5643 -66.5643
   -66.5643 -66.5643 -66.5643 -66.5642 -66.5640 -66.5639 -66.5637 -66.5635
   -36.5593 -36.5580 -36.5580 -36.5577 -36.5575 -36.5574 -36.5572 -36.5568
   -36.5562 -36.5562 -36.5559 -36.5553 -36.5551 -36.5542 -36.5523 -36.5518
   -36.5516 -36.5507 -36.5498 -36.5498 -36.5491 -36.5488 -36.5488 -36.5486
   -36.5481 -36.5480 -36.5477 -36.5474 -36.5473 -36.5461 -36.5455 -36.5447
   -36.5446 -36.5432 -36.5431 -36.5427 -36.5426 -36.5424 -36.5417 -36.5413
   -36.5410 -36.5409 -36.5408 -36.5405 -36.5403 -36.5402 -36.5393 -36.5390
     2.7347   3.1859   3.5287   3.6696   3.9315   3.9767   3.9857   3.9907
     4.0115   4.0340   4.0883   4.1128   4.1353   4.1599   4.1629   4.1676
     4.2011   4.2994   4.3091   4.3231   4.3361   4.3422   4.3581   4.3669
     4.4004   4.4432   4.4453   4.4522   4.4737   4.5022   4.5029   4.5096
     4.6041   4.6360   4.6579   4.6794   4.6852   4.6985   4.7063   4.7123
     4.7176   4.8291   4.8525   4.8818   4.8969   4.9139   4.9260   4.9774
     4.9976   5.0024   5.0065   5.0120   5.0181   5.0252   5.0262   5.0752
     5.1041   5.1058   5.1070   5.1178   5.1401   5.1517   5.1582   5.1587
     5.1977   5.1982   5.2052   5.2453   5.2526   5.2552   5.2570   5.2647
     5.2720   5.2890   5.3084   5.3177   5.3230   5.3326   5.3855   5.3867
     5.4810   5.5001   5.5443   5.5959   5.9515   6.3366   6.3542   6.7905
     6.8719   7.1515

          k = 0.0397 0.1984-0.3571 ( 41382 PWs)   bands (ev):

   -66.5652 -66.5651 -66.5647 -66.5647 -66.5644 -66.5644 -66.5643 -66.5643
   -66.5643 -66.5643 -66.5643 -66.5642 -66.5640 -66.5640 -66.5636 -66.5636
   -36.5585 -36.5585 -36.5572 -36.5572 -36.5571 -36.5571 -36.5570 -36.5570
   -36.5570 -36.5570 -36.5564 -36.5564 -36.5535 -36.5534 -36.5533 -36.5533
   -36.5505 -36.5505 -36.5503 -36.5503 -36.5493 -36.5493 -36.5488 -36.5488
   -36.5480 -36.5479 -36.5474 -36.5473 -36.5463 -36.5463 -36.5451 -36.5450
   -36.5445 -36.5445 -36.5421 -36.5421 -36.5418 -36.5417 -36.5417 -36.5417
   -36.5416 -36.5416 -36.5410 -36.5410 -36.5397 -36.5396 -36.5395 -36.5394
     2.9421   2.9421   3.6060   3.6060   3.9604   3.9604   4.0399   4.0399
     4.0829   4.0829   4.0842   4.0842   4.1035   4.1035   4.1592   4.1592
     4.2345   4.2346   4.3184   4.3184   4.3502   4.3502   4.3836   4.3836
     4.3993   4.3993   4.4169   4.4169   4.5003   4.5004   4.5728   4.5728
     4.6101   4.6101   4.6166   4.6167   4.7385   4.7385   4.7447   4.7447
     4.7976   4.7976   4.8166   4.8166   4.8230   4.8230   4.9010   4.9010
     4.9982   4.9982   4.9992   4.9992   5.0580   5.0581   5.0696   5.0696
     5.0729   5.0729   5.0856   5.0856   5.1607   5.1608   5.1753   5.1754
     5.1772   5.1773   5.2300   5.2300   5.2428   5.2429   5.2529   5.2529
     5.2783   5.2783   5.3054   5.3054   5.3101   5.3102   5.3605   5.3605
     5.5213   5.5213   5.5578   5.5578   6.1354   6.1354   6.5462   6.5462
     7.1411   7.1411

          k = 0.0397 0.2778 0.2778 ( 41360 PWs)   bands (ev):

   -66.5652 -66.5649 -66.5649 -66.5648 -66.5644 -66.5643 -66.5643 -66.5643
   -66.5643 -66.5643 -66.5642 -66.5642 -66.5639 -66.5638 -66.5638 -66.5635
   -36.5591 -36.5579 -36.5578 -36.5577 -36.5575 -36.5575 -36.5571 -36.5571
   -36.5565 -36.5565 -36.5563 -36.5559 -36.5536 -36.5535 -36.5518 -36.5518
   -36.5506 -36.5504 -36.5499 -36.5499 -36.5497 -36.5491 -36.5490 -36.5490
   -36.5480 -36.5476 -36.5476 -36.5475 -36.5475 -36.5474 -36.5463 -36.5448
   -36.5444 -36.5436 -36.5435 -36.5421 -36.5420 -36.5419 -36.5419 -36.5414
   -36.5412 -36.5412 -36.5409 -36.5409 -36.5396 -36.5395 -36.5391 -36.5390
     2.8877   3.3012   3.3012   3.5594   4.0091   4.0091   4.0104   4.0459
     4.0459   4.0925   4.0994   4.1199   4.1296   4.1390   4.1780   4.1780
     4.2305   4.3482   4.3482   4.3560   4.3708   4.3708   4.3896   4.3936
     4.3937   4.4218   4.4253   4.4361   4.4415   4.4415   4.4752   4.5855
     4.6050   4.6123   4.6352   4.6470   4.6674   4.6674   4.6746   4.6905
     4.7867   4.7867   4.7893   4.7893   4.7969   4.7970   4.8773   4.9071
     4.9958   4.9961   5.0322   5.0322   5.0508   5.0509   5.0509   5.0573
     5.0764   5.0764   5.1066   5.1139   5.1273   5.1273   5.1304   5.1305
     5.1741   5.1778   5.1794   5.1986   5.2147   5.2455   5.2455   5.2512
     5.2670   5.2734   5.2794   5.2794   5.2846   5.3203   5.3239   5.3239
     5.5395   5.5395   5.5632   5.5983   6.1369   6.5322   6.5912   6.5912
     7.0203   7.0203

          k = 0.0397 0.2778-0.3571 ( 41380 PWs)   bands (ev):

   -66.5651 -66.5651 -66.5649 -66.5648 -66.5644 -66.5644 -66.5643 -66.5643
   -66.5643 -66.5643 -66.5643 -66.5642 -66.5639 -66.5638 -66.5637 -66.5636
   -36.5586 -36.5586 -36.5579 -36.5578 -36.5570 -36.5570 -36.5569 -36.5569
   -36.5568 -36.5568 -36.5565 -36.5565 -36.5528 -36.5528 -36.5518 -36.5517
   -36.5513 -36.5512 -36.5495 -36.5494 -36.5491 -36.5491 -36.5490 -36.5490
   -36.5481 -36.5480 -36.5479 -36.5478 -36.5476 -36.5475 -36.5460 -36.5460
   -36.5441 -36.5441 -36.5427 -36.5427 -36.5416 -36.5416 -36.5415 -36.5415
   -36.5415 -36.5415 -36.5411 -36.5411 -36.5392 -36.5392 -36.5391 -36.5391
     3.0809   3.0809   3.4319   3.4319   4.0200   4.0201   4.0804   4.0804
     4.0809   4.0809   4.0936   4.0936   4.1417   4.1417   4.1640   4.1641
     4.3101   4.3102   4.3710   4.3710   4.3917   4.3917   4.3965   4.3965
     4.4012   4.4012   4.4100   4.4100   4.4519   4.4520   4.4953   4.4953
     4.6327   4.6327   4.6784   4.6784   4.6814   4.6814   4.6944   4.6944
     4.7067   4.7067   4.7296   4.7296   4.7447   4.7447   4.8873   4.8873
     4.9896   4.9896   5.0029   5.0030   5.0856   5.0856   5.0909   5.0909
     5.0925   5.0925   5.0947   5.0947   5.0953   5.0954   5.1534   5.1535
     5.1541   5.1541   5.1729   5.1730   5.2129   5.2130   5.2259   5.2259
     5.2609   5.2609   5.2823   5.2823   5.2864   5.2864   5.3198   5.3198
     5.5613   5.5613   5.5794   5.5794   6.3492   6.3492   6.7601   6.7601
     6.8464   6.8464

          k = 0.0397-0.3571-0.3571 ( 41324 PWs)   bands (ev):

   -66.5650 -66.5650 -66.5650 -66.5649 -66.5644 -66.5644 -66.5644 -66.5643
   -66.5642 -66.5642 -66.5642 -66.5642 -66.5638 -66.5637 -66.5637 -66.5637
   -36.5584 -36.5584 -36.5584 -36.5583 -36.5569 -36.5569 -36.5569 -36.5568
   -36.5566 -36.5566 -36.5566 -36.5566 -36.5521 -36.5521 -36.5521 -36.5520
   -36.5500 -36.5499 -36.5499 -36.5499 -36.5494 -36.5494 -36.5494 -36.5493
   -36.5477 -36.5477 -36.5477 -36.5476 -36.5475 -36.5475 -36.5475 -36.5474
   -36.5433 -36.5433 -36.5433 -36.5433 -36.5415 -36.5415 -36.5415 -36.5414
   -36.5413 -36.5413 -36.5413 -36.5412 -36.5391 -36.5391 -36.5391 -36.5390
     3.2498   3.2498   3.2498   3.2498   4.0627   4.0627   4.0628   4.0628
     4.0976   4.0977   4.0977   4.0977   4.1605   4.1605   4.1605   4.1605
     4.4001   4.4001   4.4001   4.4001   4.4043   4.4043   4.4043   4.4043
     4.4150   4.4150   4.4150   4.4150   4.4158   4.4158   4.4158   4.4158
     4.6439   4.6439   4.6440   4.6440   4.6735   4.6736   4.6736   4.6736
     4.6887   4.6887   4.6888   4.6888   4.7796   4.7797   4.7797   4.7797
     5.0378   5.0378   5.0378   5.0378   5.0806   5.0806   5.0806   5.0806
     5.0994   5.0994   5.0994   5.0994   5.1229   5.1230   5.1230   5.1230
     5.1257   5.1257   5.1258   5.1258   5.2060   5.2060   5.2061   5.2061
     5.2695   5.2695   5.2695   5.2695   5.2973   5.2973   5.2973   5.2973
     5.5809   5.5809   5.5809   5.5810   6.5853   6.5853   6.5853   6.5853
     7.0031   7.0031

          k = 0.1190 0.1190 0.1190 ( 41425 PWs)   bands (ev):

   -66.5655 -66.5647 -66.5647 -66.5646 -66.5644 -66.5644 -66.5644 -66.5643
   -66.5643 -66.5642 -66.5642 -66.5642 -66.5641 -66.5641 -66.5640 -66.5633
   -36.5599 -36.5598 -36.5598 -36.5588 -36.5588 -36.5588 -36.5563 -36.5563
   -36.5546 -36.5545 -36.5545 -36.5545 -36.5543 -36.5522 -36.5522 -36.5505
   -36.5505 -36.5505 -36.5500 -36.5500 -36.5500 -36.5484 -36.5484 -36.5484
   -36.5471 -36.5470 -36.5470 -36.5468 -36.5468 -36.5468 -36.5466 -36.5466
   -36.5456 -36.5455 -36.5455 -36.5442 -36.5429 -36.5429 -36.5429 -36.5415
   -36.5401 -36.5401 -36.5401 -36.5395 -36.5395 -36.5391 -36.5391 -36.5391
     2.4064   3.6984   3.6984   3.6984   3.8019   3.8019   3.8019   3.8781
     3.8782   3.8782   4.0312   4.0312   4.2092   4.2273   4.2273   4.2273
     4.2669   4.2669   4.2669   4.3091   4.3092   4.3092   4.3428   4.3428
     4.4067   4.4067   4.4067   4.5400   4.5400   4.5550   4.5704   4.5704
     4.5860   4.5860   4.5860   4.6364   4.6364   4.6364   4.6993   4.7804
     4.7804   4.7804   4.8807   4.8807   4.8807   4.9709   4.9709   4.9709
     5.0440   5.0440   5.0440   5.1082   5.1082   5.1082   5.1119   5.1119
     5.1119   5.1397   5.1397   5.1397   5.1740   5.1740   5.2308   5.2309
     5.2309   5.2356   5.2356   5.2386   5.2386   5.3030   5.3030   5.3030
     5.3179   5.3733   5.3733   5.3733   5.4276   5.4276   5.4276   5.5004
     5.5004   5.5484   5.5484   5.5485   6.3072   6.3073   6.3073   6.3533
     6.3533   6.3533

          k = 0.1190 0.1190 0.1984 ( 41401 PWs)   bands (ev):

   -66.5654 -66.5648 -66.5646 -66.5646 -66.5645 -66.5644 -66.5644 -66.5643
   -66.5642 -66.5642 -66.5642 -66.5642 -66.5641 -66.5641 -66.5639 -66.5633
   -36.5595 -36.5595 -36.5592 -36.5584 -36.5578 -36.5578 -36.5566 -36.5558
   -36.5557 -36.5556 -36.5554 -36.5553 -36.5539 -36.5533 -36.5519 -36.5519
   -36.5515 -36.5514 -36.5500 -36.5500 -36.5489 -36.5489 -36.5488 -36.5488
   -36.5482 -36.5471 -36.5470 -36.5467 -36.5467 -36.5456 -36.5456 -36.5456
   -36.5455 -36.5448 -36.5441 -36.5433 -36.5428 -36.5419 -36.5419 -36.5418
   -36.5409 -36.5409 -36.5405 -36.5400 -36.5397 -36.5394 -36.5393 -36.5393
     2.5182   3.4222   3.7368   3.7368   3.7990   3.7990   3.8738   3.9314
     3.9314   3.9351   4.0640   4.0743   4.1728   4.2063   4.2063   4.2635
     4.2664   4.2902   4.2902   4.3077   4.3082   4.3134   4.3239   4.3581
     4.3581   4.4265   4.4266   4.4751   4.5295   4.5295   4.5507   4.5716
     4.5888   4.5891   4.5933   4.6237   4.6237   4.6381   4.7133   4.7133
     4.7510   4.8344   4.9239   4.9295   4.9295   4.9425   4.9425   4.9932
     4.9932   5.0129   5.0343   5.0534   5.0873   5.0874   5.1012   5.1012
     5.1316   5.1426   5.1437   5.1840   5.1841   5.1893   5.1907   5.1907
     5.1924   5.2213   5.2242   5.2268   5.2318   5.2354   5.2446   5.3089
     5.3089   5.3266   5.3561   5.3561   5.3681   5.4346   5.4424   5.4591
     5.4591   5.5123   5.5464   5.5464   6.0102   6.0102   6.4849   6.4849
     6.5536   6.8830

          k = 0.1190 0.1190 0.2778 ( 41407 PWs)   bands (ev):

   -66.5653 -66.5650 -66.5646 -66.5646 -66.5645 -66.5645 -66.5644 -66.5643
   -66.5642 -66.5642 -66.5642 -66.5641 -66.5641 -66.5641 -66.5637 -66.5634
   -36.5589 -36.5588 -36.5582 -36.5578 -36.5568 -36.5568 -36.5567 -36.5566
   -36.5566 -36.5562 -36.5561 -36.5555 -36.5550 -36.5535 -36.5535 -36.5528
   -36.5521 -36.5506 -36.5499 -36.5499 -36.5496 -36.5493 -36.5492 -36.5492
   -36.5473 -36.5472 -36.5472 -36.5463 -36.5463 -36.5458 -36.5458 -36.5442
   -36.5442 -36.5441 -36.5432 -36.5429 -36.5425 -36.5419 -36.5418 -36.5410
   -36.5410 -36.5410 -36.5409 -36.5407 -36.5406 -36.5397 -36.5397 -36.5396
     2.6826   3.1462   3.7727   3.7727   3.7991   3.7991   3.9740   3.9970
     3.9970   4.0081   4.1116   4.1316   4.1343   4.1460   4.1460   4.2143
     4.2444   4.2444   4.2678   4.2859   4.3149   4.3312   4.3312   4.4008
     4.4191   4.4191   4.4567   4.4568   4.4805   4.4805   4.5402   4.5572
     4.5746   4.5876   4.6574   4.6574   4.6757   4.6758   4.6910   4.7475
     4.8036   4.8037   4.8118   4.9124   4.9517   4.9558   4.9585   4.9585
     4.9839   4.9946   5.0124   5.0124   5.0155   5.0155   5.0628   5.0628
     5.1000   5.1157   5.1288   5.1288   5.1484   5.1567   5.1729   5.2079
     5.2085   5.2107   5.2329   5.2349   5.2508   5.2508   5.2584   5.2725
     5.2946   5.2946   5.3475   5.3482   5.4178   5.4178   5.4262   5.5021
     5.5205   5.5205   5.5277   5.5277   5.7961   5.7961   6.6660   6.6660
     6.8204   7.1407

          k = 0.1190 0.1190-0.3571 ( 41396 PWs)   bands (ev):

   -66.5652 -66.5652 -66.5646 -66.5646 -66.5645 -66.5645 -66.5644 -66.5643
   -66.5642 -66.5642 -66.5641 -66.5641 -66.5641 -66.5641 -66.5636 -66.5635
   -36.5580 -36.5580 -36.5579 -36.5579 -36.5571 -36.5570 -36.5570 -36.5570
   -36.5565 -36.5565 -36.5551 -36.5551 -36.5551 -36.5551 -36.5540 -36.5540
   -36.5509 -36.5509 -36.5499 -36.5499 -36.5496 -36.5496 -36.5496 -36.5496
   -36.5473 -36.5472 -36.5460 -36.5460 -36.5460 -36.5460 -36.5457 -36.5456
   -36.5430 -36.5430 -36.5430 -36.5429 -36.5419 -36.5419 -36.5417 -36.5417
   -36.5416 -36.5416 -36.5402 -36.5402 -36.5402 -36.5402 -36.5402 -36.5401
     2.8948   2.8948   3.7933   3.7933   3.7933   3.7933   4.0710   4.0710
     4.0710   4.0710   4.0801   4.0801   4.0926   4.0926   4.1725   4.1726
     4.1933   4.1933   4.2734   4.2734   4.3431   4.3431   4.3879   4.3879
     4.3879   4.3879   4.4783   4.4783   4.4783   4.4783   4.5414   4.5415
     4.5801   4.5801   4.6911   4.6911   4.6911   4.6912   4.7944   4.7944
     4.7944   4.7945   4.8305   4.8305   4.8580   4.8580   4.8804   4.8805
     5.0096   5.0096   5.0386   5.0386   5.0386   5.0386   5.0453   5.0454
     5.0764   5.0764   5.0764   5.0764   5.1835   5.1835   5.1904   5.1904
     5.2340   5.2340   5.2375   5.2376   5.2491   5.2491   5.2810   5.2810
     5.2810   5.2810   5.2886   5.2886   5.4722   5.4722   5.4755   5.4756
     5.4756   5.4756   5.6404   5.6404   5.6404   5.6404   6.8876   6.8876
     6.8876   6.8876

          k = 0.1190 0.1984 0.1984 ( 41405 PWs)   bands (ev):

   -66.5654 -66.5648 -66.5648 -66.5646 -66.5645 -66.5644 -66.5644 -66.5643
   -66.5642 -66.5642 -66.5642 -66.5641 -66.5641 -66.5639 -66.5639 -66.5634
   -36.5594 -36.5589 -36.5589 -36.5576 -36.5575 -36.5568 -36.5566 -36.5564
   -36.5564 -36.5562 -36.5558 -36.5556 -36.5543 -36.5530 -36.5521 -36.5518
   -36.5515 -36.5514 -36.5504 -36.5504 -36.5503 -36.5495 -36.5493 -36.5493
   -36.5469 -36.5469 -36.5467 -36.5466 -36.5464 -36.5460 -36.5457 -36.5446
   -36.5443 -36.5443 -36.5442 -36.5440 -36.5427 -36.5418 -36.5415 -36.5411
   -36.5411 -36.5410 -36.5410 -36.5403 -36.5399 -36.5398 -36.5395 -36.5392
     2.6275   3.4885   3.4885   3.7612   3.7846   3.8737   3.8737   3.9828
     3.9828   3.9923   4.0968   4.1151   4.1495   4.2175   4.2481   4.2481
     4.2674   4.2888   4.2889   4.3032   4.3493   4.3515   4.3516   4.3646
     4.3647   4.4018   4.4123   4.5010   4.5057   4.5152   4.5152   4.5276
     4.5467   4.5634   4.5830   4.5983   4.5983   4.6321   4.6871   4.7478
     4.7479   4.8141   4.8237   4.9026   4.9026   4.9736   4.9736   4.9766
     5.0206   5.0206   5.0240   5.0550   5.0550   5.0592   5.0689   5.1119
     5.1120   5.1155   5.1310   5.1310   5.1426   5.1510   5.1510   5.1538
     5.1819   5.2160   5.2220   5.2233   5.2321   5.2373   5.2475   5.2476
     5.2476   5.3267   5.3267   5.3605   5.4003   5.4145   5.4145   5.4543
     5.4543   5.5121   5.5397   5.5603   5.7424   6.2517   6.2517   6.6266
     7.0291   7.0291

          k = 0.1190 0.1984 0.2778 ( 41372 PWs)   bands (ev):

   -66.5653 -66.5650 -66.5648 -66.5646 -66.5646 -66.5645 -66.5644 -66.5644
   -66.5642 -66.5642 -66.5642 -66.5641 -66.5640 -66.5639 -66.5637 -66.5635
   -36.5590 -36.5583 -36.5580 -36.5574 -36.5572 -36.5570 -36.5569 -36.5568
   -36.5565 -36.5563 -36.5556 -36.5552 -36.5549 -36.5541 -36.5528 -36.5521
   -36.5514 -36.5512 -36.5509 -36.5503 -36.5502 -36.5499 -36.5498 -36.5487
   -36.5483 -36.5467 -36.5465 -36.5463 -36.5458 -36.5455 -36.5455 -36.5454
   -36.5445 -36.5436 -36.5430 -36.5429 -36.5429 -36.5421 -36.5418 -36.5413
   -36.5410 -36.5409 -36.5407 -36.5403 -36.5403 -36.5401 -36.5395 -36.5393
     2.7876   3.2318   3.5707   3.7142   3.8325   3.8737   3.9769   4.0431
     4.0444   4.0601   4.1286   4.1381   4.1747   4.1787   4.1965   4.2023
     4.2321   4.2901   4.3048   4.3241   4.3292   4.3338   4.3567   4.4006
     4.4240   4.4426   4.4474   4.4490   4.4508   4.4755   4.5002   4.5064
     4.5640   4.5804   4.5992   4.6051   4.6415   4.6646   4.6659   4.6975
     4.7086   4.7867   4.8095   4.8508   4.8532   4.8651   4.8865   4.8983
     5.0049   5.0195   5.0273   5.0295   5.0415   5.0432   5.0506   5.0520
     5.0921   5.1135   5.1198   5.1217   5.1365   5.1433   5.1612   5.1973
     5.1997   5.2036   5.2131   5.2319   5.2326   5.2371   5.2585   5.2591
     5.2610   5.2652   5.3214   5.3486   5.3663   5.3823   5.4419   5.4632
     5.4697   5.5133   5.5497   5.5626   5.6652   6.0146   6.5064   6.8174
     7.0492   7.2308

          k = 0.1190 0.1984-0.3571 ( 41368 PWs)   bands (ev):

   -66.5651 -66.5651 -66.5647 -66.5647 -66.5645 -66.5645 -66.5644 -66.5644
   -66.5642 -66.5642 -66.5641 -66.5641 -66.5640 -66.5640 -66.5636 -66.5636
   -36.5583 -36.5582 -36.5577 -36.5576 -36.5571 -36.5570 -36.5568 -36.5568
   -36.5568 -36.5568 -36.5554 -36.5553 -36.5539 -36.5539 -36.5537 -36.5537
   -36.5508 -36.5507 -36.5507 -36.5506 -36.5502 -36.5501 -36.5496 -36.5496
   -36.5471 -36.5470 -36.5467 -36.5466 -36.5460 -36.5460 -36.5449 -36.5449
   -36.5442 -36.5441 -36.5426 -36.5426 -36.5419 -36.5419 -36.5418 -36.5417
   -36.5416 -36.5416 -36.5405 -36.5404 -36.5398 -36.5398 -36.5397 -36.5397
     2.9924   2.9924   3.6504   3.6504   3.8632   3.8632   4.0952   4.0952
     4.0966   4.0966   4.1116   4.1117   4.1305   4.1306   4.1866   4.1866
     4.2413   4.2413   4.2989   4.2989   4.3809   4.3809   4.3852   4.3852
     4.3888   4.3888   4.4352   4.4352   4.4965   4.4965   4.5166   4.5166
     4.5693   4.5693   4.6237   4.6237   4.6933   4.6933   4.7013   4.7013
     4.7177   4.7178   4.7404   4.7404   4.7810   4.7810   4.8990   4.8991
     4.9663   4.9663   5.0362   5.0362   5.0698   5.0698   5.0722   5.0723
     5.0789   5.0789   5.0808   5.0808   5.1757   5.1758   5.1801   5.1801
     5.2239   5.2240   5.2289   5.2289   5.2340   5.2340   5.2388   5.2388
     5.2634   5.2634   5.3026   5.3027   5.4140   5.4140   5.4320   5.4320
     5.4972   5.4972   5.5178   5.5178   5.8235   5.8235   6.7712   6.7712
     7.0479   7.0479

          k = 0.1190 0.2778 0.2778 ( 41355 PWs)   bands (ev):

   -66.5652 -66.5649 -66.5649 -66.5647 -66.5645 -66.5645 -66.5645 -66.5644
   -66.5642 -66.5642 -66.5641 -66.5641 -66.5639 -66.5638 -66.5638 -66.5636
   -36.5588 -36.5577 -36.5576 -36.5576 -36.5576 -36.5574 -36.5570 -36.5565
   -36.5565 -36.5564 -36.5560 -36.5549 -36.5543 -36.5538 -36.5524 -36.5524
   -36.5515 -36.5511 -36.5506 -36.5505 -36.5504 -36.5504 -36.5504 -36.5496
   -36.5470 -36.5469 -36.5468 -36.5463 -36.5463 -36.5462 -36.5458 -36.5446
   -36.5441 -36.5434 -36.5433 -36.5429 -36.5424 -36.5419 -36.5417 -36.5417
   -36.5415 -36.5409 -36.5408 -36.5407 -36.5398 -36.5397 -36.5394 -36.5392
     2.9397   3.3483   3.3483   3.6072   3.8996   3.9733   3.9733   4.0918
     4.0919   4.1200   4.1286   4.1573   4.1662   4.1829   4.2087   4.2087
     4.2401   4.3329   4.3329   4.3531   4.3652   4.3894   4.3895   4.3971
     4.3971   4.4068   4.4389   4.4389   4.4415   4.4597   4.4722   4.5420
     4.5438   4.5552   4.5660   4.6024   4.6038   4.6038   4.6606   4.6750
     4.7107   4.7107   4.7193   4.7193   4.7525   4.7525   4.7713   4.8930
     4.9711   5.0398   5.0608   5.0608   5.0613   5.0854   5.0983   5.0983
     5.1160   5.1164   5.1287   5.1288   5.1363   5.1363   5.1543   5.1543
     5.1818   5.1905   5.1918   5.2135   5.2349   5.2460   5.2460   5.2484
     5.2484   5.2535   5.2583   5.2785   5.3607   5.3660   5.3660   5.4054
     5.5070   5.5070   5.5273   5.5560   5.8346   6.2473   6.2473   6.7574
     7.0173   7.5295

          k = 0.1190 0.2778-0.3571 ( 41388 PWs)   bands (ev):

   -66.5651 -66.5650 -66.5648 -66.5648 -66.5645 -66.5645 -66.5644 -66.5644
   -66.5642 -66.5642 -66.5641 -66.5641 -66.5639 -66.5638 -66.5637 -66.5637
   -36.5583 -36.5583 -36.5576 -36.5576 -36.5573 -36.5572 -36.5568 -36.5568
   -36.5565 -36.5564 -36.5557 -36.5557 -36.5535 -36.5534 -36.5521 -36.5521
   -36.5518 -36.5518 -36.5511 -36.5510 -36.5507 -36.5507 -36.5487 -36.5487
   -36.5483 -36.5482 -36.5463 -36.5462 -36.5460 -36.5460 -36.5455 -36.5454
   -36.5439 -36.5439 -36.5424 -36.5424 -36.5423 -36.5422 -36.5417 -36.5417
   -36.5416 -36.5415 -36.5408 -36.5408 -36.5395 -36.5395 -36.5394 -36.5393
     3.1311   3.1311   3.4801   3.4801   3.9502   3.9502   4.0776   4.0776
     4.1215   4.1215   4.1441   4.1441   4.1711   4.1711   4.1932   4.1932
     4.3159   4.3159   4.3500   4.3500   4.3887   4.3887   4.3913   4.3913
     4.4155   4.4155   4.4240   4.4240   4.4487   4.4487   4.4908   4.4909
     4.5783   4.5783   4.6009   4.6009   4.6020   4.6020   4.6219   4.6219
     4.6647   4.6647   4.6806   4.6806   4.7065   4.7065   4.7907   4.7907
     5.0606   5.0606   5.0622   5.0622   5.0955   5.0956   5.0967   5.0967
     5.1008   5.1008   5.1110   5.1110   5.1588   5.1589   5.1642   5.1642
     5.1729   5.1730   5.2084   5.2085   5.2135   5.2135   5.2393   5.2393
     5.2536   5.2536   5.2860   5.2860   5.3102   5.3103   5.3589   5.3589
     5.5265   5.5265   5.5407   5.5407   6.0274   6.0274   6.4933   6.4933
     7.2556   7.2556

          k = 0.1190-0.3571-0.3571 ( 41264 PWs)   bands (ev):

   -66.5649 -66.5649 -66.5649 -66.5649 -66.5645 -66.5645 -66.5645 -66.5645
   -66.5641 -66.5641 -66.5641 -66.5641 -66.5638 -66.5638 -66.5638 -66.5637
   -36.5581 -36.5581 -36.5581 -36.5580 -36.5569 -36.5569 -36.5569 -36.5568
   -36.5561 -36.5561 -36.5561 -36.5560 -36.5527 -36.5527 -36.5527 -36.5526
   -36.5510 -36.5510 -36.5510 -36.5509 -36.5504 -36.5504 -36.5504 -36.5503
   -36.5469 -36.5468 -36.5468 -36.5468 -36.5461 -36.5461 -36.5461 -36.5460
   -36.5430 -36.5430 -36.5430 -36.5430 -36.5419 -36.5419 -36.5419 -36.5418
   -36.5412 -36.5412 -36.5412 -36.5412 -36.5393 -36.5393 -36.5393 -36.5392
     3.2996   3.2996   3.2996   3.2996   4.0291   4.0291   4.0291   4.0291
     4.1442   4.1442   4.1442   4.1442   4.1905   4.1905   4.1905   4.1905
     4.3949   4.3949   4.3949   4.3950   4.4041   4.4042   4.4042   4.4042
     4.4116   4.4116   4.4116   4.4116   4.4263   4.4263   4.4263   4.4263
     4.5451   4.5452   4.5452   4.5452   4.6080   4.6080   4.6080   4.6080
     4.6726   4.6726   4.6726   4.6726   4.6943   4.6944   4.6944   4.6944
     5.1068   5.1068   5.1068   5.1068   5.1102   5.1103   5.1103   5.1103
     5.1303   5.1303   5.1304   5.1304   5.1436   5.1436   5.1436   5.1436
     5.1669   5.1669   5.1670   5.1670   5.2026   5.2027   5.2027   5.2027
     5.2461   5.2461   5.2461   5.2461   5.3246   5.3246   5.3246   5.3246
     5.5431   5.5432   5.5432   5.5432   6.2489   6.2490   6.2490   6.2490
     7.4983   7.4983

          k = 0.1984 0.1984 0.1984 ( 41389 PWs)   bands (ev):

   -66.5653 -66.5648 -66.5648 -66.5648 -66.5645 -66.5645 -66.5645 -66.5644
   -66.5642 -66.5641 -66.5641 -66.5641 -66.5639 -66.5639 -66.5639 -66.5634
   -36.5588 -36.5587 -36.5587 -36.5567 -36.5567 -36.5567 -36.5566 -36.5566
   -36.5566 -36.5562 -36.5562 -36.5561 -36.5536 -36.5536 -36.5518 -36.5518
   -36.5518 -36.5515 -36.5515 -36.5515 -36.5510 -36.5502 -36.5501 -36.5501
   -36.5459 -36.5459 -36.5459 -36.5458 -36.5458 -36.5458 -36.5453 -36.5447
   -36.5447 -36.5442 -36.5442 -36.5442 -36.5423 -36.5418 -36.5418 -36.5417
   -36.5408 -36.5407 -36.5407 -36.5400 -36.5400 -36.5398 -36.5398 -36.5398
     2.7349   3.5597   3.5597   3.5597   3.8434   3.8434   3.8434   4.0391
     4.0391   4.0391   4.1404   4.1422   4.1422   4.2853   4.2853   4.2853
     4.3006   4.3006   4.3006   4.3232   4.3232   4.3447   4.3447   4.3447
     4.3959   4.3959   4.3959   4.4481   4.5142   4.5142   4.5143   4.5250
     4.5250   4.5258   4.5258   4.5258   4.5721   4.5721   4.6829   4.6830
     4.6830   4.8025   4.8025   4.8025   4.8864   4.9071   4.9071   4.9071
     5.0023   5.0075   5.0075   5.0075   5.0908   5.0908   5.0908   5.0959
     5.0959   5.0959   5.1445   5.1445   5.1446   5.1601   5.1601   5.2075
     5.2075   5.2075   5.2182   5.2182   5.2232   5.2232   5.2232   5.2371
     5.2371   5.3622   5.3622   5.3622   5.4097   5.4097   5.4097   5.4470
     5.4470   5.4769   5.4769   5.4769   5.9745   5.9746   5.9746   7.0210
     7.1759   7.1759

          k = 0.1984 0.1984 0.2778 ( 41351 PWs)   bands (ev):

   -66.5652 -66.5649 -66.5647 -66.5647 -66.5646 -66.5646 -66.5645 -66.5644
   -66.5642 -66.5641 -66.5641 -66.5640 -66.5639 -66.5639 -66.5638 -66.5635
   -36.5584 -36.5584 -36.5578 -36.5572 -36.5572 -36.5570 -36.5567 -36.5565
   -36.5562 -36.5554 -36.5554 -36.5554 -36.5552 -36.5532 -36.5528 -36.5528
   -36.5527 -36.5518 -36.5518 -36.5509 -36.5508 -36.5508 -36.5499 -36.5497
   -36.5471 -36.5467 -36.5458 -36.5452 -36.5452 -36.5452 -36.5447 -36.5447
   -36.5444 -36.5444 -36.5432 -36.5429 -36.5426 -36.5426 -36.5420 -36.5417
   -36.5408 -36.5407 -36.5404 -36.5404 -36.5402 -36.5399 -36.5399 -36.5398
     2.8913   3.3193   3.6488   3.6488   3.8005   3.8005   3.9594   4.0908
     4.1050   4.1051   4.1369   4.1811   4.2015   4.2448   4.2452   4.2452
     4.2857   4.2989   4.2991   4.3077   4.3305   4.3306   4.3940   4.4011
     4.4011   4.4401   4.4402   4.4427   4.4427   4.4817   4.4919   4.4948
     4.4962   4.5175   4.5220   4.5516   4.5516   4.6313   4.6313   4.6455
     4.6970   4.6970   4.7108   4.7436   4.7532   4.7532   4.7662   4.8882
     4.9698   5.0481   5.0507   5.0507   5.0891   5.0891   5.0986   5.0986
     5.1269   5.1269   5.1289   5.1390   5.1512   5.1600   5.1746   5.1838
     5.2002   5.2145   5.2203   5.2228   5.2263   5.2263   5.2361   5.2361
     5.2584   5.2667   5.3620   5.3892   5.4262   5.4262   5.4483   5.4591
     5.4591   5.4701   5.4745   5.4745   5.7649   5.7649   6.2147   6.7304
     7.3775   7.3775

          k = 0.1984 0.1984-0.3571 ( 41366 PWs)   bands (ev):

   -66.5651 -66.5651 -66.5647 -66.5647 -66.5647 -66.5646 -66.5645 -66.5644
   -66.5641 -66.5641 -66.5640 -66.5640 -66.5640 -66.5640 -66.5636 -66.5636
   -36.5578 -36.5578 -36.5578 -36.5578 -36.5570 -36.5569 -36.5566 -36.5566
   -36.5564 -36.5564 -36.5544 -36.5544 -36.5542 -36.5541 -36.5541 -36.5541
   -36.5519 -36.5518 -36.5515 -36.5514 -36.5514 -36.5514 -36.5485 -36.5484
   -36.5483 -36.5482 -36.5455 -36.5455 -36.5447 -36.5447 -36.5447 -36.5447
   -36.5436 -36.5436 -36.5436 -36.5435 -36.5418 -36.5418 -36.5418 -36.5417
   -36.5417 -36.5417 -36.5401 -36.5401 -36.5401 -36.5401 -36.5399 -36.5399
     3.0900   3.0900   3.7349   3.7349   3.7349   3.7349   4.0990   4.0990
     4.1253   4.1253   4.1764   4.1764   4.1764   4.1765   4.2299   4.2299
     4.2616   4.2617   4.3004   4.3004   4.3785   4.3785   4.3785   4.3785
     4.4270   4.4270   4.4552   4.4552   4.4552   4.4552   4.4834   4.4834
     4.5195   4.5195   4.5994   4.5994   4.6230   4.6231   4.6231   4.6231
     4.6266   4.6266   4.6267   4.6267   4.7128   4.7128   4.7851   4.7851
     5.0612   5.0612   5.0904   5.0905   5.0922   5.0922   5.0922   5.0922
     5.0933   5.0933   5.0933   5.0933   5.1798   5.1799   5.1805   5.1806
     5.2129   5.2129   5.2218   5.2219   5.2349   5.2349   5.2349   5.2349
     5.2679   5.2679   5.3167   5.3167   5.4537   5.4537   5.4537   5.4538
     5.4698   5.4698   5.5975   5.5975   5.5975   5.5976   6.4648   6.4648
     7.6240   7.6240

          k = 0.1984 0.2778 0.2778 ( 41369 PWs)   bands (ev):

   -66.5651 -66.5649 -66.5649 -66.5647 -66.5647 -66.5646 -66.5646 -66.5645
   -66.5641 -66.5641 -66.5641 -66.5640 -66.5639 -66.5638 -66.5638 -66.5636
   -36.5581 -36.5575 -36.5575 -36.5573 -36.5573 -36.5571 -36.5568 -36.5561
   -36.5556 -36.5556 -36.5555 -36.5551 -36.5542 -36.5537 -36.5532 -36.5531
   -36.5531 -36.5522 -36.5518 -36.5518 -36.5517 -36.5513 -36.5513 -36.5484
   -36.5481 -36.5459 -36.5459 -36.5450 -36.5450 -36.5446 -36.5443 -36.5443
   -36.5438 -36.5436 -36.5431 -36.5431 -36.5427 -36.5423 -36.5423 -36.5419
   -36.5411 -36.5407 -36.5407 -36.5405 -36.5401 -36.5401 -36.5399 -36.5398
     3.0412   3.4388   3.4388   3.7000   3.7494   3.9214   3.9214   4.1493
     4.1493   4.1538   4.1683   4.1932   4.2174   4.2587   4.2669   4.2669
     4.2670   4.3293   4.3293   4.3484   4.3495   4.3763   4.3763   4.3805
     4.4054   4.4227   4.4227   4.4364   4.4364   4.4449   4.4669   4.4770
     4.4827   4.4991   4.5086   4.5207   4.5207   4.5960   4.6089   4.6121
     4.6121   4.6159   4.6221   4.6222   4.6413   4.6748   4.6748   4.7738
     5.0658   5.0818   5.0818   5.0825   5.1037   5.1290   5.1348   5.1362
     5.1414   5.1414   5.1450   5.1451   5.1672   5.1672   5.1785   5.1883
     5.2111   5.2135   5.2135   5.2158   5.2167   5.2228   5.2228   5.2364
     5.2778   5.3054   5.3054   5.3268   5.3928   5.3928   5.3945   5.4559
     5.4559   5.4623   5.4842   5.5786   5.6101   5.9800   5.9800   6.4545
     7.5771   7.9970

          k = 0.1984 0.2778-0.3571 ( 41360 PWs)   bands (ev):

   -66.5650 -66.5650 -66.5648 -66.5648 -66.5646 -66.5646 -66.5645 -66.5645
   -66.5641 -66.5641 -66.5640 -66.5640 -66.5639 -66.5639 -66.5637 -66.5637
   -36.5578 -36.5577 -36.5572 -36.5572 -36.5572 -36.5571 -36.5565 -36.5565
   -36.5559 -36.5559 -36.5547 -36.5547 -36.5543 -36.5543 -36.5528 -36.5527
   -36.5526 -36.5526 -36.5526 -36.5525 -36.5522 -36.5522 -36.5497 -36.5497
   -36.5472 -36.5471 -36.5448 -36.5447 -36.5447 -36.5447 -36.5446 -36.5445
   -36.5436 -36.5436 -36.5430 -36.5430 -36.5421 -36.5420 -36.5420 -36.5420
   -36.5417 -36.5417 -36.5407 -36.5406 -36.5399 -36.5399 -36.5399 -36.5398
     3.2286   3.2286   3.5733   3.5733   3.8490   3.8490   4.0631   4.0631
     4.1654   4.1655   4.2150   4.2150   4.2251   4.2251   4.2485   4.2485
     4.3264   4.3264   4.3356   4.3356   4.3824   4.3824   4.3840   4.3841
     4.4176   4.4176   4.4432   4.4433   4.4489   4.4489   4.4705   4.4705
     4.4877   4.4877   4.5091   4.5091   4.5151   4.5151   4.5562   4.5562
     4.5613   4.5613   4.6146   4.6146   4.6426   4.6427   4.6762   4.6762
     5.1126   5.1126   5.1132   5.1132   5.1166   5.1166   5.1342   5.1343
     5.1459   5.1459   5.1671   5.1672   5.1679   5.1680   5.1873   5.1873
     5.2024   5.2025   5.2118   5.2118   5.2195   5.2195   5.2299   5.2299
     5.2482   5.2482   5.3229   5.3229   5.3877   5.3878   5.4287   5.4287
     5.4672   5.4672   5.4746   5.4746   5.7829   5.7829   6.2079   6.2079
     7.8204   7.8204

          k = 0.1984-0.3571-0.3571 ( 41356 PWs)   bands (ev):

   -66.5649 -66.5649 -66.5649 -66.5649 -66.5646 -66.5646 -66.5646 -66.5646
   -66.5640 -66.5640 -66.5640 -66.5640 -66.5638 -66.5638 -66.5638 -66.5638
   -36.5575 -36.5575 -36.5575 -36.5574 -36.5567 -36.5567 -36.5567 -36.5566
   -36.5553 -36.5553 -36.5553 -36.5552 -36.5537 -36.5537 -36.5536 -36.5536
   -36.5527 -36.5527 -36.5527 -36.5526 -36.5513 -36.5513 -36.5513 -36.5512
   -36.5459 -36.5459 -36.5459 -36.5459 -36.5445 -36.5445 -36.5445 -36.5444
   -36.5427 -36.5427 -36.5426 -36.5426 -36.5425 -36.5425 -36.5425 -36.5424
   -36.5413 -36.5413 -36.5413 -36.5412 -36.5399 -36.5399 -36.5399 -36.5398
     3.3962   3.3962   3.3962   3.3963   3.9707   3.9707   3.9707   3.9707
     4.2057   4.2058   4.2058   4.2058   4.2480   4.2480   4.2480   4.2480
     4.3896   4.3896   4.3896   4.3897   4.4057   4.4057   4.4057   4.4057
     4.4115   4.4115   4.4115   4.4115   4.4327   4.4327   4.4327   4.4327
     4.4369   4.4369   4.4369   4.4369   4.5233   4.5233   4.5233   4.5233
     4.5866   4.5866   4.5866   4.5866   4.6108   4.6108   4.6108   4.6108
     5.1239   5.1239   5.1239   5.1239   5.1433   5.1434   5.1434   5.1434
     5.1805   5.1805   5.1805   5.1805   5.1921   5.1922   5.1922   5.1922
     5.1959   5.1959   5.1960   5.1960   5.2240   5.2240   5.2240   5.2241
     5.2918   5.2919   5.2919   5.2919   5.3408   5.3409   5.3409   5.3409
     5.4765   5.4766   5.4766   5.4766   5.9846   5.9846   5.9846   5.9846
     8.0531   8.0531

          k = 0.2778 0.2778 0.2778 ( 41401 PWs)   bands (ev):

   -66.5651 -66.5648 -66.5648 -66.5648 -66.5647 -66.5647 -66.5646 -66.5645
   -66.5641 -66.5640 -66.5640 -66.5640 -66.5639 -66.5639 -66.5638 -66.5637
   -36.5573 -36.5572 -36.5572 -36.5570 -36.5570 -36.5570 -36.5560 -36.5560
   -36.5557 -36.5547 -36.5547 -36.5547 -36.5547 -36.5546 -36.5536 -36.5536
   -36.5536 -36.5529 -36.5528 -36.5528 -36.5524 -36.5524 -36.5524 -36.5496
   -36.5472 -36.5449 -36.5449 -36.5449 -36.5440 -36.5440 -36.5440 -36.5431
   -36.5431 -36.5430 -36.5430 -36.5430 -36.5430 -36.5429 -36.5429 -36.5421
   -36.5408 -36.5408 -36.5407 -36.5407 -36.5407 -36.5405 -36.5404 -36.5404
     3.1870   3.5632   3.5632   3.5632   3.8319   3.8320   3.8320   4.1499
     4.1902   4.2165   4.2165   4.2165   4.2847   4.2847   4.3406   4.3406
     4.3406   4.3418   4.3418   4.3435   4.3435   4.3435   4.3489   4.3489
     4.3489   4.4348   4.4349   4.4349   4.4415   4.4415   4.4415   4.4487
     4.4487   4.4487   4.4603   4.4603   4.5177   4.5177   4.5177   4.5352
     4.5352   4.5527   4.5527   4.5527   4.5839   4.5839   4.5839   4.6578
     5.1087   5.1087   5.1087   5.1488   5.1488   5.1488   5.1593   5.1593
     5.1679   5.1679   5.1680   5.1755   5.1954   5.1954   5.2066   5.2066
     5.2067   5.2072   5.2073   5.2073   5.2129   5.2129   5.2130   5.2594
     5.2594   5.3794   5.3794   5.4010   5.4010   5.4010   5.4120   5.4121
     5.4121   5.4384   5.4384   5.4384   5.7689   5.7690   5.7690   6.1983
     8.1891   8.1891

          k = 0.2778 0.2778-0.3571 ( 41412 PWs)   bands (ev):

   -66.5650 -66.5649 -66.5648 -66.5648 -66.5648 -66.5647 -66.5646 -66.5646
   -66.5640 -66.5640 -66.5639 -66.5639 -66.5639 -66.5639 -66.5638 -66.5637
   -36.5570 -36.5570 -36.5570 -36.5570 -36.5566 -36.5566 -36.5561 -36.5561
   -36.5552 -36.5552 -36.5549 -36.5549 -36.5538 -36.5538 -36.5536 -36.5536
   -36.5536 -36.5536 -36.5535 -36.5535 -36.5535 -36.5535 -36.5510 -36.5510
   -36.5461 -36.5460 -36.5439 -36.5439 -36.5439 -36.5438 -36.5436 -36.5435
   -36.5433 -36.5432 -36.5432 -36.5432 -36.5425 -36.5425 -36.5418 -36.5418
   -36.5418 -36.5417 -36.5407 -36.5407 -36.5407 -36.5406 -36.5405 -36.5405
     3.3668   3.3668   3.7038   3.7038   3.7038   3.7038   3.9917   3.9917
     4.2227   4.2228   4.2861   4.2861   4.2861   4.2861   4.3157   4.3158
     4.3405   4.3405   4.3465   4.3465   4.3808   4.3808   4.3808   4.3808
     4.4114   4.4114   4.4240   4.4240   4.4240   4.4240   4.4324   4.4324
     4.4539   4.4539   4.4619   4.4619   4.4635   4.4635   4.4635   4.4635
     4.5269   4.5269   4.5269   4.5270   4.5639   4.5640   4.5654   4.5654
     5.1348   5.1348   5.1348   5.1348   5.1353   5.1353   5.1719   5.1719
     5.1865   5.1866   5.1994   5.1994   5.1994   5.1994   5.2020   5.2020
     5.2060   5.2061   5.2061   5.2061   5.2219   5.2219   5.2906   5.2906
     5.2978   5.2979   5.3225   5.3225   5.3990   5.3990   5.3990   5.3990
     5.4079   5.4079   5.5929   5.5930   5.5930   5.5930   5.9736   5.9737
     8.4238   8.4238

          k = 0.2778-0.3571-0.3571 ( 41408 PWs)   bands (ev):

   -66.5649 -66.5649 -66.5649 -66.5648 -66.5647 -66.5647 -66.5647 -66.5647
   -66.5640 -66.5640 -66.5640 -66.5639 -66.5638 -66.5638 -66.5638 -66.5638
   -36.5566 -36.5566 -36.5566 -36.5565 -36.5562 -36.5562 -36.5562 -36.5562
   -36.5547 -36.5547 -36.5546 -36.5546 -36.5544 -36.5544 -36.5544 -36.5543
   -36.5542 -36.5542 -36.5541 -36.5540 -36.5523 -36.5523 -36.5523 -36.5522
   -36.5450 -36.5449 -36.5449 -36.5449 -36.5432 -36.5432 -36.5432 -36.5431
   -36.5431 -36.5431 -36.5431 -36.5430 -36.5422 -36.5422 -36.5422 -36.5421
   -36.5415 -36.5415 -36.5415 -36.5414 -36.5407 -36.5407 -36.5407 -36.5406
     3.5328   3.5328   3.5328   3.5328   3.8550   3.8550   3.8550   3.8550
     4.2823   4.2824   4.2824   4.2824   4.3270   4.3270   4.3270   4.3270
     4.3813   4.3814   4.3814   4.3814   4.3890   4.3890   4.3890   4.3891
     4.3987   4.3987   4.3987   4.3987   4.4204   4.4204   4.4204   4.4204
     4.4333   4.4333   4.4334   4.4334   4.4462   4.4463   4.4463   4.4463
     4.4786   4.4786   4.4786   4.4786   4.5228   4.5228   4.5228   4.5228
     5.1469   5.1469   5.1469   5.1469   5.1584   5.1585   5.1585   5.1585
     5.1859   5.1860   5.1860   5.1860   5.1997   5.1997   5.1997   5.1998
     5.2374   5.2374   5.2374   5.2374   5.2617   5.2617   5.2617   5.2617
     5.3376   5.3376   5.3376   5.3377   5.3947   5.3947   5.3947   5.3947
     5.4357   5.4358   5.4358   5.4358   5.7729   5.7729   5.7729   5.7729
     8.6123   8.6123

          k =-0.3571-0.3571-0.3571 ( 41328 PWs)   bands (ev):

   -66.5648 -66.5648 -66.5648 -66.5648 -66.5648 -66.5648 -66.5648 -66.5647
   -66.5639 -66.5639 -66.5639 -66.5639 -66.5639 -66.5639 -66.5639 -66.5638
   -36.5555 -36.5555 -36.5555 -36.5555 -36.5555 -36.5555 -36.5555 -36.5555
   -36.5555 -36.5555 -36.5555 -36.5555 -36.5555 -36.5555 -36.5553 -36.5553
   -36.5534 -36.5533 -36.5533 -36.5533 -36.5533 -36.5533 -36.5533 -36.5532
   -36.5440 -36.5440 -36.5440 -36.5440 -36.5440 -36.5440 -36.5440 -36.5439
   -36.5418 -36.5418 -36.5418 -36.5418 -36.5418 -36.5418 -36.5418 -36.5418
   -36.5418 -36.5417 -36.5417 -36.5417 -36.5417 -36.5417 -36.5416 -36.5416
     3.6950   3.6950   3.6950   3.6950   3.6950   3.6950   3.6950   3.6950
     4.3692   4.3693   4.3693   4.3693   4.3693   4.3693   4.3693   4.3693
     4.3925   4.3925   4.3925   4.3925   4.3925   4.3925   4.3925   4.3925
     4.3926   4.3926   4.3926   4.3926   4.3926   4.3926   4.3926   4.3926
     4.4285   4.4285   4.4285   4.4285   4.4285   4.4286   4.4286   4.4286
     4.4286   4.4286   4.4286   4.4286   4.4286   4.4286   4.4286   4.4286
     5.1731   5.1731   5.1731   5.1732   5.1732   5.1732   5.1732   5.1732
     5.1732   5.1732   5.1732   5.1732   5.1732   5.1733   5.1733   5.1733
     5.3112   5.3112   5.3112   5.3112   5.3112   5.3112   5.3112   5.3112
     5.3113   5.3113   5.3113   5.3113   5.3113   5.3113   5.3113   5.3113
     5.5943   5.5943   5.5944   5.5944   5.5944   5.5944   5.5944   5.5944
     8.9118   8.9118

     the Fermi energy is     5.2304 ev

!    total energy              =   -6900.77046224 Ry

     total all-electron energy =   -144988.965632 Ry
     estimated scf accuracy    <       0.00000069 Ry
     smearing contrib. (-TS)   =      -0.06079695 Ry
     internal energy E=F+TS    =   -6900.70966529 Ry

     The total energy is F=E-TS. E is the sum of the following terms:
     one-electron contribution =   -1675.77488544 Ry
     hartree contribution      =     889.48171378 Ry
     xc contribution           =    -456.79059248 Ry
     ewald contribution        =   -1863.17200948 Ry
     one-center paw contrib.   =   -3794.45389166 Ry

     convergence has been achieved in  14 iterations

     Forces acting on atoms (cartesian axes, Ry/au):

     atom    1 type  1   force =     0.00000000    0.00000000    0.00000000
     atom    2 type  1   force =     0.00003877    0.00003877    0.00003877
     atom    3 type  1   force =     0.00000000    0.00000000    0.00000000
     atom    4 type  1   force =     0.00003877    0.00003877   -0.00003877
     atom    5 type  1   force =     0.00000000    0.00000000    0.00000000
     atom    6 type  1   force =     0.00003877   -0.00003877    0.00003877
     atom    7 type  1   force =     0.00000000    0.00000000    0.00000000
     atom    8 type  1   force =     0.00003877   -0.00003877   -0.00003877
     atom    9 type  1   force =     0.00000000    0.00000000    0.00000000
     atom   10 type  1   force =    -0.00003877    0.00003877    0.00003877
     atom   11 type  1   force =     0.00000000    0.00000000    0.00000000
     atom   12 type  1   force =    -0.00003877    0.00003877   -0.00003877
     atom   13 type  1   force =     0.00000000    0.00000000    0.00000000
     atom   14 type  1   force =    -0.00003877   -0.00003877    0.00003877
     atom   15 type  1   force =     0.00000000    0.00000000    0.00000000
     atom   16 type  1   force =    -0.00003877   -0.00003877   -0.00003877

     Total force =     0.000190     Total SCF correction =     0.000794
     SCF correction compared to forces is large: reduce conv_thr to get better values


     Computing stress (Cartesian axis) and pressure

          total   stress  (Ry/bohr**3)                   (kbar)     P=     -209.85
  -0.00142652   0.00000000   0.00000000         -209.85        0.00        0.00
   0.00000000  -0.00142652   0.00000000            0.00     -209.85        0.00
   0.00000000   0.00000000  -0.00142652            0.00        0.00     -209.85


     Writing output data file /scratch/cFVGWowTsIqOIAuZ.save/
 
     init_run     :      6.73s CPU      6.84s WALL (       1 calls)
     electrons    :    243.97s CPU    247.79s WALL (       1 calls)
     forces       :      1.67s CPU      1.71s WALL (       1 calls)
     stress       :      8.90s CPU      8.99s WALL (       1 calls)

     Called by init_run:
     wfcinit      :      5.90s CPU      5.96s WALL (       1 calls)
     potinit      :      0.14s CPU      0.15s WALL (       1 calls)
     hinit0       :      0.15s CPU      0.16s WALL (       1 calls)

     Called by electrons:
     c_bands      :    205.47s CPU    208.13s WALL (      15 calls)
     sum_band     :     36.75s CPU     37.59s WALL (      15 calls)
     v_of_rho     :      0.26s CPU      0.29s WALL (      15 calls)
     newd         :      0.42s CPU      0.57s WALL (      15 calls)
     PAW_pot      :      1.01s CPU      1.10s WALL (      15 calls)
     mix_rho      :      0.09s CPU      0.11s WALL (      15 calls)

     Called by c_bands:
     init_us_2    :      1.41s CPU      1.45s WALL (    1155 calls)
     cegterg      :    200.18s CPU    202.69s WALL (     525 calls)

     Called by *egterg:
     cdiaghg      :     19.55s CPU     19.67s WALL (    1768 calls)
     h_psi        :    127.43s CPU    129.15s WALL (    1838 calls)
     s_psi        :      5.28s CPU      5.32s WALL (    1838 calls)
     g_psi        :      0.25s CPU      0.26s WALL (    1278 calls)

     Called by h_psi:
     h_psi:calbec :      9.99s CPU     10.07s WALL (    1838 calls)
     vloc_psi     :    111.36s CPU    112.93s WALL (    1838 calls)
     add_vuspsi   :      5.45s CPU      5.50s WALL (    1838 calls)

     General routines
     calbec       :     17.07s CPU     17.19s WALL (    2538 calls)
     fft          :      0.28s CPU      0.30s WALL (     219 calls)
     ffts         :      0.02s CPU      0.03s WALL (      30 calls)
     fftw         :    136.71s CPU    138.71s WALL (  438314 calls)
     interpolate  :      0.03s CPU      0.05s WALL (      15 calls)
 
     Parallel routines
     fft_scatt_xy :     10.77s CPU     10.94s WALL (  438563 calls)
     fft_scatt_yz :    104.27s CPU    105.83s WALL (  438563 calls)
 
     PWSCF        :   4m28.31s CPU   4m33.75s WALL

 
   This run was terminated on:   0: 0: 6  26Nov2021            

=------------------------------------------------------------------------------=
   JOB DONE.
=------------------------------------------------------------------------------=
