
     Program PWSCF v.6.7MaX starts on 26Nov2021 at  0:53:33 

     This program is part of the open-source Quantum ESPRESSO suite
     for quantum simulation of materials; please cite
         "P. Giannozzi et al., J. Phys.:Condens. Matter 21 395502 (2009);
         "P. Giannozzi et al., J. Phys.:Condens. Matter 29 465901 (2017);
          URL http://www.quantum-espresso.org", 
     in publications or presentations arising from this work. More details at
     http://www.quantum-espresso.org/quote

     Parallel version (MPI & OpenMP), running on      72 processor cores
     Number of MPI processes:                72
     Threads/MPI process:                     1

     MPI processes distributed on     1 nodes
     R & G space division:  proc/nbgrp/npool/nimage =      72
     Reading input from bcc_11.in
Warning: card &CELL ignored
Warning: card CELL_DYNAMICS = 'BFGS', ignored
Warning: card CELL_FACTOR = 2.0, ignored
Warning: card PRESS = 0.0, ignored
Warning: card / ignored

     Current dimensions of program PWSCF are:
     Max number of different atomic species (ntypx) = 10
     Max number of k-points (npk) =  40000
     Max angular momentum in pseudopotentials (lmaxx) =  3
     file Ru.pbe-spn-kjpaw_psl.1.0.0.UPF: wavefunction(s)  4D renormalized

     Subspace diagonalization in iterative solution of the eigenvalue problem:
     one sub-group per band group will be used
     ELPA distributed-memory algorithm (size of sub-group:  8*  8 procs)

     Found symmetry operation: I + (  0.2500  0.2500  0.2500)
     This is a supercell, fractional translations are disabled
     Message from routine setup:
     using ibrav=0 with symmetry is DISCOURAGED, use correct ibrav instead
 
     Parallelization info
     --------------------
     sticks:   dense  smooth     PW     G-vecs:    dense   smooth      PW
     Min         248     164     43                24984    13406    1821
     Max         249     165     44                24991    13412    1826
     Sum       17889   11817   3125              1798911   965435  131299
 


     bravais-lattice index     =            0
     lattice parameter (alat)  =      11.4293  a.u.
     unit-cell volume          =   11943.9123 (a.u.)^3
     number of atoms/cell      =           16
     number of atomic types    =            1
     number of electrons       =       256.00
     number of Kohn-Sham states=          154
     kinetic-energy cutoff     =      71.0000  Ry
     charge density cutoff     =     430.0000  Ry
     scf convergence threshold =      1.0E-06
     mixing beta               =       0.1000
     number of iterations used =           10  TF        mixing
     Exchange-correlation= SLA  PW   PBX  PBC
                           (   1   4   3   4   0   0   0)

     celldm(1)=  11.429280  celldm(2)=   0.000000  celldm(3)=   0.000000
     celldm(4)=   0.000000  celldm(5)=   0.000000  celldm(6)=   0.000000

     crystal axes: (cart. coord. in units of alat)
               a(1) = (   2.000000   0.000000   0.000000 )  
               a(2) = (   0.000000   2.000000   0.000000 )  
               a(3) = (   0.000000   0.000000   2.000000 )  

     reciprocal axes: (cart. coord. in units 2 pi/alat)
               b(1) = (  0.500000  0.000000  0.000000 )  
               b(2) = (  0.000000  0.500000  0.000000 )  
               b(3) = (  0.000000  0.000000  0.500000 )  


     PseudoPot. # 1 for Ru read from file:
     /rds/homes/b/bxp912/pp/Ru.pbe-spn-kjpaw_psl.1.0.0.UPF
     MD5 check sum: 0ae1f594dea09af7be8575c3a481d1ae
     Pseudo is Projector augmented-wave + core cor, Zval = 16.0
     Generated using "atomic" code by A. Dal Corso  v.5.1
     Shape of augmentation charge: PSQ
     Using radial grid of 1233 points,  6 beta functions with: 
                l(1) =   0
                l(2) =   0
                l(3) =   1
                l(4) =   1
                l(5) =   2
                l(6) =   2
     Q(r) pseudized with 0 coefficients 


     atomic species   valence    mass     pseudopotential
        Ru            16.00   101.07000     Ru( 1.00)

     48 Sym. Ops., with inversion, found



   Cartesian axes

     site n.     atom                  positions (alat units)
         1           Ru  tau(   1) = (   0.0000000   0.0000000   0.0000000  )
         2           Ru  tau(   2) = (   0.5000000   0.5000000   0.5000000  )
         3           Ru  tau(   3) = (   0.0000000   0.0000000   1.0000000  )
         4           Ru  tau(   4) = (   0.5000000   0.5000000   1.5000000  )
         5           Ru  tau(   5) = (   0.0000000   1.0000000   0.0000000  )
         6           Ru  tau(   6) = (   0.5000000   1.5000000   0.5000000  )
         7           Ru  tau(   7) = (   0.0000000   1.0000000   1.0000000  )
         8           Ru  tau(   8) = (   0.5000000   1.5000000   1.5000000  )
         9           Ru  tau(   9) = (   1.0000000   0.0000000   0.0000000  )
        10           Ru  tau(  10) = (   1.5000000   0.5000000   0.5000000  )
        11           Ru  tau(  11) = (   1.0000000   0.0000000   1.0000000  )
        12           Ru  tau(  12) = (   1.5000000   0.5000000   1.5000000  )
        13           Ru  tau(  13) = (   1.0000000   1.0000000   0.0000000  )
        14           Ru  tau(  14) = (   1.5000000   1.5000000   0.5000000  )
        15           Ru  tau(  15) = (   1.0000000   1.0000000   1.0000000  )
        16           Ru  tau(  16) = (   1.5000000   1.5000000   1.5000000  )

     number of k points=    35  Marzari-Vanderbilt smearing, width (Ry)=  0.0400
                       cart. coord. in units 2pi/alat
        k(    1) = (   0.0277778   0.0277778   0.0277778), wk =   0.0219479
        k(    2) = (   0.0277778   0.0277778   0.0833333), wk =   0.0658436
        k(    3) = (   0.0277778   0.0277778   0.1388889), wk =   0.0658436
        k(    4) = (   0.0277778   0.0277778   0.1944444), wk =   0.0658436
        k(    5) = (   0.0277778   0.0277778  -0.2500000), wk =   0.0329218
        k(    6) = (   0.0277778   0.0833333   0.0833333), wk =   0.0658436
        k(    7) = (   0.0277778   0.0833333   0.1388889), wk =   0.1316872
        k(    8) = (   0.0277778   0.0833333   0.1944444), wk =   0.1316872
        k(    9) = (   0.0277778   0.0833333  -0.2500000), wk =   0.0658436
        k(   10) = (   0.0277778   0.1388889   0.1388889), wk =   0.0658436
        k(   11) = (   0.0277778   0.1388889   0.1944444), wk =   0.1316872
        k(   12) = (   0.0277778   0.1388889  -0.2500000), wk =   0.0658436
        k(   13) = (   0.0277778   0.1944444   0.1944444), wk =   0.0658436
        k(   14) = (   0.0277778   0.1944444  -0.2500000), wk =   0.0658436
        k(   15) = (   0.0277778  -0.2500000  -0.2500000), wk =   0.0164609
        k(   16) = (   0.0833333   0.0833333   0.0833333), wk =   0.0219479
        k(   17) = (   0.0833333   0.0833333   0.1388889), wk =   0.0658436
        k(   18) = (   0.0833333   0.0833333   0.1944444), wk =   0.0658436
        k(   19) = (   0.0833333   0.0833333  -0.2500000), wk =   0.0329218
        k(   20) = (   0.0833333   0.1388889   0.1388889), wk =   0.0658436
        k(   21) = (   0.0833333   0.1388889   0.1944444), wk =   0.1316872
        k(   22) = (   0.0833333   0.1388889  -0.2500000), wk =   0.0658436
        k(   23) = (   0.0833333   0.1944444   0.1944444), wk =   0.0658436
        k(   24) = (   0.0833333   0.1944444  -0.2500000), wk =   0.0658436
        k(   25) = (   0.0833333  -0.2500000  -0.2500000), wk =   0.0164609
        k(   26) = (   0.1388889   0.1388889   0.1388889), wk =   0.0219479
        k(   27) = (   0.1388889   0.1388889   0.1944444), wk =   0.0658436
        k(   28) = (   0.1388889   0.1388889  -0.2500000), wk =   0.0329218
        k(   29) = (   0.1388889   0.1944444   0.1944444), wk =   0.0658436
        k(   30) = (   0.1388889   0.1944444  -0.2500000), wk =   0.0658436
        k(   31) = (   0.1388889  -0.2500000  -0.2500000), wk =   0.0164609
        k(   32) = (   0.1944444   0.1944444   0.1944444), wk =   0.0219479
        k(   33) = (   0.1944444   0.1944444  -0.2500000), wk =   0.0329218
        k(   34) = (   0.1944444  -0.2500000  -0.2500000), wk =   0.0164609
        k(   35) = (  -0.2500000  -0.2500000  -0.2500000), wk =   0.0027435

     Dense  grid:  1798911 G-vectors     FFT dimensions: ( 160, 160, 160)

     Smooth grid:   965435 G-vectors     FFT dimensions: ( 125, 125, 125)

     Estimated max dynamical RAM per process >     256.53 MB

     Estimated total dynamical RAM >      18.04 GB

     Initial potential from superposition of free atoms

     starting charge  255.98980, renormalised to  256.00000
     Starting wfcs are  160 randomized atomic wfcs
     Checking if some PAW data can be deallocated... 

     total cpu time spent up to now is       16.2 secs

     Self-consistent Calculation

     iteration #  1     ecut=    71.00 Ry     beta= 0.10
     Davidson diagonalization with overlap
     ethr =  1.00E-02,  avg # of iterations =  2.0

     total cpu time spent up to now is       58.4 secs

     total energy              =   -6899.22403903 Ry
     estimated scf accuracy    <       9.87669305 Ry

     iteration #  2     ecut=    71.00 Ry     beta= 0.10
     Davidson diagonalization with overlap
     ethr =  3.86E-03,  avg # of iterations =  1.0

     total cpu time spent up to now is       96.5 secs

     total energy              =   -6897.44065902 Ry
     estimated scf accuracy    <       7.71261380 Ry

     iteration #  3     ecut=    71.00 Ry     beta= 0.10
     Davidson diagonalization with overlap
     ethr =  3.01E-03,  avg # of iterations =  1.0

     total cpu time spent up to now is      130.0 secs

     total energy              =   -6896.76768826 Ry
     estimated scf accuracy    <      16.16628268 Ry

     iteration #  4     ecut=    71.00 Ry     beta= 0.10
     Davidson diagonalization with overlap
     ethr =  3.01E-03,  avg # of iterations =  2.0

     total cpu time spent up to now is      181.8 secs

     total energy              =   -6897.61922095 Ry
     estimated scf accuracy    <       7.22249070 Ry

     iteration #  5     ecut=    71.00 Ry     beta= 0.10
     Davidson diagonalization with overlap
     ethr =  2.82E-03,  avg # of iterations =  1.0

     total cpu time spent up to now is      219.9 secs

     total energy              =   -6896.87834708 Ry
     estimated scf accuracy    <       1.45315340 Ry

     iteration #  6     ecut=    71.00 Ry     beta= 0.10
     Davidson diagonalization with overlap
     ethr =  5.68E-04,  avg # of iterations =  2.1

     total cpu time spent up to now is      275.7 secs

     total energy              =   -6897.97778305 Ry
     estimated scf accuracy    <       4.52335142 Ry

     iteration #  7     ecut=    71.00 Ry     beta= 0.10
     Davidson diagonalization with overlap
     ethr =  5.68E-04,  avg # of iterations =  1.0

     total cpu time spent up to now is      312.9 secs

     total energy              =   -6897.69738317 Ry
     estimated scf accuracy    <       3.58926697 Ry

     iteration #  8     ecut=    71.00 Ry     beta= 0.10
     Davidson diagonalization with overlap
     ethr =  5.68E-04,  avg # of iterations =  1.0

     total cpu time spent up to now is      344.3 secs

     total energy              =   -6897.62630896 Ry
     estimated scf accuracy    <       1.96409877 Ry

     iteration #  9     ecut=    71.00 Ry     beta= 0.10
     Davidson diagonalization with overlap
     ethr =  5.68E-04,  avg # of iterations =  1.0

     total cpu time spent up to now is      375.9 secs

     total energy              =   -6897.63015142 Ry
     estimated scf accuracy    <       1.73224173 Ry

     iteration # 10     ecut=    71.00 Ry     beta= 0.10
     Davidson diagonalization with overlap
     ethr =  5.68E-04,  avg # of iterations =  1.0

     total cpu time spent up to now is      407.2 secs

     total energy              =   -6897.62720879 Ry
     estimated scf accuracy    <       1.61797967 Ry

     iteration # 11     ecut=    71.00 Ry     beta= 0.10
     Davidson diagonalization with overlap
     ethr =  5.68E-04,  avg # of iterations =  1.0

     total cpu time spent up to now is      439.1 secs

     total energy              =   -6897.50340264 Ry
     estimated scf accuracy    <       1.56369374 Ry

     iteration # 12     ecut=    71.00 Ry     beta= 0.10
     Davidson diagonalization with overlap
     ethr =  5.68E-04,  avg # of iterations =  1.0

     total cpu time spent up to now is      471.2 secs

     total energy              =   -6897.45059302 Ry
     estimated scf accuracy    <       0.67126230 Ry

     iteration # 13     ecut=    71.00 Ry     beta= 0.10
     Davidson diagonalization with overlap
     ethr =  2.62E-04,  avg # of iterations =  1.0

     total cpu time spent up to now is      503.2 secs

     total energy              =   -6897.43266888 Ry
     estimated scf accuracy    <       0.14242660 Ry

     iteration # 14     ecut=    71.00 Ry     beta= 0.10
     Davidson diagonalization with overlap
     ethr =  5.56E-05,  avg # of iterations =  5.0

     total cpu time spent up to now is      545.9 secs

     total energy              =   -6897.45057523 Ry
     estimated scf accuracy    <       0.05261296 Ry

     iteration # 15     ecut=    71.00 Ry     beta= 0.10
     Davidson diagonalization with overlap
     ethr =  2.06E-05,  avg # of iterations =  3.1

     total cpu time spent up to now is      585.6 secs

     total energy              =   -6897.45279040 Ry
     estimated scf accuracy    <       0.01532415 Ry

     iteration # 16     ecut=    71.00 Ry     beta= 0.10
     Davidson diagonalization with overlap
     ethr =  5.99E-06,  avg # of iterations =  4.2

     total cpu time spent up to now is      625.5 secs

     total energy              =   -6897.45209757 Ry
     estimated scf accuracy    <       0.01052363 Ry

     iteration # 17     ecut=    71.00 Ry     beta= 0.10
     Davidson diagonalization with overlap
     ethr =  4.11E-06,  avg # of iterations =  2.3

     total cpu time spent up to now is      661.4 secs

     total energy              =   -6897.45143627 Ry
     estimated scf accuracy    <       0.00311160 Ry

     iteration # 18     ecut=    71.00 Ry     beta= 0.10
     Davidson diagonalization with overlap
     ethr =  1.22E-06,  avg # of iterations =  5.1

     total cpu time spent up to now is      713.0 secs

     total energy              =   -6897.45206207 Ry
     estimated scf accuracy    <       0.00086750 Ry

     iteration # 19     ecut=    71.00 Ry     beta= 0.10
     Davidson diagonalization with overlap
     ethr =  3.39E-07,  avg # of iterations =  2.9

     total cpu time spent up to now is      761.4 secs

     total energy              =   -6897.45222803 Ry
     estimated scf accuracy    <       0.00029079 Ry

     iteration # 20     ecut=    71.00 Ry     beta= 0.10
     Davidson diagonalization with overlap
     c_bands:  1 eigenvalues not converged
     ethr =  1.14E-07,  avg # of iterations =  4.8

     total cpu time spent up to now is      805.8 secs

     total energy              =   -6897.45228090 Ry
     estimated scf accuracy    <       0.00010101 Ry

     iteration # 21     ecut=    71.00 Ry     beta= 0.10
     Davidson diagonalization with overlap
     ethr =  3.95E-08,  avg # of iterations =  5.2

     total cpu time spent up to now is      848.2 secs

     total energy              =   -6897.45230504 Ry
     estimated scf accuracy    <       0.00004989 Ry

     iteration # 22     ecut=    71.00 Ry     beta= 0.10
     Davidson diagonalization with overlap
     c_bands:  3 eigenvalues not converged
     ethr =  1.95E-08,  avg # of iterations =  4.0

     total cpu time spent up to now is      887.6 secs

     total energy              =   -6897.45231986 Ry
     estimated scf accuracy    <       0.00001480 Ry

     iteration # 23     ecut=    71.00 Ry     beta= 0.10
     Davidson diagonalization with overlap
     c_bands:  1 eigenvalues not converged
     ethr =  5.78E-09,  avg # of iterations =  8.9

     total cpu time spent up to now is      949.3 secs

     total energy              =   -6897.45232510 Ry
     estimated scf accuracy    <       0.00002359 Ry

     iteration # 24     ecut=    71.00 Ry     beta= 0.10
     Davidson diagonalization with overlap
     ethr =  5.78E-09,  avg # of iterations =  2.1

     total cpu time spent up to now is      993.7 secs

     total energy              =   -6897.45233386 Ry
     estimated scf accuracy    <       0.00000482 Ry

     iteration # 25     ecut=    71.00 Ry     beta= 0.10
     Davidson diagonalization with overlap
     c_bands:  1 eigenvalues not converged
     c_bands:  2 eigenvalues not converged
     c_bands:  1 eigenvalues not converged
     ethr =  1.88E-09,  avg # of iterations =  8.2

     total cpu time spent up to now is     1049.2 secs

     total energy              =   -6897.45233839 Ry
     estimated scf accuracy    <       0.00000759 Ry

     iteration # 26     ecut=    71.00 Ry     beta= 0.10
     Davidson diagonalization with overlap
     ethr =  1.88E-09,  avg # of iterations =  2.1

     total cpu time spent up to now is     1090.0 secs

     total energy              =   -6897.45234044 Ry
     estimated scf accuracy    <       0.00000135 Ry

     iteration # 27     ecut=    71.00 Ry     beta= 0.10
     Davidson diagonalization with overlap
     ethr =  5.28E-10,  avg # of iterations =  6.2

     total cpu time spent up to now is     1137.4 secs

     End of self-consistent calculation

          k = 0.0278 0.0278 0.0278 (120722 PWs)   bands (ev):

   -71.8087 -71.8087 -71.8087 -71.8086 -71.8086 -71.8086 -71.8086 -71.8086
   -71.8086 -71.8086 -71.8086 -71.8086 -71.8086 -71.8086 -71.8086 -71.8086
   -41.8980 -41.8980 -41.8980 -41.8980 -41.8980 -41.8980 -41.8980 -41.8980
   -41.8980 -41.8980 -41.8980 -41.8980 -41.8980 -41.8980 -41.8980 -41.8980
   -41.8980 -41.8980 -41.8980 -41.8980 -41.8980 -41.8979 -41.8979 -41.8979
   -41.8979 -41.8979 -41.8979 -41.8979 -41.8979 -41.8979 -41.8979 -41.8979
   -41.8979 -41.8979 -41.8979 -41.8979 -41.8979 -41.8979 -41.8979 -41.8979
   -41.8979 -41.8979 -41.8979 -41.8979 -41.8979 -41.8979 -41.8979 -41.8979
    -1.5614  -1.0588  -1.0588  -1.0588  -1.0569  -1.0569  -1.0569  -1.0107
    -1.0107  -0.9945  -0.9945  -0.9945  -0.9935  -0.9935  -0.9935  -0.9534
    -0.9534  -0.9534  -0.9528  -0.9505  -0.9505  -0.9484  -0.9439  -0.9439
    -0.9392  -0.9392  -0.9392  -0.9391  -0.9391  -0.9391  -0.9284  -0.9284
    -0.9271  -0.9271  -0.9271  -0.9219  -0.9102  -0.9102  -0.9102  -0.9076
    -0.9076  -0.9076  -0.9012  -0.9012  -0.9012  -0.8971  -0.8971  -0.8971
    -0.8804  -0.8804  -0.8804  -0.8687  -0.8687  -0.8687  -0.8685  -0.8685
    -0.8685  -0.8682  -0.8682  -0.8682  -0.8587  -0.8587  -0.8581  -0.8581
    -0.8581  -0.8566  -0.8566  -0.8566  -0.8556  -0.8556  -0.8556  -0.8556
    -0.8130  -0.8105  -0.8105  -0.7975  -0.7975  -0.7975  -0.7963  -0.7963
    -0.7963  -0.6629  -0.6629  -0.6629  -0.4953  -0.4952  -0.4952  -0.0894
    -0.0894  -0.0894

          k = 0.0278 0.0278 0.0833 (120686 PWs)   bands (ev):

   -71.8087 -71.8087 -71.8087 -71.8086 -71.8086 -71.8086 -71.8086 -71.8086
   -71.8086 -71.8086 -71.8086 -71.8086 -71.8086 -71.8086 -71.8086 -71.8086
   -41.8980 -41.8980 -41.8980 -41.8980 -41.8980 -41.8980 -41.8980 -41.8980
   -41.8980 -41.8980 -41.8980 -41.8980 -41.8980 -41.8980 -41.8980 -41.8980
   -41.8980 -41.8980 -41.8979 -41.8979 -41.8979 -41.8979 -41.8979 -41.8979
   -41.8979 -41.8979 -41.8979 -41.8979 -41.8979 -41.8979 -41.8979 -41.8979
   -41.8979 -41.8979 -41.8979 -41.8979 -41.8979 -41.8979 -41.8979 -41.8979
   -41.8979 -41.8979 -41.8979 -41.8979 -41.8979 -41.8979 -41.8979 -41.8979
    -1.5378  -1.0565  -1.0564  -1.0514  -1.0509  -1.0509  -1.0499  -1.0082
    -1.0065  -1.0034  -0.9935  -0.9924  -0.9922  -0.9922  -0.9894  -0.9894
    -0.9687  -0.9687  -0.9645  -0.9572  -0.9529  -0.9529  -0.9521  -0.9510
    -0.9497  -0.9462  -0.9449  -0.9402  -0.9370  -0.9351  -0.9351  -0.9294
    -0.9294  -0.9230  -0.9204  -0.9184  -0.9184  -0.9123  -0.9123  -0.9108
    -0.9094  -0.9090  -0.8947  -0.8947  -0.8922  -0.8909  -0.8909  -0.8903
    -0.8844  -0.8709  -0.8709  -0.8694  -0.8694  -0.8681  -0.8680  -0.8678
    -0.8673  -0.8622  -0.8622  -0.8608  -0.8581  -0.8580  -0.8580  -0.8580
    -0.8568  -0.8568  -0.8567  -0.8566  -0.8561  -0.8560  -0.8557  -0.8555
    -0.8184  -0.8142  -0.8109  -0.8038  -0.8024  -0.8014  -0.8014  -0.7979
    -0.7979  -0.7802  -0.6399  -0.6399  -0.4720  -0.4720  -0.3049  -0.1600
    -0.1600  -0.0823

          k = 0.0278 0.0278 0.1389 (120713 PWs)   bands (ev):

   -71.8087 -71.8087 -71.8087 -71.8086 -71.8086 -71.8086 -71.8086 -71.8086
   -71.8086 -71.8086 -71.8086 -71.8086 -71.8086 -71.8086 -71.8086 -71.8086
   -41.8980 -41.8980 -41.8980 -41.8980 -41.8980 -41.8980 -41.8980 -41.8980
   -41.8980 -41.8980 -41.8980 -41.8980 -41.8980 -41.8980 -41.8980 -41.8980
   -41.8980 -41.8980 -41.8980 -41.8979 -41.8979 -41.8979 -41.8979 -41.8979
   -41.8979 -41.8979 -41.8979 -41.8979 -41.8979 -41.8979 -41.8979 -41.8979
   -41.8979 -41.8979 -41.8979 -41.8979 -41.8979 -41.8979 -41.8979 -41.8979
   -41.8979 -41.8979 -41.8979 -41.8979 -41.8979 -41.8979 -41.8979 -41.8979
    -1.4910  -1.1050  -1.0500  -1.0500  -1.0410  -1.0410  -1.0376  -1.0368
    -1.0034  -0.9985  -0.9914  -0.9900  -0.9888  -0.9888  -0.9869  -0.9869
    -0.9823  -0.9823  -0.9758  -0.9718  -0.9718  -0.9680  -0.9648  -0.9586
    -0.9501  -0.9501  -0.9489  -0.9479  -0.9410  -0.9410  -0.9397  -0.9339
    -0.9339  -0.9304  -0.9295  -0.9200  -0.9200  -0.9140  -0.9140  -0.9038
    -0.8989  -0.8916  -0.8916  -0.8837  -0.8837  -0.8824  -0.8824  -0.8772
    -0.8765  -0.8764  -0.8734  -0.8734  -0.8708  -0.8668  -0.8668  -0.8660
    -0.8657  -0.8649  -0.8609  -0.8609  -0.8581  -0.8572  -0.8571  -0.8565
    -0.8565  -0.8558  -0.8554  -0.8541  -0.8541  -0.8455  -0.8431  -0.8431
    -0.8291  -0.8267  -0.8214  -0.8159  -0.8140  -0.8139  -0.8079  -0.8079
    -0.8022  -0.8022  -0.5948  -0.5948  -0.4276  -0.4275  -0.2535  -0.2535
    -0.1330  -0.1330

          k = 0.0278 0.0278 0.1944 (120689 PWs)   bands (ev):

   -71.8087 -71.8087 -71.8087 -71.8086 -71.8086 -71.8086 -71.8086 -71.8086
   -71.8086 -71.8086 -71.8086 -71.8086 -71.8086 -71.8086 -71.8086 -71.8086
   -41.8980 -41.8980 -41.8980 -41.8980 -41.8980 -41.8980 -41.8980 -41.8980
   -41.8980 -41.8980 -41.8980 -41.8980 -41.8980 -41.8980 -41.8980 -41.8980
   -41.8980 -41.8980 -41.8980 -41.8980 -41.8979 -41.8979 -41.8979 -41.8979
   -41.8979 -41.8979 -41.8979 -41.8979 -41.8979 -41.8979 -41.8979 -41.8979
   -41.8979 -41.8979 -41.8979 -41.8979 -41.8979 -41.8979 -41.8979 -41.8979
   -41.8979 -41.8979 -41.8979 -41.8979 -41.8979 -41.8979 -41.8979 -41.8979
    -1.4217  -1.2229  -1.0396  -1.0396  -1.0274  -1.0274  -1.0196  -1.0189
    -1.0083  -1.0083  -0.9963  -0.9917  -0.9917  -0.9881  -0.9875  -0.9871
    -0.9857  -0.9786  -0.9786  -0.9767  -0.9766  -0.9766  -0.9725  -0.9725
    -0.9655  -0.9612  -0.9550  -0.9550  -0.9477  -0.9465  -0.9465  -0.9452
    -0.9382  -0.9360  -0.9329  -0.9147  -0.9111  -0.9111  -0.9033  -0.9033
    -0.8884  -0.8864  -0.8864  -0.8810  -0.8810  -0.8782  -0.8782  -0.8737
    -0.8737  -0.8725  -0.8717  -0.8710  -0.8704  -0.8704  -0.8642  -0.8642
    -0.8637  -0.8635  -0.8634  -0.8590  -0.8589  -0.8584  -0.8569  -0.8563
    -0.8559  -0.8543  -0.8543  -0.8447  -0.8405  -0.8405  -0.8373  -0.8353
    -0.8322  -0.8314  -0.8301  -0.8301  -0.8296  -0.8191  -0.8168  -0.8168
    -0.8092  -0.8092  -0.5297  -0.5297  -0.3655  -0.3655  -0.3532  -0.3532
    -0.2094  -0.2094

          k = 0.0278 0.0278-0.2500 (120702 PWs)   bands (ev):

   -71.8087 -71.8087 -71.8087 -71.8086 -71.8086 -71.8086 -71.8086 -71.8086
   -71.8086 -71.8086 -71.8086 -71.8086 -71.8086 -71.8086 -71.8086 -71.8086
   -41.8980 -41.8980 -41.8980 -41.8980 -41.8980 -41.8980 -41.8980 -41.8980
   -41.8980 -41.8980 -41.8980 -41.8980 -41.8980 -41.8980 -41.8980 -41.8980
   -41.8980 -41.8980 -41.8980 -41.8980 -41.8979 -41.8979 -41.8979 -41.8979
   -41.8979 -41.8979 -41.8979 -41.8979 -41.8979 -41.8979 -41.8979 -41.8979
   -41.8979 -41.8979 -41.8979 -41.8979 -41.8979 -41.8979 -41.8979 -41.8979
   -41.8979 -41.8979 -41.8979 -41.8979 -41.8979 -41.8979 -41.8979 -41.8979
    -1.3313  -1.3312  -1.0255  -1.0255  -1.0255  -1.0255  -1.0107  -1.0107
    -1.0107  -1.0107  -1.0016  -1.0016  -0.9977  -0.9977  -0.9873  -0.9873
    -0.9832  -0.9832  -0.9782  -0.9782  -0.9746  -0.9746  -0.9679  -0.9679
    -0.9679  -0.9679  -0.9603  -0.9603  -0.9603  -0.9603  -0.9439  -0.9439
    -0.9413  -0.9413  -0.9245  -0.9245  -0.8987  -0.8987  -0.8987  -0.8987
    -0.8916  -0.8916  -0.8916  -0.8916  -0.8789  -0.8789  -0.8739  -0.8739
    -0.8739  -0.8739  -0.8681  -0.8681  -0.8681  -0.8681  -0.8612  -0.8612
    -0.8612  -0.8612  -0.8603  -0.8603  -0.8561  -0.8561  -0.8514  -0.8514
    -0.8509  -0.8509  -0.8499  -0.8499  -0.8464  -0.8464  -0.8435  -0.8435
    -0.8278  -0.8278  -0.8278  -0.8278  -0.8264  -0.8264  -0.8186  -0.8186
    -0.8186  -0.8186  -0.4477  -0.4477  -0.4477  -0.4477  -0.2905  -0.2905
    -0.2905  -0.2905

          k = 0.0278 0.0833 0.0833 (120716 PWs)   bands (ev):

   -71.8087 -71.8087 -71.8087 -71.8086 -71.8086 -71.8086 -71.8086 -71.8086
   -71.8086 -71.8086 -71.8086 -71.8086 -71.8086 -71.8086 -71.8086 -71.8086
   -41.8980 -41.8980 -41.8980 -41.8980 -41.8980 -41.8980 -41.8980 -41.8980
   -41.8980 -41.8980 -41.8980 -41.8980 -41.8980 -41.8980 -41.8980 -41.8980
   -41.8980 -41.8980 -41.8980 -41.8979 -41.8979 -41.8979 -41.8979 -41.8979
   -41.8979 -41.8979 -41.8979 -41.8979 -41.8979 -41.8979 -41.8979 -41.8979
   -41.8979 -41.8979 -41.8979 -41.8979 -41.8979 -41.8979 -41.8979 -41.8979
   -41.8979 -41.8979 -41.8979 -41.8979 -41.8979 -41.8979 -41.8979 -41.8979
    -1.5145  -1.0584  -1.0492  -1.0492  -1.0446  -1.0446  -1.0419  -1.0110
    -1.0110  -1.0051  -1.0031  -0.9918  -0.9912  -0.9912  -0.9881  -0.9881
    -0.9836  -0.9779  -0.9753  -0.9649  -0.9589  -0.9546  -0.9546  -0.9532
    -0.9491  -0.9453  -0.9415  -0.9404  -0.9404  -0.9393  -0.9346  -0.9345
    -0.9345  -0.9311  -0.9160  -0.9160  -0.9094  -0.9083  -0.9069  -0.9061
    -0.9026  -0.9026  -0.8983  -0.8982  -0.8981  -0.8917  -0.8838  -0.8838
    -0.8788  -0.8788  -0.8732  -0.8698  -0.8698  -0.8694  -0.8692  -0.8685
    -0.8685  -0.8623  -0.8623  -0.8613  -0.8603  -0.8586  -0.8580  -0.8580
    -0.8568  -0.8565  -0.8562  -0.8558  -0.8554  -0.8513  -0.8456  -0.8456
    -0.8262  -0.8172  -0.8096  -0.8080  -0.8080  -0.8075  -0.8038  -0.8038
    -0.7971  -0.7658  -0.7658  -0.6168  -0.4496  -0.2845  -0.2845  -0.2679
    -0.1504  -0.1504

          k = 0.0278 0.0833 0.1389 (120706 PWs)   bands (ev):

   -71.8087 -71.8087 -71.8087 -71.8086 -71.8086 -71.8086 -71.8086 -71.8086
   -71.8086 -71.8086 -71.8086 -71.8086 -71.8086 -71.8086 -71.8086 -71.8086
   -41.8980 -41.8980 -41.8980 -41.8980 -41.8980 -41.8980 -41.8980 -41.8980
   -41.8980 -41.8980 -41.8980 -41.8980 -41.8980 -41.8980 -41.8980 -41.8980
   -41.8980 -41.8980 -41.8979 -41.8979 -41.8979 -41.8979 -41.8979 -41.8979
   -41.8979 -41.8979 -41.8979 -41.8979 -41.8979 -41.8979 -41.8979 -41.8979
   -41.8979 -41.8979 -41.8979 -41.8979 -41.8979 -41.8979 -41.8979 -41.8979
   -41.8979 -41.8979 -41.8979 -41.8979 -41.8979 -41.8979 -41.8979 -41.8979
    -1.4682  -1.0972  -1.0568  -1.0434  -1.0358  -1.0358  -1.0332  -1.0297
    -1.0222  -1.0002  -0.9954  -0.9923  -0.9888  -0.9884  -0.9856  -0.9856
    -0.9849  -0.9807  -0.9754  -0.9749  -0.9748  -0.9656  -0.9644  -0.9545
    -0.9516  -0.9486  -0.9476  -0.9472  -0.9420  -0.9418  -0.9410  -0.9393
    -0.9344  -0.9321  -0.9222  -0.9169  -0.9096  -0.9087  -0.9067  -0.8949
    -0.8949  -0.8945  -0.8906  -0.8900  -0.8875  -0.8852  -0.8833  -0.8828
    -0.8806  -0.8753  -0.8747  -0.8726  -0.8723  -0.8712  -0.8677  -0.8669
    -0.8667  -0.8646  -0.8646  -0.8627  -0.8612  -0.8581  -0.8579  -0.8576
    -0.8576  -0.8573  -0.8557  -0.8545  -0.8518  -0.8428  -0.8366  -0.8353
    -0.8328  -0.8262  -0.8243  -0.8203  -0.8160  -0.8149  -0.8146  -0.8102
    -0.8079  -0.7991  -0.7320  -0.5722  -0.4068  -0.3839  -0.2459  -0.2407
    -0.1316  -0.1234

          k = 0.0278 0.0833 0.1944 (120627 PWs)   bands (ev):

   -71.8087 -71.8087 -71.8087 -71.8086 -71.8086 -71.8086 -71.8086 -71.8086
   -71.8086 -71.8086 -71.8086 -71.8086 -71.8086 -71.8086 -71.8086 -71.8086
   -41.8980 -41.8980 -41.8980 -41.8980 -41.8980 -41.8980 -41.8980 -41.8980
   -41.8980 -41.8980 -41.8980 -41.8980 -41.8980 -41.8980 -41.8980 -41.8980
   -41.8980 -41.8979 -41.8979 -41.8979 -41.8979 -41.8979 -41.8979 -41.8979
   -41.8979 -41.8979 -41.8979 -41.8979 -41.8979 -41.8979 -41.8979 -41.8979
   -41.8979 -41.8979 -41.8979 -41.8979 -41.8979 -41.8979 -41.8979 -41.8979
   -41.8979 -41.8979 -41.8979 -41.8979 -41.8979 -41.8979 -41.8979 -41.8979
    -1.3999  -1.2067  -1.0518  -1.0342  -1.0338  -1.0238  -1.0194  -1.0183
    -1.0149  -1.0078  -0.9954  -0.9934  -0.9924  -0.9863  -0.9846  -0.9845
    -0.9820  -0.9812  -0.9786  -0.9769  -0.9750  -0.9707  -0.9648  -0.9636
    -0.9617  -0.9589  -0.9541  -0.9536  -0.9529  -0.9480  -0.9478  -0.9440
    -0.9367  -0.9319  -0.9234  -0.9188  -0.9064  -0.9022  -0.9011  -0.8956
    -0.8931  -0.8858  -0.8851  -0.8814  -0.8798  -0.8791  -0.8787  -0.8782
    -0.8772  -0.8770  -0.8768  -0.8765  -0.8711  -0.8703  -0.8702  -0.8655
    -0.8650  -0.8644  -0.8635  -0.8601  -0.8596  -0.8594  -0.8592  -0.8587
    -0.8554  -0.8551  -0.8518  -0.8516  -0.8489  -0.8452  -0.8429  -0.8363
    -0.8344  -0.8330  -0.8292  -0.8266  -0.8261  -0.8233  -0.8210  -0.8145
    -0.8133  -0.8038  -0.6745  -0.5086  -0.4955  -0.3470  -0.3373  -0.1967
    -0.1935  -0.1047

          k = 0.0278 0.0833-0.2500 (120688 PWs)   bands (ev):

   -71.8087 -71.8087 -71.8087 -71.8086 -71.8086 -71.8086 -71.8086 -71.8086
   -71.8086 -71.8086 -71.8086 -71.8086 -71.8086 -71.8086 -71.8086 -71.8086
   -41.8980 -41.8980 -41.8980 -41.8980 -41.8980 -41.8980 -41.8980 -41.8980
   -41.8980 -41.8980 -41.8980 -41.8980 -41.8980 -41.8980 -41.8980 -41.8980
   -41.8980 -41.8980 -41.8980 -41.8979 -41.8979 -41.8979 -41.8979 -41.8979
   -41.8979 -41.8979 -41.8979 -41.8979 -41.8979 -41.8979 -41.8979 -41.8979
   -41.8979 -41.8979 -41.8979 -41.8979 -41.8979 -41.8979 -41.8979 -41.8979
   -41.8979 -41.8979 -41.8979 -41.8979 -41.8979 -41.8979 -41.8979 -41.8979
    -1.3113  -1.3113  -1.0440  -1.0440  -1.0221  -1.0221  -1.0091  -1.0091
    -1.0063  -1.0063  -1.0004  -1.0004  -0.9983  -0.9983  -0.9849  -0.9849
    -0.9772  -0.9772  -0.9730  -0.9730  -0.9718  -0.9718  -0.9679  -0.9679
    -0.9657  -0.9657  -0.9590  -0.9590  -0.9520  -0.9520  -0.9504  -0.9504
    -0.9391  -0.9390  -0.9134  -0.9134  -0.9066  -0.9066  -0.8965  -0.8965
    -0.8902  -0.8902  -0.8850  -0.8850  -0.8795  -0.8795  -0.8774  -0.8774
    -0.8739  -0.8739  -0.8697  -0.8697  -0.8683  -0.8683  -0.8639  -0.8639
    -0.8633  -0.8633  -0.8626  -0.8626  -0.8618  -0.8618  -0.8615  -0.8615
    -0.8519  -0.8519  -0.8510  -0.8510  -0.8465  -0.8465  -0.8435  -0.8434
    -0.8387  -0.8387  -0.8331  -0.8331  -0.8232  -0.8232  -0.8187  -0.8187
    -0.8112  -0.8112  -0.5943  -0.5943  -0.4289  -0.4289  -0.2747  -0.2747
    -0.1339  -0.1339

          k = 0.0278 0.1389 0.1389 (120631 PWs)   bands (ev):

   -71.8087 -71.8087 -71.8087 -71.8086 -71.8086 -71.8086 -71.8086 -71.8086
   -71.8086 -71.8086 -71.8086 -71.8086 -71.8086 -71.8086 -71.8086 -71.8086
   -41.8980 -41.8980 -41.8980 -41.8980 -41.8980 -41.8980 -41.8980 -41.8980
   -41.8980 -41.8980 -41.8980 -41.8980 -41.8980 -41.8980 -41.8980 -41.8980
   -41.8979 -41.8979 -41.8979 -41.8979 -41.8979 -41.8979 -41.8979 -41.8979
   -41.8979 -41.8979 -41.8979 -41.8979 -41.8979 -41.8979 -41.8979 -41.8979
   -41.8979 -41.8979 -41.8979 -41.8979 -41.8979 -41.8979 -41.8979 -41.8979
   -41.8979 -41.8979 -41.8979 -41.8979 -41.8979 -41.8979 -41.8979 -41.8979
    -1.4232  -1.0858  -1.0858  -1.0617  -1.0316  -1.0316  -1.0271  -1.0271
    -1.0167  -0.9993  -0.9951  -0.9942  -0.9884  -0.9869  -0.9850  -0.9835
    -0.9824  -0.9824  -0.9765  -0.9765  -0.9679  -0.9679  -0.9648  -0.9582
    -0.9547  -0.9547  -0.9473  -0.9446  -0.9440  -0.9417  -0.9417  -0.9416
    -0.9355  -0.9226  -0.9063  -0.9063  -0.9062  -0.9062  -0.9052  -0.9045
    -0.8956  -0.8950  -0.8897  -0.8873  -0.8862  -0.8862  -0.8837  -0.8799
    -0.8766  -0.8765  -0.8742  -0.8742  -0.8736  -0.8736  -0.8707  -0.8703
    -0.8703  -0.8668  -0.8668  -0.8654  -0.8621  -0.8620  -0.8587  -0.8585
    -0.8581  -0.8571  -0.8551  -0.8532  -0.8490  -0.8488  -0.8410  -0.8316
    -0.8266  -0.8266  -0.8262  -0.8238  -0.8238  -0.8183  -0.8183  -0.8160
    -0.8160  -0.8080  -0.7986  -0.5292  -0.5113  -0.3670  -0.2160  -0.2160
    -0.1048  -0.1047

          k = 0.0278 0.1389 0.1944 (120638 PWs)   bands (ev):

   -71.8087 -71.8087 -71.8087 -71.8086 -71.8086 -71.8086 -71.8086 -71.8086
   -71.8086 -71.8086 -71.8086 -71.8086 -71.8086 -71.8086 -71.8086 -71.8086
   -41.8980 -41.8980 -41.8980 -41.8980 -41.8980 -41.8980 -41.8980 -41.8980
   -41.8980 -41.8980 -41.8980 -41.8980 -41.8980 -41.8980 -41.8980 -41.8980
   -41.8980 -41.8979 -41.8979 -41.8979 -41.8979 -41.8979 -41.8979 -41.8979
   -41.8979 -41.8979 -41.8979 -41.8979 -41.8979 -41.8979 -41.8979 -41.8979
   -41.8979 -41.8979 -41.8979 -41.8979 -41.8979 -41.8979 -41.8979 -41.8979
   -41.8979 -41.8979 -41.8979 -41.8979 -41.8979 -41.8979 -41.8979 -41.8979
    -1.3572  -1.1773  -1.0760  -1.0655  -1.0252  -1.0184  -1.0175  -1.0174
    -1.0082  -1.0025  -1.0016  -0.9955  -0.9943  -0.9890  -0.9825  -0.9779
    -0.9764  -0.9761  -0.9744  -0.9726  -0.9685  -0.9660  -0.9659  -0.9604
    -0.9587  -0.9537  -0.9527  -0.9525  -0.9486  -0.9467  -0.9433  -0.9399
    -0.9320  -0.9211  -0.9195  -0.9119  -0.9027  -0.9018  -0.8998  -0.8927
    -0.8893  -0.8874  -0.8872  -0.8872  -0.8837  -0.8819  -0.8812  -0.8802
    -0.8798  -0.8783  -0.8782  -0.8739  -0.8739  -0.8731  -0.8697  -0.8691
    -0.8690  -0.8665  -0.8660  -0.8655  -0.8637  -0.8631  -0.8610  -0.8606
    -0.8600  -0.8581  -0.8572  -0.8538  -0.8499  -0.8457  -0.8452  -0.8418
    -0.8403  -0.8383  -0.8366  -0.8337  -0.8310  -0.8238  -0.8164  -0.8138
    -0.8083  -0.8010  -0.7847  -0.6260  -0.4686  -0.3115  -0.3067  -0.1809
    -0.1722  -0.0886

          k = 0.0278 0.1389-0.2500 (120694 PWs)   bands (ev):

   -71.8087 -71.8087 -71.8087 -71.8086 -71.8086 -71.8086 -71.8086 -71.8086
   -71.8086 -71.8086 -71.8086 -71.8086 -71.8086 -71.8086 -71.8086 -71.8086
   -41.8980 -41.8980 -41.8980 -41.8980 -41.8980 -41.8980 -41.8980 -41.8980
   -41.8980 -41.8980 -41.8980 -41.8980 -41.8980 -41.8980 -41.8980 -41.8980
   -41.8980 -41.8980 -41.8979 -41.8979 -41.8979 -41.8979 -41.8979 -41.8979
   -41.8979 -41.8979 -41.8979 -41.8979 -41.8979 -41.8979 -41.8979 -41.8979
   -41.8979 -41.8979 -41.8979 -41.8979 -41.8979 -41.8979 -41.8979 -41.8979
   -41.8979 -41.8979 -41.8979 -41.8979 -41.8979 -41.8979 -41.8979 -41.8979
    -1.2731  -1.2730  -1.0697  -1.0696  -1.0172  -1.0172  -1.0090  -1.0089
    -1.0076  -1.0076  -1.0046  -1.0046  -0.9886  -0.9886  -0.9819  -0.9819
    -0.9755  -0.9755  -0.9658  -0.9658  -0.9654  -0.9654  -0.9606  -0.9606
    -0.9605  -0.9605  -0.9564  -0.9564  -0.9549  -0.9549  -0.9387  -0.9387
    -0.9320  -0.9320  -0.9165  -0.9165  -0.9000  -0.8999  -0.8942  -0.8942
    -0.8893  -0.8893  -0.8820  -0.8820  -0.8790  -0.8790  -0.8784  -0.8784
    -0.8779  -0.8779  -0.8752  -0.8752  -0.8748  -0.8748  -0.8733  -0.8733
    -0.8722  -0.8722  -0.8630  -0.8630  -0.8628  -0.8628  -0.8623  -0.8623
    -0.8539  -0.8538  -0.8538  -0.8538  -0.8507  -0.8507  -0.8500  -0.8500
    -0.8427  -0.8427  -0.8402  -0.8402  -0.8304  -0.8304  -0.8112  -0.8112
    -0.8061  -0.8061  -0.7199  -0.7199  -0.3931  -0.3931  -0.2444  -0.2444
    -0.1374  -0.1374

          k = 0.0278 0.1944 0.1944 (120615 PWs)   bands (ev):

   -71.8087 -71.8087 -71.8087 -71.8086 -71.8086 -71.8086 -71.8086 -71.8086
   -71.8086 -71.8086 -71.8086 -71.8086 -71.8086 -71.8086 -71.8086 -71.8086
   -41.8980 -41.8980 -41.8980 -41.8980 -41.8980 -41.8980 -41.8980 -41.8980
   -41.8980 -41.8980 -41.8980 -41.8980 -41.8980 -41.8980 -41.8980 -41.8980
   -41.8979 -41.8979 -41.8979 -41.8979 -41.8979 -41.8979 -41.8979 -41.8979
   -41.8979 -41.8979 -41.8979 -41.8979 -41.8979 -41.8979 -41.8979 -41.8979
   -41.8979 -41.8979 -41.8979 -41.8979 -41.8979 -41.8979 -41.8979 -41.8979
   -41.8979 -41.8979 -41.8979 -41.8979 -41.8979 -41.8979 -41.8979 -41.8979
    -1.2957  -1.1414  -1.1414  -1.0831  -1.0158  -1.0158  -1.0134  -1.0134
    -1.0103  -1.0061  -1.0012  -1.0012  -0.9913  -0.9843  -0.9802  -0.9766
    -0.9766  -0.9680  -0.9680  -0.9676  -0.9650  -0.9645  -0.9645  -0.9573
    -0.9573  -0.9487  -0.9464  -0.9449  -0.9423  -0.9423  -0.9401  -0.9394
    -0.9318  -0.9153  -0.9089  -0.9089  -0.8997  -0.8993  -0.8991  -0.8964
    -0.8964  -0.8922  -0.8912  -0.8845  -0.8845  -0.8827  -0.8802  -0.8802
    -0.8784  -0.8772  -0.8770  -0.8770  -0.8751  -0.8734  -0.8734  -0.8719
    -0.8693  -0.8693  -0.8693  -0.8677  -0.8677  -0.8674  -0.8674  -0.8627
    -0.8618  -0.8582  -0.8575  -0.8523  -0.8520  -0.8519  -0.8475  -0.8461
    -0.8436  -0.8435  -0.8432  -0.8432  -0.8384  -0.8342  -0.8342  -0.8086
    -0.8086  -0.8058  -0.8008  -0.7354  -0.4123  -0.2635  -0.2635  -0.2618
    -0.1501  -0.1378

          k = 0.0278 0.1944-0.2500 (120606 PWs)   bands (ev):

   -71.8087 -71.8087 -71.8087 -71.8086 -71.8086 -71.8086 -71.8086 -71.8086
   -71.8086 -71.8086 -71.8086 -71.8086 -71.8086 -71.8086 -71.8086 -71.8086
   -41.8980 -41.8980 -41.8980 -41.8980 -41.8980 -41.8980 -41.8980 -41.8980
   -41.8980 -41.8980 -41.8980 -41.8980 -41.8980 -41.8980 -41.8980 -41.8979
   -41.8979 -41.8979 -41.8979 -41.8979 -41.8979 -41.8979 -41.8979 -41.8979
   -41.8979 -41.8979 -41.8979 -41.8979 -41.8979 -41.8979 -41.8979 -41.8979
   -41.8979 -41.8979 -41.8979 -41.8979 -41.8979 -41.8979 -41.8979 -41.8979
   -41.8979 -41.8979 -41.8979 -41.8979 -41.8979 -41.8979 -41.8979 -41.8979
    -1.2203  -1.2203  -1.1081  -1.1081  -1.0132  -1.0132  -1.0096  -1.0096
    -1.0079  -1.0079  -1.0077  -1.0077  -0.9824  -0.9824  -0.9799  -0.9799
    -0.9753  -0.9753  -0.9676  -0.9676  -0.9551  -0.9551  -0.9544  -0.9544
    -0.9528  -0.9528  -0.9482  -0.9482  -0.9467  -0.9467  -0.9295  -0.9295
    -0.9244  -0.9244  -0.9173  -0.9173  -0.8941  -0.8941  -0.8940  -0.8940
    -0.8925  -0.8925  -0.8884  -0.8884  -0.8876  -0.8876  -0.8849  -0.8849
    -0.8796  -0.8796  -0.8745  -0.8745  -0.8724  -0.8724  -0.8721  -0.8721
    -0.8710  -0.8710  -0.8689  -0.8689  -0.8655  -0.8655  -0.8647  -0.8647
    -0.8632  -0.8632  -0.8582  -0.8582  -0.8562  -0.8562  -0.8495  -0.8495
    -0.8456  -0.8456  -0.8426  -0.8426  -0.8372  -0.8372  -0.8132  -0.8132
    -0.8059  -0.8059  -0.8033  -0.8033  -0.3427  -0.3427  -0.2101  -0.2101
    -0.2020  -0.2020

          k = 0.0278-0.2500-0.2500 (120680 PWs)   bands (ev):

   -71.8087 -71.8087 -71.8087 -71.8086 -71.8086 -71.8086 -71.8086 -71.8086
   -71.8086 -71.8086 -71.8086 -71.8086 -71.8086 -71.8086 -71.8086 -71.8086
   -41.8980 -41.8980 -41.8980 -41.8980 -41.8980 -41.8980 -41.8980 -41.8980
   -41.8980 -41.8980 -41.8980 -41.8980 -41.8980 -41.8980 -41.8980 -41.8979
   -41.8979 -41.8979 -41.8979 -41.8979 -41.8979 -41.8979 -41.8979 -41.8979
   -41.8979 -41.8979 -41.8979 -41.8979 -41.8979 -41.8979 -41.8979 -41.8979
   -41.8979 -41.8979 -41.8979 -41.8979 -41.8979 -41.8979 -41.8979 -41.8979
   -41.8979 -41.8979 -41.8979 -41.8979 -41.8979 -41.8979 -41.8979 -41.8979
    -1.1613  -1.1612  -1.1612  -1.1612  -1.0104  -1.0104  -1.0104  -1.0104
    -1.0088  -1.0088  -1.0088  -1.0088  -0.9797  -0.9797  -0.9797  -0.9797
    -0.9726  -0.9726  -0.9726  -0.9726  -0.9487  -0.9487  -0.9487  -0.9487
    -0.9435  -0.9435  -0.9435  -0.9435  -0.9424  -0.9424  -0.9424  -0.9424
    -0.9099  -0.9099  -0.9099  -0.9099  -0.8946  -0.8946  -0.8946  -0.8946
    -0.8940  -0.8940  -0.8940  -0.8940  -0.8920  -0.8920  -0.8920  -0.8920
    -0.8726  -0.8726  -0.8726  -0.8726  -0.8716  -0.8716  -0.8716  -0.8716
    -0.8689  -0.8689  -0.8689  -0.8689  -0.8676  -0.8676  -0.8676  -0.8676
    -0.8642  -0.8642  -0.8642  -0.8642  -0.8579  -0.8579  -0.8579  -0.8579
    -0.8483  -0.8483  -0.8483  -0.8483  -0.8414  -0.8414  -0.8414  -0.8414
    -0.8033  -0.8033  -0.8033  -0.8033  -0.2805  -0.2805  -0.2805  -0.2805
    -0.1508  -0.1508

          k = 0.0833 0.0833 0.0833 (120725 PWs)   bands (ev):

   -71.8087 -71.8087 -71.8087 -71.8086 -71.8086 -71.8086 -71.8086 -71.8086
   -71.8086 -71.8086 -71.8086 -71.8086 -71.8086 -71.8086 -71.8086 -71.8086
   -41.8980 -41.8980 -41.8980 -41.8980 -41.8980 -41.8980 -41.8980 -41.8980
   -41.8980 -41.8980 -41.8980 -41.8980 -41.8980 -41.8980 -41.8980 -41.8980
   -41.8980 -41.8979 -41.8979 -41.8979 -41.8979 -41.8979 -41.8979 -41.8979
   -41.8979 -41.8979 -41.8979 -41.8979 -41.8979 -41.8979 -41.8979 -41.8979
   -41.8979 -41.8979 -41.8979 -41.8979 -41.8979 -41.8979 -41.8979 -41.8979
   -41.8979 -41.8979 -41.8979 -41.8979 -41.8979 -41.8979 -41.8979 -41.8979
    -1.4914  -1.0506  -1.0505  -1.0505  -1.0368  -1.0368  -1.0368  -1.0147
    -1.0147  -1.0147  -1.0009  -1.0009  -0.9910  -0.9910  -0.9909  -0.9854
    -0.9820  -0.9820  -0.9820  -0.9575  -0.9575  -0.9525  -0.9525  -0.9514
    -0.9514  -0.9514  -0.9489  -0.9489  -0.9489  -0.9333  -0.9333  -0.9333
    -0.9328  -0.9201  -0.9201  -0.9201  -0.9154  -0.9154  -0.9068  -0.9068
    -0.9068  -0.9057  -0.8976  -0.8976  -0.8976  -0.8812  -0.8812  -0.8812
    -0.8717  -0.8717  -0.8717  -0.8696  -0.8696  -0.8696  -0.8683  -0.8683
    -0.8683  -0.8674  -0.8674  -0.8674  -0.8605  -0.8605  -0.8568  -0.8568
    -0.8568  -0.8566  -0.8566  -0.8555  -0.8555  -0.8413  -0.8413  -0.8413
    -0.8355  -0.8150  -0.8150  -0.8150  -0.8134  -0.8134  -0.8025  -0.8025
    -0.8025  -0.7478  -0.7478  -0.7478  -0.2651  -0.2650  -0.2650  -0.2552
    -0.2552  -0.2552

          k = 0.0833 0.0833 0.1389 (120683 PWs)   bands (ev):

   -71.8087 -71.8087 -71.8087 -71.8086 -71.8086 -71.8086 -71.8086 -71.8086
   -71.8086 -71.8086 -71.8086 -71.8086 -71.8086 -71.8086 -71.8086 -71.8086
   -41.8980 -41.8980 -41.8980 -41.8980 -41.8980 -41.8980 -41.8980 -41.8980
   -41.8980 -41.8980 -41.8980 -41.8980 -41.8980 -41.8980 -41.8980 -41.8980
   -41.8980 -41.8979 -41.8979 -41.8979 -41.8979 -41.8979 -41.8979 -41.8979
   -41.8979 -41.8979 -41.8979 -41.8979 -41.8979 -41.8979 -41.8979 -41.8979
   -41.8979 -41.8979 -41.8979 -41.8979 -41.8979 -41.8979 -41.8979 -41.8979
   -41.8979 -41.8979 -41.8979 -41.8979 -41.8979 -41.8979 -41.8979 -41.8979
    -1.4457  -1.0890  -1.0488  -1.0488  -1.0359  -1.0281  -1.0260  -1.0260
    -1.0214  -1.0214  -0.9964  -0.9942  -0.9929  -0.9891  -0.9874  -0.9874
    -0.9778  -0.9732  -0.9732  -0.9675  -0.9640  -0.9640  -0.9620  -0.9602
    -0.9548  -0.9510  -0.9490  -0.9452  -0.9452  -0.9448  -0.9448  -0.9367
    -0.9354  -0.9273  -0.9239  -0.9121  -0.9120  -0.9111  -0.9111  -0.9015
    -0.8995  -0.8994  -0.8915  -0.8890  -0.8890  -0.8802  -0.8801  -0.8796
    -0.8796  -0.8751  -0.8735  -0.8735  -0.8703  -0.8702  -0.8702  -0.8690
    -0.8687  -0.8666  -0.8641  -0.8588  -0.8582  -0.8582  -0.8581  -0.8581
    -0.8578  -0.8567  -0.8566  -0.8566  -0.8535  -0.8476  -0.8334  -0.8334
    -0.8319  -0.8286  -0.8243  -0.8243  -0.8205  -0.8200  -0.8127  -0.8120
    -0.8042  -0.8042  -0.7100  -0.7100  -0.3680  -0.3679  -0.2305  -0.2283
    -0.2282  -0.0750

          k = 0.0833 0.0833 0.1944 (120667 PWs)   bands (ev):

   -71.8087 -71.8087 -71.8087 -71.8086 -71.8086 -71.8086 -71.8086 -71.8086
   -71.8086 -71.8086 -71.8086 -71.8086 -71.8086 -71.8086 -71.8086 -71.8086
   -41.8980 -41.8980 -41.8980 -41.8980 -41.8980 -41.8980 -41.8980 -41.8980
   -41.8980 -41.8980 -41.8980 -41.8980 -41.8980 -41.8980 -41.8980 -41.8980
   -41.8980 -41.8980 -41.8980 -41.8979 -41.8979 -41.8979 -41.8979 -41.8979
   -41.8979 -41.8979 -41.8979 -41.8979 -41.8979 -41.8979 -41.8979 -41.8979
   -41.8979 -41.8979 -41.8979 -41.8979 -41.8979 -41.8979 -41.8979 -41.8979
   -41.8979 -41.8979 -41.8979 -41.8979 -41.8979 -41.8979 -41.8979 -41.8979
    -1.3783  -1.1906  -1.0443  -1.0443  -1.0296  -1.0296  -1.0182  -1.0164
    -1.0126  -1.0126  -1.0019  -0.9900  -0.9860  -0.9821  -0.9807  -0.9807
    -0.9805  -0.9805  -0.9755  -0.9745  -0.9724  -0.9698  -0.9626  -0.9626
    -0.9587  -0.9587  -0.9576  -0.9551  -0.9487  -0.9466  -0.9441  -0.9441
    -0.9421  -0.9413  -0.9134  -0.9126  -0.9126  -0.8972  -0.8972  -0.8922
    -0.8922  -0.8900  -0.8874  -0.8853  -0.8849  -0.8836  -0.8785  -0.8785
    -0.8779  -0.8779  -0.8755  -0.8755  -0.8755  -0.8755  -0.8720  -0.8693
    -0.8656  -0.8644  -0.8614  -0.8614  -0.8613  -0.8596  -0.8588  -0.8567
    -0.8566  -0.8565  -0.8554  -0.8515  -0.8515  -0.8488  -0.8464  -0.8450
    -0.8349  -0.8349  -0.8304  -0.8258  -0.8241  -0.8241  -0.8237  -0.8135
    -0.8086  -0.8086  -0.6513  -0.6513  -0.4765  -0.4765  -0.1952  -0.1783
    -0.1783  -0.1014

          k = 0.0833 0.0833-0.2500 (120666 PWs)   bands (ev):

   -71.8087 -71.8087 -71.8087 -71.8086 -71.8086 -71.8086 -71.8086 -71.8086
   -71.8086 -71.8086 -71.8086 -71.8086 -71.8086 -71.8086 -71.8086 -71.8086
   -41.8980 -41.8980 -41.8980 -41.8980 -41.8980 -41.8980 -41.8980 -41.8980
   -41.8980 -41.8980 -41.8980 -41.8980 -41.8980 -41.8980 -41.8980 -41.8980
   -41.8980 -41.8980 -41.8980 -41.8979 -41.8979 -41.8979 -41.8979 -41.8979
   -41.8979 -41.8979 -41.8979 -41.8979 -41.8979 -41.8979 -41.8979 -41.8979
   -41.8979 -41.8979 -41.8979 -41.8979 -41.8979 -41.8979 -41.8979 -41.8979
   -41.8979 -41.8979 -41.8979 -41.8979 -41.8979 -41.8979 -41.8979 -41.8979
    -1.2916  -1.2916  -1.0376  -1.0376  -1.0376  -1.0376  -1.0095  -1.0095
    -0.9971  -0.9971  -0.9971  -0.9971  -0.9948  -0.9947  -0.9819  -0.9819
    -0.9816  -0.9816  -0.9710  -0.9710  -0.9710  -0.9710  -0.9697  -0.9697
    -0.9573  -0.9573  -0.9527  -0.9527  -0.9517  -0.9516  -0.9516  -0.9516
    -0.9454  -0.9454  -0.9043  -0.9042  -0.9042  -0.9042  -0.9012  -0.9012
    -0.8846  -0.8846  -0.8846  -0.8846  -0.8772  -0.8772  -0.8772  -0.8772
    -0.8762  -0.8762  -0.8760  -0.8760  -0.8759  -0.8759  -0.8677  -0.8677
    -0.8677  -0.8677  -0.8661  -0.8661  -0.8620  -0.8620  -0.8619  -0.8619
    -0.8566  -0.8566  -0.8528  -0.8528  -0.8445  -0.8445  -0.8445  -0.8445
    -0.8424  -0.8424  -0.8391  -0.8391  -0.8175  -0.8175  -0.8154  -0.8154
    -0.8154  -0.8154  -0.5726  -0.5726  -0.5726  -0.5726  -0.1513  -0.1513
    -0.1217  -0.1216

          k = 0.0833 0.1389 0.1389 (120596 PWs)   bands (ev):

   -71.8087 -71.8087 -71.8087 -71.8086 -71.8086 -71.8086 -71.8086 -71.8086
   -71.8086 -71.8086 -71.8086 -71.8086 -71.8086 -71.8086 -71.8086 -71.8086
   -41.8980 -41.8980 -41.8980 -41.8980 -41.8980 -41.8980 -41.8980 -41.8980
   -41.8980 -41.8980 -41.8980 -41.8980 -41.8980 -41.8980 -41.8980 -41.8980
   -41.8979 -41.8979 -41.8979 -41.8979 -41.8979 -41.8979 -41.8979 -41.8979
   -41.8979 -41.8979 -41.8979 -41.8979 -41.8979 -41.8979 -41.8979 -41.8979
   -41.8979 -41.8979 -41.8979 -41.8979 -41.8979 -41.8979 -41.8979 -41.8979
   -41.8979 -41.8979 -41.8979 -41.8979 -41.8979 -41.8979 -41.8979 -41.8979
    -1.4011  -1.0768  -1.0768  -1.0526  -1.0341  -1.0341  -1.0216  -1.0201
    -1.0201  -1.0141  -1.0008  -0.9909  -0.9866  -0.9862  -0.9853  -0.9853
    -0.9744  -0.9695  -0.9686  -0.9686  -0.9638  -0.9638  -0.9637  -0.9577
    -0.9576  -0.9508  -0.9508  -0.9507  -0.9494  -0.9468  -0.9468  -0.9425
    -0.9231  -0.9224  -0.9224  -0.9163  -0.9129  -0.9127  -0.9127  -0.9102
    -0.9027  -0.9008  -0.8899  -0.8863  -0.8860  -0.8860  -0.8803  -0.8803
    -0.8770  -0.8758  -0.8706  -0.8706  -0.8698  -0.8698  -0.8698  -0.8684
    -0.8684  -0.8644  -0.8623  -0.8623  -0.8613  -0.8599  -0.8588  -0.8588
    -0.8587  -0.8572  -0.8568  -0.8563  -0.8540  -0.8519  -0.8386  -0.8386
    -0.8367  -0.8324  -0.8249  -0.8249  -0.8243  -0.8135  -0.8135  -0.8117
    -0.8033  -0.8009  -0.8009  -0.6684  -0.4921  -0.3373  -0.3373  -0.1949
    -0.1130  -0.0481

          k = 0.0833 0.1389 0.1944 (120666 PWs)   bands (ev):

   -71.8087 -71.8087 -71.8087 -71.8086 -71.8086 -71.8086 -71.8086 -71.8086
   -71.8086 -71.8086 -71.8086 -71.8086 -71.8086 -71.8086 -71.8086 -71.8086
   -41.8980 -41.8980 -41.8980 -41.8980 -41.8980 -41.8980 -41.8980 -41.8980
   -41.8980 -41.8980 -41.8980 -41.8980 -41.8980 -41.8980 -41.8980 -41.8980
   -41.8980 -41.8979 -41.8979 -41.8979 -41.8979 -41.8979 -41.8979 -41.8979
   -41.8979 -41.8979 -41.8979 -41.8979 -41.8979 -41.8979 -41.8979 -41.8979
   -41.8979 -41.8979 -41.8979 -41.8979 -41.8979 -41.8979 -41.8979 -41.8979
   -41.8979 -41.8979 -41.8979 -41.8979 -41.8979 -41.8979 -41.8979 -41.8979
    -1.3361  -1.1615  -1.0662  -1.0556  -1.0310  -1.0237  -1.0154  -1.0144
    -1.0097  -1.0057  -1.0006  -0.9849  -0.9841  -0.9830  -0.9817  -0.9813
    -0.9775  -0.9762  -0.9733  -0.9703  -0.9637  -0.9632  -0.9599  -0.9598
    -0.9587  -0.9565  -0.9534  -0.9530  -0.9527  -0.9479  -0.9475  -0.9412
    -0.9348  -0.9330  -0.9195  -0.9085  -0.9056  -0.9050  -0.9025  -0.9019
    -0.8999  -0.8958  -0.8931  -0.8917  -0.8819  -0.8800  -0.8799  -0.8793
    -0.8778  -0.8763  -0.8746  -0.8737  -0.8735  -0.8722  -0.8718  -0.8696
    -0.8681  -0.8668  -0.8664  -0.8652  -0.8631  -0.8606  -0.8600  -0.8583
    -0.8582  -0.8577  -0.8566  -0.8562  -0.8524  -0.8516  -0.8495  -0.8468
    -0.8462  -0.8425  -0.8336  -0.8283  -0.8255  -0.8182  -0.8171  -0.8169
    -0.8115  -0.8054  -0.7603  -0.6089  -0.6033  -0.4405  -0.2941  -0.1786
    -0.1496  -0.0502

          k = 0.0833 0.1389-0.2500 (120674 PWs)   bands (ev):

   -71.8087 -71.8087 -71.8087 -71.8086 -71.8086 -71.8086 -71.8086 -71.8086
   -71.8086 -71.8086 -71.8086 -71.8086 -71.8086 -71.8086 -71.8086 -71.8086
   -41.8980 -41.8980 -41.8980 -41.8980 -41.8980 -41.8980 -41.8980 -41.8980
   -41.8980 -41.8980 -41.8980 -41.8980 -41.8980 -41.8980 -41.8980 -41.8980
   -41.8980 -41.8980 -41.8979 -41.8979 -41.8979 -41.8979 -41.8979 -41.8979
   -41.8979 -41.8979 -41.8979 -41.8979 -41.8979 -41.8979 -41.8979 -41.8979
   -41.8979 -41.8979 -41.8979 -41.8979 -41.8979 -41.8979 -41.8979 -41.8979
   -41.8979 -41.8979 -41.8979 -41.8979 -41.8979 -41.8979 -41.8979 -41.8979
    -1.2538  -1.2537  -1.0595  -1.0595  -1.0272  -1.0272  -1.0099  -1.0099
    -0.9972  -0.9972  -0.9970  -0.9970  -0.9865  -0.9865  -0.9779  -0.9779
    -0.9742  -0.9742  -0.9740  -0.9740  -0.9662  -0.9662  -0.9642  -0.9642
    -0.9596  -0.9596  -0.9505  -0.9505  -0.9470  -0.9470  -0.9440  -0.9440
    -0.9429  -0.9429  -0.9146  -0.9145  -0.9021  -0.9021  -0.8915  -0.8915
    -0.8885  -0.8885  -0.8859  -0.8859  -0.8847  -0.8847  -0.8815  -0.8815
    -0.8803  -0.8803  -0.8766  -0.8766  -0.8736  -0.8736  -0.8728  -0.8728
    -0.8727  -0.8727  -0.8713  -0.8713  -0.8629  -0.8629  -0.8620  -0.8620
    -0.8558  -0.8558  -0.8544  -0.8544  -0.8538  -0.8538  -0.8496  -0.8496
    -0.8452  -0.8452  -0.8375  -0.8375  -0.8225  -0.8225  -0.8137  -0.8137
    -0.8100  -0.8100  -0.6943  -0.6943  -0.5324  -0.5324  -0.2403  -0.2403
    -0.0983  -0.0983

          k = 0.0833 0.1944 0.1944 (120673 PWs)   bands (ev):

   -71.8087 -71.8087 -71.8087 -71.8086 -71.8086 -71.8086 -71.8086 -71.8086
   -71.8086 -71.8086 -71.8086 -71.8086 -71.8086 -71.8086 -71.8086 -71.8086
   -41.8980 -41.8980 -41.8980 -41.8980 -41.8980 -41.8980 -41.8980 -41.8980
   -41.8980 -41.8980 -41.8980 -41.8980 -41.8980 -41.8980 -41.8980 -41.8980
   -41.8980 -41.8979 -41.8979 -41.8979 -41.8979 -41.8979 -41.8979 -41.8979
   -41.8979 -41.8979 -41.8979 -41.8979 -41.8979 -41.8979 -41.8979 -41.8979
   -41.8979 -41.8979 -41.8979 -41.8979 -41.8979 -41.8979 -41.8979 -41.8979
   -41.8979 -41.8979 -41.8979 -41.8979 -41.8979 -41.8979 -41.8979 -41.8979
    -1.2755  -1.1262  -1.1262  -1.0710  -1.0192  -1.0157  -1.0157  -1.0081
    -1.0081  -1.0074  -0.9927  -0.9905  -0.9888  -0.9799  -0.9797  -0.9723
    -0.9723  -0.9712  -0.9712  -0.9667  -0.9667  -0.9663  -0.9645  -0.9568
    -0.9506  -0.9506  -0.9496  -0.9455  -0.9438  -0.9436  -0.9436  -0.9428
    -0.9316  -0.9191  -0.9191  -0.9181  -0.9181  -0.9152  -0.9110  -0.9060
    -0.9027  -0.8970  -0.8926  -0.8926  -0.8922  -0.8837  -0.8822  -0.8822
    -0.8764  -0.8763  -0.8757  -0.8757  -0.8722  -0.8694  -0.8689  -0.8682
    -0.8675  -0.8675  -0.8669  -0.8669  -0.8642  -0.8642  -0.8626  -0.8592
    -0.8590  -0.8588  -0.8587  -0.8578  -0.8559  -0.8525  -0.8525  -0.8519
    -0.8438  -0.8422  -0.8309  -0.8275  -0.8275  -0.8256  -0.8256  -0.8120
    -0.8120  -0.8095  -0.8050  -0.7080  -0.5504  -0.3903  -0.3903  -0.2562
    -0.1106  -0.0257

          k = 0.0833 0.1944-0.2500 (120646 PWs)   bands (ev):

   -71.8087 -71.8087 -71.8087 -71.8086 -71.8086 -71.8086 -71.8086 -71.8086
   -71.8086 -71.8086 -71.8086 -71.8086 -71.8086 -71.8086 -71.8086 -71.8086
   -41.8980 -41.8980 -41.8980 -41.8980 -41.8980 -41.8980 -41.8980 -41.8980
   -41.8980 -41.8980 -41.8980 -41.8980 -41.8980 -41.8980 -41.8980 -41.8980
   -41.8979 -41.8979 -41.8979 -41.8979 -41.8979 -41.8979 -41.8979 -41.8979
   -41.8979 -41.8979 -41.8979 -41.8979 -41.8979 -41.8979 -41.8979 -41.8979
   -41.8979 -41.8979 -41.8979 -41.8979 -41.8979 -41.8979 -41.8979 -41.8979
   -41.8979 -41.8979 -41.8979 -41.8979 -41.8979 -41.8979 -41.8979 -41.8979
    -1.2019  -1.2018  -1.0941  -1.0941  -1.0168  -1.0168  -1.0078  -1.0078
    -1.0026  -1.0025  -0.9997  -0.9997  -0.9788  -0.9788  -0.9754  -0.9754
    -0.9746  -0.9746  -0.9670  -0.9670  -0.9619  -0.9619  -0.9584  -0.9584
    -0.9543  -0.9543  -0.9451  -0.9451  -0.9398  -0.9398  -0.9356  -0.9356
    -0.9333  -0.9333  -0.9266  -0.9266  -0.9075  -0.9075  -0.9014  -0.9014
    -0.9001  -0.9001  -0.8963  -0.8963  -0.8951  -0.8951  -0.8941  -0.8941
    -0.8721  -0.8721  -0.8717  -0.8717  -0.8713  -0.8713  -0.8712  -0.8712
    -0.8675  -0.8675  -0.8652  -0.8652  -0.8650  -0.8650  -0.8621  -0.8621
    -0.8574  -0.8574  -0.8555  -0.8555  -0.8548  -0.8548  -0.8531  -0.8531
    -0.8522  -0.8522  -0.8372  -0.8372  -0.8301  -0.8301  -0.8095  -0.8095
    -0.8073  -0.8073  -0.7823  -0.7823  -0.4770  -0.4770  -0.3281  -0.3281
    -0.0666  -0.0666

          k = 0.0833-0.2500-0.2500 (120612 PWs)   bands (ev):

   -71.8087 -71.8087 -71.8087 -71.8086 -71.8086 -71.8086 -71.8086 -71.8086
   -71.8086 -71.8086 -71.8086 -71.8086 -71.8086 -71.8086 -71.8086 -71.8086
   -41.8980 -41.8980 -41.8980 -41.8980 -41.8980 -41.8980 -41.8980 -41.8980
   -41.8980 -41.8980 -41.8980 -41.8980 -41.8980 -41.8980 -41.8980 -41.8979
   -41.8979 -41.8979 -41.8979 -41.8979 -41.8979 -41.8979 -41.8979 -41.8979
   -41.8979 -41.8979 -41.8979 -41.8979 -41.8979 -41.8979 -41.8979 -41.8979
   -41.8979 -41.8979 -41.8979 -41.8979 -41.8979 -41.8979 -41.8979 -41.8979
   -41.8979 -41.8979 -41.8979 -41.8979 -41.8979 -41.8979 -41.8979 -41.8979
    -1.1444  -1.1443  -1.1443  -1.1443  -1.0087  -1.0087  -1.0087  -1.0087
    -1.0039  -1.0039  -1.0039  -1.0039  -0.9753  -0.9753  -0.9753  -0.9753
    -0.9722  -0.9722  -0.9722  -0.9722  -0.9543  -0.9543  -0.9543  -0.9543
    -0.9417  -0.9417  -0.9417  -0.9417  -0.9395  -0.9395  -0.9395  -0.9395
    -0.9220  -0.9220  -0.9220  -0.9220  -0.9162  -0.9162  -0.9162  -0.9162
    -0.9058  -0.9058  -0.9058  -0.9058  -0.9004  -0.9004  -0.9004  -0.9004
    -0.8705  -0.8705  -0.8705  -0.8705  -0.8684  -0.8684  -0.8684  -0.8684
    -0.8635  -0.8635  -0.8635  -0.8635  -0.8627  -0.8627  -0.8627  -0.8626
    -0.8584  -0.8584  -0.8584  -0.8584  -0.8537  -0.8537  -0.8537  -0.8537
    -0.8354  -0.8354  -0.8354  -0.8354  -0.8337  -0.8337  -0.8337  -0.8337
    -0.8072  -0.8071  -0.8071  -0.8071  -0.4083  -0.4082  -0.4082  -0.4082
    -0.0309  -0.0309

          k = 0.1389 0.1389 0.1389 (120689 PWs)   bands (ev):

   -71.8087 -71.8087 -71.8087 -71.8086 -71.8086 -71.8086 -71.8086 -71.8086
   -71.8086 -71.8086 -71.8086 -71.8086 -71.8086 -71.8086 -71.8086 -71.8086
   -41.8980 -41.8980 -41.8980 -41.8980 -41.8980 -41.8980 -41.8980 -41.8980
   -41.8980 -41.8980 -41.8980 -41.8980 -41.8980 -41.8980 -41.8980 -41.8980
   -41.8980 -41.8980 -41.8980 -41.8979 -41.8979 -41.8979 -41.8979 -41.8979
   -41.8979 -41.8979 -41.8979 -41.8979 -41.8979 -41.8979 -41.8979 -41.8979
   -41.8979 -41.8979 -41.8979 -41.8979 -41.8979 -41.8979 -41.8979 -41.8979
   -41.8979 -41.8979 -41.8979 -41.8979 -41.8979 -41.8979 -41.8979 -41.8979
    -1.3578  -1.0628  -1.0628  -1.0628  -1.0357  -1.0356  -1.0356  -1.0107
    -1.0107  -1.0107  -1.0048  -0.9846  -0.9846  -0.9846  -0.9830  -0.9830
    -0.9662  -0.9662  -0.9599  -0.9599  -0.9599  -0.9575  -0.9574  -0.9574
    -0.9565  -0.9565  -0.9565  -0.9565  -0.9565  -0.9455  -0.9454  -0.9454
    -0.9358  -0.9358  -0.9358  -0.9176  -0.9176  -0.9176  -0.9115  -0.9113
    -0.9113  -0.8994  -0.8907  -0.8907  -0.8907  -0.8823  -0.8823  -0.8823
    -0.8764  -0.8719  -0.8719  -0.8719  -0.8681  -0.8681  -0.8681  -0.8650
    -0.8650  -0.8650  -0.8626  -0.8626  -0.8585  -0.8585  -0.8573  -0.8573
    -0.8573  -0.8566  -0.8566  -0.8566  -0.8543  -0.8543  -0.8543  -0.8525
    -0.8525  -0.8249  -0.8249  -0.8249  -0.8188  -0.8188  -0.8120  -0.8120
    -0.8120  -0.7687  -0.7687  -0.7687  -0.4560  -0.4560  -0.4560  -0.1931
    -0.0244  -0.0244

          k = 0.1389 0.1389 0.1944 (120675 PWs)   bands (ev):

   -71.8087 -71.8087 -71.8087 -71.8086 -71.8086 -71.8086 -71.8086 -71.8086
   -71.8086 -71.8086 -71.8086 -71.8086 -71.8086 -71.8086 -71.8086 -71.8086
   -41.8980 -41.8980 -41.8980 -41.8980 -41.8980 -41.8980 -41.8980 -41.8980
   -41.8980 -41.8980 -41.8980 -41.8980 -41.8980 -41.8980 -41.8980 -41.8980
   -41.8980 -41.8979 -41.8979 -41.8979 -41.8979 -41.8979 -41.8979 -41.8979
   -41.8979 -41.8979 -41.8979 -41.8979 -41.8979 -41.8979 -41.8979 -41.8979
   -41.8979 -41.8979 -41.8979 -41.8979 -41.8979 -41.8979 -41.8979 -41.8979
   -41.8979 -41.8979 -41.8979 -41.8979 -41.8979 -41.8979 -41.8979 -41.8979
    -1.2950  -1.1330  -1.0499  -1.0499  -1.0376  -1.0375  -1.0134  -1.0085
    -1.0068  -0.9989  -0.9989  -0.9821  -0.9798  -0.9798  -0.9778  -0.9731
    -0.9723  -0.9710  -0.9709  -0.9708  -0.9641  -0.9598  -0.9582  -0.9582
    -0.9547  -0.9534  -0.9520  -0.9520  -0.9519  -0.9514  -0.9496  -0.9496
    -0.9490  -0.9247  -0.9214  -0.9214  -0.9185  -0.9185  -0.9185  -0.9103
    -0.9026  -0.9026  -0.9019  -0.8925  -0.8923  -0.8832  -0.8774  -0.8774
    -0.8769  -0.8759  -0.8759  -0.8755  -0.8711  -0.8711  -0.8685  -0.8685
    -0.8665  -0.8658  -0.8654  -0.8654  -0.8654  -0.8605  -0.8600  -0.8589
    -0.8581  -0.8575  -0.8560  -0.8560  -0.8553  -0.8550  -0.8550  -0.8528
    -0.8455  -0.8286  -0.8262  -0.8233  -0.8218  -0.8218  -0.8194  -0.8161
    -0.8134  -0.8134  -0.7195  -0.7195  -0.5627  -0.5627  -0.4059  -0.2719
     0.0051   0.0051

          k = 0.1389 0.1389-0.2500 (120668 PWs)   bands (ev):

   -71.8087 -71.8087 -71.8087 -71.8086 -71.8086 -71.8086 -71.8086 -71.8086
   -71.8086 -71.8086 -71.8086 -71.8086 -71.8086 -71.8086 -71.8086 -71.8086
   -41.8980 -41.8980 -41.8980 -41.8980 -41.8980 -41.8980 -41.8980 -41.8980
   -41.8980 -41.8980 -41.8980 -41.8980 -41.8980 -41.8980 -41.8980 -41.8980
   -41.8980 -41.8980 -41.8979 -41.8979 -41.8979 -41.8979 -41.8979 -41.8979
   -41.8979 -41.8979 -41.8979 -41.8979 -41.8979 -41.8979 -41.8979 -41.8979
   -41.8979 -41.8979 -41.8979 -41.8979 -41.8979 -41.8979 -41.8979 -41.8979
   -41.8979 -41.8979 -41.8979 -41.8979 -41.8979 -41.8979 -41.8979 -41.8979
    -1.2168  -1.2168  -1.0416  -1.0416  -1.0416  -1.0416  -1.0076  -1.0076
    -0.9898  -0.9898  -0.9854  -0.9854  -0.9854  -0.9854  -0.9783  -0.9783
    -0.9714  -0.9714  -0.9708  -0.9708  -0.9708  -0.9708  -0.9609  -0.9609
    -0.9591  -0.9591  -0.9522  -0.9522  -0.9475  -0.9475  -0.9475  -0.9475
    -0.9389  -0.9389  -0.9132  -0.9132  -0.9132  -0.9132  -0.9078  -0.9078
    -0.8987  -0.8987  -0.8987  -0.8987  -0.8957  -0.8957  -0.8956  -0.8956
    -0.8726  -0.8726  -0.8726  -0.8726  -0.8714  -0.8714  -0.8685  -0.8685
    -0.8685  -0.8685  -0.8654  -0.8654  -0.8629  -0.8629  -0.8599  -0.8599
    -0.8578  -0.8578  -0.8552  -0.8552  -0.8552  -0.8552  -0.8539  -0.8539
    -0.8403  -0.8403  -0.8352  -0.8352  -0.8171  -0.8171  -0.8171  -0.8171
    -0.8163  -0.8163  -0.6513  -0.6513  -0.6513  -0.6513  -0.3439  -0.3439
     0.0324   0.0325

          k = 0.1389 0.1944 0.1944 (120650 PWs)   bands (ev):

   -71.8087 -71.8087 -71.8087 -71.8086 -71.8086 -71.8086 -71.8086 -71.8086
   -71.8086 -71.8086 -71.8086 -71.8086 -71.8086 -71.8086 -71.8086 -71.8086
   -41.8980 -41.8980 -41.8980 -41.8980 -41.8980 -41.8980 -41.8980 -41.8980
   -41.8980 -41.8980 -41.8980 -41.8980 -41.8980 -41.8980 -41.8980 -41.8980
   -41.8980 -41.8979 -41.8979 -41.8979 -41.8979 -41.8979 -41.8979 -41.8979
   -41.8979 -41.8979 -41.8979 -41.8979 -41.8979 -41.8979 -41.8979 -41.8979
   -41.8979 -41.8979 -41.8979 -41.8979 -41.8979 -41.8979 -41.8979 -41.8979
   -41.8979 -41.8979 -41.8979 -41.8979 -41.8979 -41.8979 -41.8979 -41.8979
    -1.2365  -1.0985  -1.0985  -1.0484  -1.0331  -1.0148  -1.0148  -1.0055
    -0.9998  -0.9998  -0.9867  -0.9809  -0.9785  -0.9777  -0.9761  -0.9761
    -0.9715  -0.9647  -0.9647  -0.9638  -0.9637  -0.9636  -0.9634  -0.9634
    -0.9540  -0.9533  -0.9488  -0.9488  -0.9481  -0.9469  -0.9454  -0.9454
    -0.9386  -0.9386  -0.9331  -0.9279  -0.9279  -0.9246  -0.9220  -0.9169
    -0.9152  -0.9092  -0.9071  -0.9035  -0.9035  -0.8964  -0.8964  -0.8949
    -0.8738  -0.8733  -0.8733  -0.8687  -0.8671  -0.8669  -0.8669  -0.8664
    -0.8636  -0.8636  -0.8622  -0.8618  -0.8610  -0.8606  -0.8584  -0.8582
    -0.8573  -0.8573  -0.8571  -0.8571  -0.8553  -0.8547  -0.8547  -0.8534
    -0.8428  -0.8330  -0.8254  -0.8238  -0.8238  -0.8176  -0.8176  -0.8166
    -0.8127  -0.7920  -0.7920  -0.6648  -0.6643  -0.5078  -0.5078  -0.3607
     0.0292   0.0610

          k = 0.1389 0.1944-0.2500 (120674 PWs)   bands (ev):

   -71.8087 -71.8087 -71.8087 -71.8086 -71.8086 -71.8086 -71.8086 -71.8086
   -71.8086 -71.8086 -71.8086 -71.8086 -71.8086 -71.8086 -71.8086 -71.8086
   -41.8980 -41.8980 -41.8980 -41.8980 -41.8980 -41.8980 -41.8980 -41.8980
   -41.8980 -41.8980 -41.8980 -41.8980 -41.8980 -41.8980 -41.8980 -41.8980
   -41.8979 -41.8979 -41.8979 -41.8979 -41.8979 -41.8979 -41.8979 -41.8979
   -41.8979 -41.8979 -41.8979 -41.8979 -41.8979 -41.8979 -41.8979 -41.8979
   -41.8979 -41.8979 -41.8979 -41.8979 -41.8979 -41.8979 -41.8979 -41.8979
   -41.8979 -41.8979 -41.8979 -41.8979 -41.8979 -41.8979 -41.8979 -41.8979
    -1.1667  -1.1667  -1.0681  -1.0681  -1.0212  -1.0211  -1.0027  -1.0026
    -0.9939  -0.9939  -0.9890  -0.9890  -0.9742  -0.9742  -0.9729  -0.9729
    -0.9690  -0.9690  -0.9669  -0.9669  -0.9656  -0.9656  -0.9643  -0.9643
    -0.9529  -0.9529  -0.9489  -0.9489  -0.9445  -0.9445  -0.9441  -0.9441
    -0.9347  -0.9347  -0.9264  -0.9264  -0.9239  -0.9239  -0.9189  -0.9189
    -0.9189  -0.9189  -0.9153  -0.9153  -0.9125  -0.9125  -0.9054  -0.9054
    -0.8702  -0.8702  -0.8700  -0.8700  -0.8692  -0.8692  -0.8642  -0.8642
    -0.8608  -0.8608  -0.8608  -0.8608  -0.8594  -0.8594  -0.8580  -0.8580
    -0.8578  -0.8578  -0.8570  -0.8570  -0.8561  -0.8561  -0.8432  -0.8432
    -0.8347  -0.8347  -0.8346  -0.8346  -0.8255  -0.8255  -0.8160  -0.8160
    -0.8145  -0.8145  -0.7401  -0.7401  -0.5946  -0.5946  -0.4402  -0.4402
     0.0511   0.0511

          k = 0.1389-0.2500-0.2500 (120676 PWs)   bands (ev):

   -71.8087 -71.8087 -71.8087 -71.8086 -71.8086 -71.8086 -71.8086 -71.8086
   -71.8086 -71.8086 -71.8086 -71.8086 -71.8086 -71.8086 -71.8086 -71.8086
   -41.8980 -41.8980 -41.8980 -41.8980 -41.8980 -41.8980 -41.8980 -41.8980
   -41.8980 -41.8980 -41.8980 -41.8980 -41.8980 -41.8980 -41.8980 -41.8979
   -41.8979 -41.8979 -41.8979 -41.8979 -41.8979 -41.8979 -41.8979 -41.8979
   -41.8979 -41.8979 -41.8979 -41.8979 -41.8979 -41.8979 -41.8979 -41.8979
   -41.8979 -41.8979 -41.8979 -41.8979 -41.8979 -41.8979 -41.8979 -41.8979
   -41.8979 -41.8979 -41.8979 -41.8979 -41.8979 -41.8979 -41.8979 -41.8979
    -1.1125  -1.1124  -1.1124  -1.1124  -1.0045  -1.0045  -1.0045  -1.0045
    -0.9959  -0.9959  -0.9959  -0.9959  -0.9712  -0.9712  -0.9712  -0.9712
    -0.9674  -0.9674  -0.9674  -0.9674  -0.9594  -0.9594  -0.9594  -0.9594
    -0.9405  -0.9405  -0.9405  -0.9405  -0.9376  -0.9376  -0.9376  -0.9376
    -0.9373  -0.9373  -0.9373  -0.9373  -0.9370  -0.9370  -0.9370  -0.9370
    -0.9287  -0.9287  -0.9287  -0.9287  -0.9110  -0.9110  -0.9110  -0.9110
    -0.8685  -0.8685  -0.8684  -0.8684  -0.8669  -0.8669  -0.8669  -0.8669
    -0.8595  -0.8595  -0.8595  -0.8595  -0.8571  -0.8571  -0.8571  -0.8571
    -0.8564  -0.8564  -0.8564  -0.8564  -0.8515  -0.8515  -0.8515  -0.8515
    -0.8321  -0.8321  -0.8321  -0.8321  -0.8145  -0.8145  -0.8145  -0.8145
    -0.7980  -0.7979  -0.7979  -0.7979  -0.5243  -0.5243  -0.5243  -0.5243
     0.0680   0.0680

          k = 0.1944 0.1944 0.1944 (120693 PWs)   bands (ev):

   -71.8087 -71.8087 -71.8087 -71.8086 -71.8086 -71.8086 -71.8086 -71.8086
   -71.8086 -71.8086 -71.8086 -71.8086 -71.8086 -71.8086 -71.8086 -71.8086
   -41.8980 -41.8980 -41.8980 -41.8980 -41.8980 -41.8980 -41.8980 -41.8980
   -41.8980 -41.8980 -41.8980 -41.8980 -41.8980 -41.8980 -41.8980 -41.8980
   -41.8979 -41.8979 -41.8979 -41.8979 -41.8979 -41.8979 -41.8979 -41.8979
   -41.8979 -41.8979 -41.8979 -41.8979 -41.8979 -41.8979 -41.8979 -41.8979
   -41.8979 -41.8979 -41.8979 -41.8979 -41.8979 -41.8979 -41.8979 -41.8979
   -41.8979 -41.8979 -41.8979 -41.8979 -41.8979 -41.8979 -41.8979 -41.8979
    -1.1819  -1.0645  -1.0645  -1.0645  -1.0186  -1.0186  -1.0186  -1.0010
    -0.9889  -0.9889  -0.9889  -0.9764  -0.9764  -0.9764  -0.9692  -0.9692
    -0.9633  -0.9633  -0.9633  -0.9620  -0.9620  -0.9604  -0.9604  -0.9568
    -0.9568  -0.9568  -0.9553  -0.9553  -0.9553  -0.9520  -0.9520  -0.9520
    -0.9450  -0.9430  -0.9430  -0.9430  -0.9298  -0.9298  -0.9298  -0.9265
    -0.9197  -0.9197  -0.9191  -0.9191  -0.9191  -0.9156  -0.9156  -0.9156
    -0.8703  -0.8703  -0.8703  -0.8663  -0.8663  -0.8663  -0.8636  -0.8636
    -0.8608  -0.8608  -0.8589  -0.8589  -0.8589  -0.8579  -0.8579  -0.8579
    -0.8579  -0.8579  -0.8579  -0.8496  -0.8496  -0.8496  -0.8450  -0.8450
    -0.8361  -0.8264  -0.8264  -0.8230  -0.8230  -0.8230  -0.8226  -0.8226
    -0.8226  -0.7472  -0.7472  -0.7472  -0.6082  -0.6081  -0.6081  -0.4564
     0.1106   0.1158

          k = 0.1944 0.1944-0.2500 (120698 PWs)   bands (ev):

   -71.8087 -71.8087 -71.8087 -71.8086 -71.8086 -71.8086 -71.8086 -71.8086
   -71.8086 -71.8086 -71.8086 -71.8086 -71.8086 -71.8086 -71.8086 -71.8086
   -41.8980 -41.8980 -41.8980 -41.8980 -41.8980 -41.8980 -41.8980 -41.8980
   -41.8980 -41.8980 -41.8980 -41.8980 -41.8980 -41.8980 -41.8980 -41.8980
   -41.8980 -41.8980 -41.8979 -41.8979 -41.8979 -41.8979 -41.8979 -41.8979
   -41.8979 -41.8979 -41.8979 -41.8979 -41.8979 -41.8979 -41.8979 -41.8979
   -41.8979 -41.8979 -41.8979 -41.8979 -41.8979 -41.8979 -41.8979 -41.8979
   -41.8979 -41.8979 -41.8979 -41.8979 -41.8979 -41.8979 -41.8979 -41.8979
    -1.1195  -1.1195  -1.0348  -1.0348  -1.0348  -1.0348  -0.9948  -0.9948
    -0.9866  -0.9866  -0.9761  -0.9761  -0.9761  -0.9761  -0.9734  -0.9734
    -0.9694  -0.9694  -0.9694  -0.9694  -0.9642  -0.9642  -0.9598  -0.9598
    -0.9563  -0.9563  -0.9518  -0.9518  -0.9449  -0.9449  -0.9449  -0.9449
    -0.9414  -0.9414  -0.9414  -0.9414  -0.9402  -0.9402  -0.9390  -0.9390
    -0.9326  -0.9326  -0.9258  -0.9258  -0.9258  -0.9258  -0.9169  -0.9169
    -0.8675  -0.8675  -0.8675  -0.8675  -0.8668  -0.8668  -0.8635  -0.8635
    -0.8607  -0.8607  -0.8598  -0.8598  -0.8589  -0.8589  -0.8589  -0.8589
    -0.8517  -0.8517  -0.8517  -0.8517  -0.8502  -0.8502  -0.8377  -0.8377
    -0.8343  -0.8343  -0.8237  -0.8237  -0.8237  -0.8237  -0.8229  -0.8229
    -0.8006  -0.8006  -0.6875  -0.6875  -0.6875  -0.6875  -0.5391  -0.5391
     0.1192   0.1192

          k = 0.1944-0.2500-0.2500 (120648 PWs)   bands (ev):

   -71.8087 -71.8087 -71.8087 -71.8086 -71.8086 -71.8086 -71.8086 -71.8086
   -71.8086 -71.8086 -71.8086 -71.8086 -71.8086 -71.8086 -71.8086 -71.8086
   -41.8980 -41.8980 -41.8980 -41.8980 -41.8980 -41.8980 -41.8980 -41.8980
   -41.8980 -41.8980 -41.8980 -41.8980 -41.8980 -41.8980 -41.8980 -41.8980
   -41.8979 -41.8979 -41.8979 -41.8979 -41.8979 -41.8979 -41.8979 -41.8979
   -41.8979 -41.8979 -41.8979 -41.8979 -41.8979 -41.8979 -41.8979 -41.8979
   -41.8979 -41.8979 -41.8979 -41.8979 -41.8979 -41.8979 -41.8979 -41.8979
   -41.8979 -41.8979 -41.8979 -41.8979 -41.8979 -41.8979 -41.8979 -41.8979
    -1.0700  -1.0700  -1.0700  -1.0700  -1.0025  -1.0025  -1.0025  -1.0025
    -0.9851  -0.9851  -0.9851  -0.9851  -0.9696  -0.9696  -0.9696  -0.9696
    -0.9638  -0.9638  -0.9638  -0.9638  -0.9620  -0.9620  -0.9620  -0.9620
    -0.9577  -0.9577  -0.9577  -0.9577  -0.9555  -0.9555  -0.9555  -0.9555
    -0.9466  -0.9466  -0.9466  -0.9466  -0.9391  -0.9391  -0.9391  -0.9391
    -0.9368  -0.9368  -0.9368  -0.9368  -0.9241  -0.9241  -0.9241  -0.9241
    -0.8658  -0.8658  -0.8658  -0.8658  -0.8648  -0.8648  -0.8648  -0.8648
    -0.8609  -0.8609  -0.8609  -0.8609  -0.8599  -0.8599  -0.8599  -0.8599
    -0.8467  -0.8466  -0.8466  -0.8466  -0.8421  -0.8421  -0.8421  -0.8421
    -0.8321  -0.8321  -0.8321  -0.8321  -0.8243  -0.8243  -0.8243  -0.8243
    -0.7541  -0.7541  -0.7541  -0.7541  -0.6215  -0.6215  -0.6215  -0.6215
     0.1384   0.1385

          k =-0.2500-0.2500-0.2500 (120648 PWs)   bands (ev):

   -71.8087 -71.8087 -71.8087 -71.8086 -71.8086 -71.8086 -71.8086 -71.8086
   -71.8086 -71.8086 -71.8086 -71.8086 -71.8086 -71.8086 -71.8086 -71.8086
   -41.8980 -41.8980 -41.8980 -41.8980 -41.8980 -41.8980 -41.8980 -41.8980
   -41.8980 -41.8980 -41.8980 -41.8980 -41.8980 -41.8980 -41.8980 -41.8980
   -41.8980 -41.8980 -41.8980 -41.8979 -41.8979 -41.8979 -41.8979 -41.8979
   -41.8979 -41.8979 -41.8979 -41.8979 -41.8979 -41.8979 -41.8979 -41.8979
   -41.8979 -41.8979 -41.8979 -41.8979 -41.8979 -41.8979 -41.8979 -41.8979
   -41.8979 -41.8979 -41.8979 -41.8979 -41.8979 -41.8979 -41.8979 -41.8979
    -1.0259  -1.0258  -1.0258  -1.0258  -1.0258  -1.0258  -1.0258  -1.0258
    -0.9724  -0.9724  -0.9724  -0.9724  -0.9724  -0.9724  -0.9724  -0.9724
    -0.9671  -0.9671  -0.9671  -0.9671  -0.9671  -0.9671  -0.9671  -0.9671
    -0.9671  -0.9671  -0.9671  -0.9671  -0.9671  -0.9671  -0.9671  -0.9671
    -0.9377  -0.9377  -0.9377  -0.9377  -0.9377  -0.9377  -0.9377  -0.9377
    -0.9377  -0.9377  -0.9377  -0.9377  -0.9377  -0.9377  -0.9377  -0.9377
    -0.8628  -0.8628  -0.8628  -0.8628  -0.8628  -0.8628  -0.8628  -0.8628
    -0.8628  -0.8628  -0.8628  -0.8628  -0.8628  -0.8628  -0.8628  -0.8628
    -0.8355  -0.8355  -0.8355  -0.8355  -0.8355  -0.8355  -0.8355  -0.8355
    -0.8355  -0.8355  -0.8355  -0.8355  -0.8355  -0.8355  -0.8355  -0.8355
    -0.6972  -0.6972  -0.6972  -0.6972  -0.6972  -0.6971  -0.6971  -0.6971
     0.1805   0.1805

     the Fermi energy is    -0.6458 ev

!    total energy              =   -6897.45234206 Ry

     total all-electron energy =   -144985.647512 Ry
     estimated scf accuracy    <       0.00000072 Ry
     smearing contrib. (-TS)   =      -0.56372037 Ry
     internal energy E=F+TS    =   -6896.88862169 Ry

     The total energy is F=E-TS. E is the sum of the following terms:
     one-electron contribution =   -2682.98868425 Ry
     hartree contribution      =    1343.53120843 Ry
     xc contribution           =    -458.78998244 Ry
     ewald contribution        =   -1304.22040664 Ry
     one-center paw contrib.   =   -3794.42075679 Ry

     convergence has been achieved in  27 iterations

     Forces acting on atoms (cartesian axes, Ry/au):

     atom    1 type  1   force =     0.00000000    0.00000000    0.00000000
     atom    2 type  1   force =    -0.00000654   -0.00000654   -0.00000654
     atom    3 type  1   force =     0.00000000    0.00000000    0.00000000
     atom    4 type  1   force =    -0.00000654   -0.00000654    0.00000654
     atom    5 type  1   force =     0.00000000    0.00000000    0.00000000
     atom    6 type  1   force =    -0.00000654    0.00000654   -0.00000654
     atom    7 type  1   force =     0.00000000    0.00000000    0.00000000
     atom    8 type  1   force =    -0.00000654    0.00000654    0.00000654
     atom    9 type  1   force =     0.00000000    0.00000000    0.00000000
     atom   10 type  1   force =     0.00000654   -0.00000654   -0.00000654
     atom   11 type  1   force =     0.00000000    0.00000000    0.00000000
     atom   12 type  1   force =     0.00000654   -0.00000654    0.00000654
     atom   13 type  1   force =     0.00000000    0.00000000    0.00000000
     atom   14 type  1   force =     0.00000654    0.00000654   -0.00000654
     atom   15 type  1   force =     0.00000000    0.00000000    0.00000000
     atom   16 type  1   force =     0.00000654    0.00000654    0.00000654

     Total force =     0.000032     Total SCF correction =     0.000155
     SCF correction compared to forces is large: reduce conv_thr to get better values


     Computing stress (Cartesian axis) and pressure

          total   stress  (Ry/bohr**3)                   (kbar)     P=      -14.40
  -0.00009791   0.00000000   0.00000000          -14.40        0.00        0.00
   0.00000000  -0.00009791   0.00000000            0.00      -14.40        0.00
   0.00000000   0.00000000  -0.00009791            0.00        0.00      -14.40


     Writing output data file /scratch/cWKIdTCRuFWYLhpJ.save/
 
     init_run     :     12.95s CPU     13.26s WALL (       1 calls)
     electrons    :   1098.09s CPU   1121.24s WALL (       1 calls)
     forces       :      4.10s CPU      4.40s WALL (       1 calls)
     stress       :     70.87s CPU     71.85s WALL (       1 calls)

     Called by init_run:
     wfcinit      :     11.44s CPU     11.68s WALL (       1 calls)
     potinit      :      0.22s CPU      0.23s WALL (       1 calls)
     hinit0       :      0.26s CPU      0.28s WALL (       1 calls)

     Called by electrons:
     c_bands      :    969.72s CPU    979.72s WALL (      27 calls)
     sum_band     :    119.95s CPU    127.59s WALL (      27 calls)
     v_of_rho     :      2.15s CPU      2.28s WALL (      28 calls)
     newd         :      3.71s CPU      8.41s WALL (      28 calls)
     PAW_pot      :      1.76s CPU      2.27s WALL (      28 calls)
     mix_rho      :      0.63s CPU      0.72s WALL (      27 calls)

     Called by c_bands:
     init_us_2    :      7.45s CPU      7.54s WALL (    1995 calls)
     cegterg      :    941.94s CPU    951.53s WALL (     945 calls)

     Called by *egterg:
     cdiaghg      :     49.89s CPU     50.18s WALL (    3754 calls)
     h_psi        :    473.10s CPU    478.70s WALL (    3789 calls)
     s_psi        :     29.03s CPU     29.22s WALL (    3789 calls)
     g_psi        :      5.00s CPU      5.05s WALL (    2809 calls)

     Called by h_psi:
     h_psi:calbec :     43.98s CPU     44.36s WALL (    3789 calls)
     vloc_psi     :    389.65s CPU    394.47s WALL (    3789 calls)
     add_vuspsi   :     28.17s CPU     28.41s WALL (    3789 calls)

     General routines
     calbec       :     64.66s CPU     65.26s WALL (    4909 calls)
     fft          :      2.01s CPU      2.10s WALL (     387 calls)
     ffts         :      0.10s CPU      0.11s WALL (      55 calls)
     fftw         :    460.45s CPU    466.57s WALL (  794468 calls)
     interpolate  :      0.16s CPU      0.18s WALL (      28 calls)
 
     Parallel routines
     fft_scatt_xy :     36.81s CPU     37.19s WALL (  794910 calls)
     fft_scatt_yz :    305.28s CPU    309.91s WALL (  794910 calls)
 
     PWSCF        :  19m56.44s CPU  20m25.59s WALL

 
   This run was terminated on:   1:13:59  26Nov2021            

=------------------------------------------------------------------------------=
   JOB DONE.
=------------------------------------------------------------------------------=
