
     Program PWSCF v.6.7MaX starts on 26Nov2021 at  0:14:31 

     This program is part of the open-source Quantum ESPRESSO suite
     for quantum simulation of materials; please cite
         "P. Giannozzi et al., J. Phys.:Condens. Matter 21 395502 (2009);
         "P. Giannozzi et al., J. Phys.:Condens. Matter 29 465901 (2017);
          URL http://www.quantum-espresso.org", 
     in publications or presentations arising from this work. More details at
     http://www.quantum-espresso.org/quote

     Parallel version (MPI & OpenMP), running on      72 processor cores
     Number of MPI processes:                72
     Threads/MPI process:                     1

     MPI processes distributed on     1 nodes
     R & G space division:  proc/nbgrp/npool/nimage =      72
     Reading input from bcc_8.in
Warning: card &CELL ignored
Warning: card CELL_DYNAMICS = 'BFGS', ignored
Warning: card CELL_FACTOR = 2.0, ignored
Warning: card PRESS = 0.0, ignored
Warning: card / ignored

     Current dimensions of program PWSCF are:
     Max number of different atomic species (ntypx) = 10
     Max number of k-points (npk) =  40000
     Max angular momentum in pseudopotentials (lmaxx) =  3
     file Ru.pbe-spn-kjpaw_psl.1.0.0.UPF: wavefunction(s)  4D renormalized

     Subspace diagonalization in iterative solution of the eigenvalue problem:
     one sub-group per band group will be used
     ELPA distributed-memory algorithm (size of sub-group:  8*  8 procs)

     Found symmetry operation: I + (  0.2500  0.2500  0.2500)
     This is a supercell, fractional translations are disabled
     Message from routine setup:
     using ibrav=0 with symmetry is DISCOURAGED, use correct ibrav instead
 
     Parallelization info
     --------------------
     sticks:   dense  smooth     PW     G-vecs:    dense   smooth      PW
     Min         179     118     31                15333     8234    1129
     Max         180     119     32                15340     8241    1136
     Sum       12917    8529   2261              1104165   593041   81433
 


     bravais-lattice index     =            0
     lattice parameter (alat)  =      11.4293  a.u.
     unit-cell volume          =    7335.0551 (a.u.)^3
     number of atoms/cell      =           16
     number of atomic types    =            1
     number of electrons       =       256.00
     number of Kohn-Sham states=          154
     kinetic-energy cutoff     =      71.0000  Ry
     charge density cutoff     =     430.0000  Ry
     scf convergence threshold =      1.0E-06
     mixing beta               =       0.1000
     number of iterations used =           10  TF        mixing
     Exchange-correlation= SLA  PW   PBX  PBC
                           (   1   4   3   4   0   0   0)

     celldm(1)=  11.429280  celldm(2)=   0.000000  celldm(3)=   0.000000
     celldm(4)=   0.000000  celldm(5)=   0.000000  celldm(6)=   0.000000

     crystal axes: (cart. coord. in units of alat)
               a(1) = (   1.700000   0.000000   0.000000 )  
               a(2) = (   0.000000   1.700000   0.000000 )  
               a(3) = (   0.000000   0.000000   1.700000 )  

     reciprocal axes: (cart. coord. in units 2 pi/alat)
               b(1) = (  0.588235  0.000000  0.000000 )  
               b(2) = (  0.000000  0.588235  0.000000 )  
               b(3) = (  0.000000  0.000000  0.588235 )  


     PseudoPot. # 1 for Ru read from file:
     /rds/homes/b/bxp912/pp/Ru.pbe-spn-kjpaw_psl.1.0.0.UPF
     MD5 check sum: 0ae1f594dea09af7be8575c3a481d1ae
     Pseudo is Projector augmented-wave + core cor, Zval = 16.0
     Generated using "atomic" code by A. Dal Corso  v.5.1
     Shape of augmentation charge: PSQ
     Using radial grid of 1233 points,  6 beta functions with: 
                l(1) =   0
                l(2) =   0
                l(3) =   1
                l(4) =   1
                l(5) =   2
                l(6) =   2
     Q(r) pseudized with 0 coefficients 


     atomic species   valence    mass     pseudopotential
        Ru            16.00   101.07000     Ru( 1.00)

     48 Sym. Ops., with inversion, found



   Cartesian axes

     site n.     atom                  positions (alat units)
         1           Ru  tau(   1) = (   0.0000000   0.0000000   0.0000000  )
         2           Ru  tau(   2) = (   0.4250000   0.4250000   0.4250000  )
         3           Ru  tau(   3) = (   0.0000000   0.0000000   0.8500000  )
         4           Ru  tau(   4) = (   0.4250000   0.4250000   1.2750000  )
         5           Ru  tau(   5) = (   0.0000000   0.8500000   0.0000000  )
         6           Ru  tau(   6) = (   0.4250000   1.2750000   0.4250000  )
         7           Ru  tau(   7) = (   0.0000000   0.8500000   0.8500000  )
         8           Ru  tau(   8) = (   0.4250000   1.2750000   1.2750000  )
         9           Ru  tau(   9) = (   0.8500000   0.0000000   0.0000000  )
        10           Ru  tau(  10) = (   1.2750000   0.4250000   0.4250000  )
        11           Ru  tau(  11) = (   0.8500000   0.0000000   0.8500000  )
        12           Ru  tau(  12) = (   1.2750000   0.4250000   1.2750000  )
        13           Ru  tau(  13) = (   0.8500000   0.8500000   0.0000000  )
        14           Ru  tau(  14) = (   1.2750000   1.2750000   0.4250000  )
        15           Ru  tau(  15) = (   0.8500000   0.8500000   0.8500000  )
        16           Ru  tau(  16) = (   1.2750000   1.2750000   1.2750000  )

     number of k points=    35  Marzari-Vanderbilt smearing, width (Ry)=  0.0400
                       cart. coord. in units 2pi/alat
        k(    1) = (   0.0326797   0.0326797   0.0326797), wk =   0.0219479
        k(    2) = (   0.0326797   0.0326797   0.0980392), wk =   0.0658436
        k(    3) = (   0.0326797   0.0326797   0.1633987), wk =   0.0658436
        k(    4) = (   0.0326797   0.0326797   0.2287582), wk =   0.0658436
        k(    5) = (   0.0326797   0.0326797  -0.2941176), wk =   0.0329218
        k(    6) = (   0.0326797   0.0980392   0.0980392), wk =   0.0658436
        k(    7) = (   0.0326797   0.0980392   0.1633987), wk =   0.1316872
        k(    8) = (   0.0326797   0.0980392   0.2287582), wk =   0.1316872
        k(    9) = (   0.0326797   0.0980392  -0.2941176), wk =   0.0658436
        k(   10) = (   0.0326797   0.1633987   0.1633987), wk =   0.0658436
        k(   11) = (   0.0326797   0.1633987   0.2287582), wk =   0.1316872
        k(   12) = (   0.0326797   0.1633987  -0.2941176), wk =   0.0658436
        k(   13) = (   0.0326797   0.2287582   0.2287582), wk =   0.0658436
        k(   14) = (   0.0326797   0.2287582  -0.2941176), wk =   0.0658436
        k(   15) = (   0.0326797  -0.2941176  -0.2941176), wk =   0.0164609
        k(   16) = (   0.0980392   0.0980392   0.0980392), wk =   0.0219479
        k(   17) = (   0.0980392   0.0980392   0.1633987), wk =   0.0658436
        k(   18) = (   0.0980392   0.0980392   0.2287582), wk =   0.0658436
        k(   19) = (   0.0980392   0.0980392  -0.2941176), wk =   0.0329218
        k(   20) = (   0.0980392   0.1633987   0.1633987), wk =   0.0658436
        k(   21) = (   0.0980392   0.1633987   0.2287582), wk =   0.1316872
        k(   22) = (   0.0980392   0.1633987  -0.2941176), wk =   0.0658436
        k(   23) = (   0.0980392   0.2287582   0.2287582), wk =   0.0658436
        k(   24) = (   0.0980392   0.2287582  -0.2941176), wk =   0.0658436
        k(   25) = (   0.0980392  -0.2941176  -0.2941176), wk =   0.0164609
        k(   26) = (   0.1633987   0.1633987   0.1633987), wk =   0.0219479
        k(   27) = (   0.1633987   0.1633987   0.2287582), wk =   0.0658436
        k(   28) = (   0.1633987   0.1633987  -0.2941176), wk =   0.0329218
        k(   29) = (   0.1633987   0.2287582   0.2287582), wk =   0.0658436
        k(   30) = (   0.1633987   0.2287582  -0.2941176), wk =   0.0658436
        k(   31) = (   0.1633987  -0.2941176  -0.2941176), wk =   0.0164609
        k(   32) = (   0.2287582   0.2287582   0.2287582), wk =   0.0219479
        k(   33) = (   0.2287582   0.2287582  -0.2941176), wk =   0.0329218
        k(   34) = (   0.2287582  -0.2941176  -0.2941176), wk =   0.0164609
        k(   35) = (  -0.2941176  -0.2941176  -0.2941176), wk =   0.0027435

     Dense  grid:  1104165 G-vectors     FFT dimensions: ( 135, 135, 135)

     Smooth grid:   593041 G-vectors     FFT dimensions: ( 108, 108, 108)

     Estimated max dynamical RAM per process >     157.46 MB

     Estimated total dynamical RAM >      11.07 GB

     Check: negative core charge=   -0.000001

     Initial potential from superposition of free atoms

     starting charge  255.98980, renormalised to  256.00000
     Starting wfcs are  160 randomized atomic wfcs
     Checking if some PAW data can be deallocated... 

     total cpu time spent up to now is       12.5 secs

     Self-consistent Calculation

     iteration #  1     ecut=    71.00 Ry     beta= 0.10
     Davidson diagonalization with overlap
     ethr =  1.00E-02,  avg # of iterations =  2.0

     total cpu time spent up to now is       35.9 secs

     total energy              =   -6899.24798367 Ry
     estimated scf accuracy    <       8.67826252 Ry

     iteration #  2     ecut=    71.00 Ry     beta= 0.10
     Davidson diagonalization with overlap
     ethr =  3.39E-03,  avg # of iterations =  1.0

     total cpu time spent up to now is       54.1 secs

     total energy              =   -6897.85203548 Ry
     estimated scf accuracy    <       5.77533703 Ry

     iteration #  3     ecut=    71.00 Ry     beta= 0.10
     Davidson diagonalization with overlap
     ethr =  2.26E-03,  avg # of iterations =  1.9

     total cpu time spent up to now is       75.3 secs

     total energy              =   -6898.16835757 Ry
     estimated scf accuracy    <      10.03844423 Ry

     iteration #  4     ecut=    71.00 Ry     beta= 0.10
     Davidson diagonalization with overlap
     ethr =  2.26E-03,  avg # of iterations =  1.0

     total cpu time spent up to now is       94.1 secs

     total energy              =   -6898.35365259 Ry
     estimated scf accuracy    <       0.85291978 Ry

     iteration #  5     ecut=    71.00 Ry     beta= 0.10
     Davidson diagonalization with overlap
     ethr =  3.33E-04,  avg # of iterations =  3.3

     total cpu time spent up to now is      116.9 secs

     total energy              =   -6898.26248358 Ry
     estimated scf accuracy    <       0.22145337 Ry

     iteration #  6     ecut=    71.00 Ry     beta= 0.10
     Davidson diagonalization with overlap
     ethr =  8.65E-05,  avg # of iterations =  3.9

     total cpu time spent up to now is      149.6 secs

     total energy              =   -6898.32891103 Ry
     estimated scf accuracy    <       1.36088852 Ry

     iteration #  7     ecut=    71.00 Ry     beta= 0.10
     Davidson diagonalization with overlap
     ethr =  8.65E-05,  avg # of iterations =  1.9

     total cpu time spent up to now is      170.1 secs

     total energy              =   -6898.33741817 Ry
     estimated scf accuracy    <       0.23189848 Ry

     iteration #  8     ecut=    71.00 Ry     beta= 0.10
     Davidson diagonalization with overlap
     ethr =  8.65E-05,  avg # of iterations =  1.0

     total cpu time spent up to now is      191.2 secs

     total energy              =   -6898.32170141 Ry
     estimated scf accuracy    <       0.14463073 Ry

     iteration #  9     ecut=    71.00 Ry     beta= 0.10
     Davidson diagonalization with overlap
     ethr =  5.65E-05,  avg # of iterations =  1.4

     total cpu time spent up to now is      210.5 secs

     total energy              =   -6898.32584759 Ry
     estimated scf accuracy    <       0.20242769 Ry

     iteration # 10     ecut=    71.00 Ry     beta= 0.10
     Davidson diagonalization with overlap
     ethr =  5.65E-05,  avg # of iterations =  1.0

     total cpu time spent up to now is      230.8 secs

     total energy              =   -6898.32255064 Ry
     estimated scf accuracy    <       0.15064430 Ry

     iteration # 11     ecut=    71.00 Ry     beta= 0.10
     Davidson diagonalization with overlap
     ethr =  5.65E-05,  avg # of iterations =  1.0

     total cpu time spent up to now is      249.4 secs

     total energy              =   -6898.32113168 Ry
     estimated scf accuracy    <       0.05203256 Ry

     iteration # 12     ecut=    71.00 Ry     beta= 0.10
     Davidson diagonalization with overlap
     ethr =  2.03E-05,  avg # of iterations =  2.7

     total cpu time spent up to now is      271.4 secs

     total energy              =   -6898.32190798 Ry
     estimated scf accuracy    <       0.00361798 Ry

     iteration # 13     ecut=    71.00 Ry     beta= 0.10
     Davidson diagonalization with overlap
     ethr =  1.41E-06,  avg # of iterations =  5.5

     total cpu time spent up to now is      302.2 secs

     total energy              =   -6898.32237152 Ry
     estimated scf accuracy    <       0.00915430 Ry

     iteration # 14     ecut=    71.00 Ry     beta= 0.10
     Davidson diagonalization with overlap
     ethr =  1.41E-06,  avg # of iterations =  2.9

     total cpu time spent up to now is      334.7 secs

     total energy              =   -6898.32245584 Ry
     estimated scf accuracy    <       0.00395307 Ry

     iteration # 15     ecut=    71.00 Ry     beta= 0.10
     Davidson diagonalization with overlap
     ethr =  1.41E-06,  avg # of iterations =  1.4

     total cpu time spent up to now is      354.9 secs

     total energy              =   -6898.32246968 Ry
     estimated scf accuracy    <       0.00080716 Ry

     iteration # 16     ecut=    71.00 Ry     beta= 0.10
     Davidson diagonalization with overlap
     ethr =  3.15E-07,  avg # of iterations =  3.8

     total cpu time spent up to now is      381.0 secs

     total energy              =   -6898.32258499 Ry
     estimated scf accuracy    <       0.00008060 Ry

     iteration # 17     ecut=    71.00 Ry     beta= 0.10
     Davidson diagonalization with overlap
     ethr =  3.15E-08,  avg # of iterations =  4.4

     total cpu time spent up to now is      412.2 secs

     total energy              =   -6898.32261208 Ry
     estimated scf accuracy    <       0.00033316 Ry

     iteration # 18     ecut=    71.00 Ry     beta= 0.10
     Davidson diagonalization with overlap
     ethr =  3.15E-08,  avg # of iterations =  3.7

     total cpu time spent up to now is      438.4 secs

     total energy              =   -6898.32263001 Ry
     estimated scf accuracy    <       0.00003800 Ry

     iteration # 19     ecut=    71.00 Ry     beta= 0.10
     Davidson diagonalization with overlap
     ethr =  1.48E-08,  avg # of iterations =  4.1

     total cpu time spent up to now is      465.6 secs

     total energy              =   -6898.32263638 Ry
     estimated scf accuracy    <       0.00000319 Ry

     iteration # 20     ecut=    71.00 Ry     beta= 0.10
     Davidson diagonalization with overlap
     ethr =  1.25E-09,  avg # of iterations =  5.2

     total cpu time spent up to now is      496.0 secs

     total energy              =   -6898.32263702 Ry
     estimated scf accuracy    <       0.00001018 Ry

     iteration # 21     ecut=    71.00 Ry     beta= 0.10
     Davidson diagonalization with overlap
     ethr =  1.25E-09,  avg # of iterations =  2.0

     total cpu time spent up to now is      519.8 secs

     total energy              =   -6898.32263704 Ry
     estimated scf accuracy    <       0.00000242 Ry

     iteration # 22     ecut=    71.00 Ry     beta= 0.10
     Davidson diagonalization with overlap
     ethr =  9.44E-10,  avg # of iterations =  3.9

     total cpu time spent up to now is      542.6 secs

     End of self-consistent calculation

          k = 0.0327 0.0327 0.0327 ( 74070 PWs)   bands (ev):

   -70.2146 -70.2145 -70.2145 -70.2145 -70.2145 -70.2145 -70.2145 -70.2145
   -70.2145 -70.2145 -70.2145 -70.2145 -70.2145 -70.2145 -70.2144 -70.2144
   -40.2698 -40.2698 -40.2698 -40.2698 -40.2698 -40.2698 -40.2694 -40.2694
   -40.2694 -40.2692 -40.2692 -40.2692 -40.2691 -40.2691 -40.2691 -40.2691
   -40.2691 -40.2690 -40.2690 -40.2690 -40.2690 -40.2690 -40.2690 -40.2690
   -40.2690 -40.2690 -40.2690 -40.2689 -40.2689 -40.2689 -40.2689 -40.2689
   -40.2689 -40.2689 -40.2689 -40.2689 -40.2688 -40.2688 -40.2688 -40.2685
   -40.2684 -40.2684 -40.2684 -40.2684 -40.2684 -40.2684 -40.2684 -40.2684
    -0.4633   0.4804   0.4804   0.4804   0.4848   0.4848   0.4848   0.5911
     0.5911   0.6093   0.6093   0.6093   0.6645   0.6645   0.6645   0.6666
     0.6666   0.6666   0.6981   0.6981   0.6981   0.7357   0.7554   0.7554
     0.7843   0.7843   0.7859   0.7859   0.7859   0.7897   0.7898   0.7898
     0.8038   0.8194   0.8194   0.8194   0.8649   0.8649   0.8649   0.8761
     0.8761   0.8761   0.8901   0.8901   0.8901   0.9009   0.9009   0.9009
     0.9550   0.9550   0.9550   0.9848   0.9848   0.9848   0.9879   0.9879
     0.9879   0.9893   0.9893   0.9893   1.0093   1.0093   1.0150   1.0150
     1.0150   1.0200   1.0200   1.0200   1.0231   1.0231   1.0232   1.0232
     1.1246   1.1316   1.1316   1.1637   1.1637   1.1637   1.1669   1.1669
     1.1669   1.2248   1.2248   1.2248   1.4347   1.4347   1.4347   2.3732
     2.3733   2.3733

          k = 0.0327 0.0327 0.0980 ( 74047 PWs)   bands (ev):

   -70.2146 -70.2145 -70.2145 -70.2145 -70.2145 -70.2145 -70.2145 -70.2145
   -70.2145 -70.2145 -70.2145 -70.2145 -70.2145 -70.2145 -70.2144 -70.2144
   -40.2698 -40.2698 -40.2698 -40.2697 -40.2697 -40.2697 -40.2695 -40.2694
   -40.2694 -40.2693 -40.2693 -40.2692 -40.2692 -40.2692 -40.2691 -40.2691
   -40.2691 -40.2691 -40.2691 -40.2691 -40.2690 -40.2690 -40.2690 -40.2690
   -40.2690 -40.2689 -40.2689 -40.2689 -40.2689 -40.2689 -40.2689 -40.2689
   -40.2689 -40.2689 -40.2689 -40.2688 -40.2688 -40.2688 -40.2687 -40.2685
   -40.2684 -40.2684 -40.2684 -40.2684 -40.2684 -40.2684 -40.2684 -40.2684
    -0.4268   0.4500   0.4840   0.4840   0.4969   0.4974   0.4974   0.5008
     0.5978   0.6008   0.6025   0.6025   0.6657   0.6678   0.6702   0.6702
     0.6764   0.6764   0.6850   0.6850   0.7105   0.7268   0.7279   0.7484
     0.7504   0.7695   0.7828   0.7857   0.7869   0.7869   0.7979   0.8127
     0.8127   0.8311   0.8329   0.8359   0.8398   0.8398   0.8415   0.8620
     0.8620   0.8718   0.9022   0.9022   0.9157   0.9157   0.9186   0.9254
     0.9318   0.9813   0.9813   0.9847   0.9847   0.9855   0.9855   0.9903
     0.9915   1.0011   1.0011   1.0035   1.0115   1.0131   1.0131   1.0143
     1.0148   1.0151   1.0151   1.0202   1.0215   1.0216   1.0229   1.0231
     1.1096   1.1130   1.1207   1.1305   1.1405   1.1450   1.1534   1.1534
     1.1629   1.1629   1.2491   1.2491   1.4725   1.4725   1.7286   2.1311
     2.1311   2.3926

          k = 0.0327 0.0327 0.1634 ( 74076 PWs)   bands (ev):

   -70.2146 -70.2145 -70.2145 -70.2145 -70.2145 -70.2145 -70.2145 -70.2145
   -70.2145 -70.2145 -70.2145 -70.2145 -70.2145 -70.2145 -70.2144 -70.2144
   -40.2697 -40.2697 -40.2697 -40.2697 -40.2697 -40.2697 -40.2695 -40.2694
   -40.2694 -40.2694 -40.2694 -40.2694 -40.2694 -40.2693 -40.2692 -40.2692
   -40.2692 -40.2691 -40.2691 -40.2690 -40.2690 -40.2690 -40.2690 -40.2690
   -40.2690 -40.2689 -40.2689 -40.2689 -40.2689 -40.2689 -40.2688 -40.2688
   -40.2688 -40.2688 -40.2688 -40.2687 -40.2687 -40.2687 -40.2687 -40.2686
   -40.2685 -40.2685 -40.2685 -40.2685 -40.2685 -40.2685 -40.2685 -40.2684
    -0.3543   0.2556   0.4953   0.4953   0.5179   0.5179   0.5282   0.5309
     0.5861   0.5861   0.6109   0.6192   0.6551   0.6551   0.6682   0.6707
     0.6833   0.6833   0.6863   0.6935   0.6935   0.7067   0.7158   0.7168
     0.7219   0.7388   0.7840   0.7887   0.7943   0.7943   0.8002   0.8002
     0.8102   0.8217   0.8243   0.8304   0.8304   0.8371   0.8371   0.8776
     0.8789   0.8969   0.8980   0.9342   0.9342   0.9357   0.9357   0.9514
     0.9616   0.9616   0.9662   0.9725   0.9725   0.9874   0.9874   0.9919
     0.9948   0.9957   1.0047   1.0047   1.0140   1.0158   1.0182   1.0183
     1.0199   1.0199   1.0205   1.0226   1.0232   1.0424   1.0473   1.0473
     1.0647   1.0867   1.0989   1.1002   1.1059   1.1228   1.1365   1.1365
     1.1517   1.1517   1.3022   1.3022   1.5472   1.5472   1.8934   1.8935
     2.0755   2.1852

          k = 0.0327 0.0327 0.2288 ( 74088 PWs)   bands (ev):

   -70.2146 -70.2145 -70.2145 -70.2145 -70.2145 -70.2145 -70.2145 -70.2145
   -70.2145 -70.2145 -70.2145 -70.2145 -70.2145 -70.2145 -70.2145 -70.2144
   -40.2697 -40.2697 -40.2696 -40.2696 -40.2696 -40.2696 -40.2695 -40.2695
   -40.2695 -40.2695 -40.2695 -40.2694 -40.2694 -40.2694 -40.2694 -40.2694
   -40.2693 -40.2692 -40.2691 -40.2690 -40.2690 -40.2690 -40.2690 -40.2690
   -40.2690 -40.2690 -40.2689 -40.2689 -40.2689 -40.2689 -40.2687 -40.2687
   -40.2687 -40.2687 -40.2687 -40.2686 -40.2686 -40.2686 -40.2686 -40.2686
   -40.2685 -40.2685 -40.2685 -40.2685 -40.2685 -40.2685 -40.2685 -40.2685
    -0.2467   0.0641   0.5134   0.5134   0.5457   0.5457   0.5623   0.5623
     0.5711   0.5717   0.6174   0.6174   0.6301   0.6442   0.6576   0.6718
     0.6728   0.6763   0.6834   0.6911   0.7007   0.7034   0.7034   0.7071
     0.7174   0.7174   0.7609   0.7609   0.7803   0.7803   0.7880   0.7936
     0.8063   0.8112   0.8265   0.8470   0.8470   0.8684   0.8684   0.8704
     0.9270   0.9273   0.9273   0.9305   0.9314   0.9457   0.9457   0.9530
     0.9530   0.9608   0.9608   0.9750   0.9775   0.9775   0.9870   0.9935
     0.9935   1.0007   1.0013   1.0025   1.0098   1.0134   1.0134   1.0210
     1.0220   1.0221   1.0241   1.0427   1.0458   1.0540   1.0540   1.0571
     1.0588   1.0682   1.0719   1.0803   1.0803   1.1092   1.1136   1.1136
     1.1337   1.1337   1.3903   1.3903   1.6576   1.6576   1.6864   1.6864
     1.9802   1.9802

          k = 0.0327 0.0327-0.2941 ( 74118 PWs)   bands (ev):

   -70.2145 -70.2145 -70.2145 -70.2145 -70.2145 -70.2145 -70.2145 -70.2145
   -70.2145 -70.2145 -70.2145 -70.2145 -70.2145 -70.2145 -70.2145 -70.2144
   -40.2696 -40.2696 -40.2696 -40.2696 -40.2695 -40.2695 -40.2695 -40.2695
   -40.2695 -40.2695 -40.2695 -40.2695 -40.2695 -40.2695 -40.2693 -40.2693
   -40.2693 -40.2693 -40.2690 -40.2690 -40.2690 -40.2690 -40.2690 -40.2690
   -40.2690 -40.2690 -40.2689 -40.2689 -40.2689 -40.2689 -40.2687 -40.2687
   -40.2686 -40.2686 -40.2686 -40.2686 -40.2686 -40.2686 -40.2686 -40.2686
   -40.2686 -40.2686 -40.2686 -40.2686 -40.2686 -40.2686 -40.2685 -40.2685
    -0.1060  -0.1060   0.5366   0.5366   0.5366   0.5366   0.5796   0.5796
     0.5796   0.5796   0.6171   0.6171   0.6209   0.6209   0.6545   0.6545
     0.6728   0.6728   0.6801   0.6801   0.6869   0.6869   0.7297   0.7297
     0.7297   0.7297   0.7471   0.7471   0.7471   0.7471   0.7953   0.7953
     0.8009   0.8009   0.8467   0.8467   0.8867   0.8867   0.8867   0.8868
     0.9084   0.9084   0.9084   0.9084   0.9531   0.9531   0.9666   0.9666
     0.9666   0.9666   0.9800   0.9800   0.9800   0.9800   0.9830   0.9830
     0.9878   0.9878   1.0072   1.0072   1.0075   1.0075   1.0215   1.0216
     1.0231   1.0231   1.0291   1.0291   1.0304   1.0304   1.0385   1.0385
     1.0857   1.0857   1.0857   1.0857   1.0907   1.0907   1.1096   1.1096
     1.1096   1.1096   1.5179   1.5179   1.5179   1.5179   1.8025   1.8025
     1.8025   1.8025

          k = 0.0327 0.0980 0.0980 ( 74038 PWs)   bands (ev):

   -70.2146 -70.2145 -70.2145 -70.2145 -70.2145 -70.2145 -70.2145 -70.2145
   -70.2145 -70.2145 -70.2145 -70.2145 -70.2145 -70.2145 -70.2144 -70.2144
   -40.2698 -40.2697 -40.2697 -40.2697 -40.2697 -40.2697 -40.2694 -40.2694
   -40.2694 -40.2693 -40.2693 -40.2693 -40.2693 -40.2693 -40.2692 -40.2691
   -40.2691 -40.2691 -40.2690 -40.2690 -40.2690 -40.2690 -40.2690 -40.2690
   -40.2690 -40.2690 -40.2690 -40.2690 -40.2689 -40.2689 -40.2689 -40.2689
   -40.2688 -40.2688 -40.2688 -40.2688 -40.2687 -40.2687 -40.2687 -40.2685
   -40.2685 -40.2685 -40.2685 -40.2685 -40.2684 -40.2684 -40.2684 -40.2684
    -0.3906   0.4590   0.4590   0.4770   0.5006   0.5006   0.5124   0.5124
     0.5175   0.6000   0.6055   0.6092   0.6713   0.6713   0.6716   0.6776
     0.6777   0.6781   0.6872   0.6901   0.7106   0.7163   0.7163   0.7529
     0.7573   0.7573   0.7769   0.7771   0.7839   0.7863   0.7975   0.8111
     0.8113   0.8113   0.8349   0.8349   0.8366   0.8387   0.8480   0.8640
     0.8885   0.8885   0.8972   0.8973   0.9027   0.9167   0.9350   0.9350
     0.9563   0.9563   0.9750   0.9770   0.9841   0.9841   0.9861   0.9880
     0.9880   1.0001   1.0001   1.0022   1.0048   1.0098   1.0148   1.0148
     1.0191   1.0204   1.0208   1.0223   1.0231   1.0275   1.0411   1.0411
     1.0885   1.1123   1.1210   1.1210   1.1293   1.1293   1.1338   1.1372
     1.1423   1.1423   1.1651   1.2792   1.5119   1.7710   1.7710   1.8630
     2.1612   2.1612

          k = 0.0327 0.0980 0.1634 ( 74072 PWs)   bands (ev):

   -70.2146 -70.2145 -70.2145 -70.2145 -70.2145 -70.2145 -70.2145 -70.2145
   -70.2145 -70.2145 -70.2145 -70.2145 -70.2145 -70.2145 -70.2144 -70.2144
   -40.2698 -40.2697 -40.2697 -40.2697 -40.2696 -40.2696 -40.2695 -40.2695
   -40.2694 -40.2694 -40.2694 -40.2694 -40.2694 -40.2694 -40.2693 -40.2692
   -40.2691 -40.2691 -40.2691 -40.2691 -40.2690 -40.2690 -40.2690 -40.2690
   -40.2690 -40.2689 -40.2689 -40.2689 -40.2689 -40.2689 -40.2689 -40.2688
   -40.2688 -40.2687 -40.2687 -40.2687 -40.2687 -40.2686 -40.2686 -40.2686
   -40.2685 -40.2685 -40.2685 -40.2685 -40.2685 -40.2685 -40.2685 -40.2684
    -0.3188   0.2771   0.4709   0.4754   0.5114   0.5315   0.5318   0.5403
     0.5442   0.5899   0.6184   0.6273   0.6558   0.6653   0.6740   0.6805
     0.6811   0.6844   0.6877   0.6883   0.6946   0.7102   0.7110   0.7323
     0.7375   0.7644   0.7730   0.7772   0.7781   0.7807   0.7842   0.7892
     0.7957   0.8269   0.8283   0.8458   0.8497   0.8510   0.8517   0.8668
     0.8707   0.9116   0.9191   0.9266   0.9274   0.9299   0.9336   0.9399
     0.9437   0.9626   0.9632   0.9680   0.9748   0.9795   0.9873   0.9886
     0.9924   0.9927   0.9930   0.9976   1.0030   1.0128   1.0133   1.0148
     1.0171   1.0176   1.0223   1.0242   1.0274   1.0485   1.0603   1.0647
     1.0674   1.0734   1.0876   1.0919   1.1066   1.1124   1.1149   1.1322
     1.1325   1.1422   1.1601   1.3405   1.5881   1.6235   1.8528   1.9309
     2.1171   2.2146

          k = 0.0327 0.0980 0.2288 ( 74108 PWs)   bands (ev):

   -70.2146 -70.2145 -70.2145 -70.2145 -70.2145 -70.2145 -70.2145 -70.2145
   -70.2145 -70.2145 -70.2145 -70.2145 -70.2145 -70.2145 -70.2145 -70.2144
   -40.2697 -40.2697 -40.2696 -40.2696 -40.2696 -40.2695 -40.2695 -40.2695
   -40.2695 -40.2695 -40.2695 -40.2695 -40.2694 -40.2694 -40.2693 -40.2693
   -40.2692 -40.2692 -40.2691 -40.2691 -40.2690 -40.2690 -40.2690 -40.2690
   -40.2690 -40.2690 -40.2689 -40.2689 -40.2689 -40.2688 -40.2688 -40.2688
   -40.2687 -40.2687 -40.2687 -40.2687 -40.2686 -40.2686 -40.2686 -40.2686
   -40.2686 -40.2685 -40.2685 -40.2685 -40.2685 -40.2685 -40.2685 -40.2685
    -0.2124   0.0926   0.4772   0.4784   0.5282   0.5574   0.5714   0.5738
     0.5763   0.5767   0.6230   0.6366   0.6423   0.6519   0.6523   0.6603
     0.6793   0.6854   0.6891   0.6964   0.7045   0.7087   0.7094   0.7177
     0.7327   0.7382   0.7464   0.7590   0.7690   0.7725   0.7835   0.7942
     0.8004   0.8134   0.8276   0.8489   0.8582   0.8690   0.8849   0.8989
     0.9041   0.9123   0.9159   0.9285   0.9350   0.9460   0.9465   0.9522
     0.9535   0.9538   0.9604   0.9607   0.9621   0.9777   0.9780   0.9850
     0.9905   0.9958   0.9972   0.9984   1.0047   1.0057   1.0120   1.0122
     1.0190   1.0229   1.0267   1.0269   1.0278   1.0404   1.0428   1.0485
     1.0636   1.0665   1.0721   1.0876   1.0907   1.0918   1.1035   1.1165
     1.1240   1.1479   1.1895   1.4263   1.4345   1.6984   1.7291   1.9698
     2.0150   2.2898

          k = 0.0327 0.0980-0.2941 ( 74086 PWs)   bands (ev):

   -70.2145 -70.2145 -70.2145 -70.2145 -70.2145 -70.2145 -70.2145 -70.2145
   -70.2145 -70.2145 -70.2145 -70.2145 -70.2145 -70.2145 -70.2145 -70.2144
   -40.2696 -40.2696 -40.2696 -40.2696 -40.2696 -40.2696 -40.2695 -40.2695
   -40.2695 -40.2695 -40.2695 -40.2695 -40.2694 -40.2694 -40.2693 -40.2693
   -40.2693 -40.2693 -40.2690 -40.2690 -40.2690 -40.2690 -40.2690 -40.2690
   -40.2690 -40.2690 -40.2689 -40.2689 -40.2688 -40.2688 -40.2687 -40.2687
   -40.2687 -40.2687 -40.2686 -40.2686 -40.2686 -40.2686 -40.2686 -40.2686
   -40.2686 -40.2686 -40.2685 -40.2685 -40.2685 -40.2685 -40.2685 -40.2685
    -0.0738  -0.0738   0.4796   0.4796   0.5493   0.5493   0.5887   0.5887
     0.6128   0.6128   0.6134   0.6134   0.6201   0.6201   0.6593   0.6593
     0.6809   0.6809   0.6895   0.6895   0.7053   0.7053   0.7186   0.7187
     0.7302   0.7302   0.7445   0.7445   0.7703   0.7703   0.7758   0.7759
     0.8021   0.8021   0.8621   0.8621   0.8725   0.8725   0.8899   0.8899
     0.9078   0.9078   0.9272   0.9272   0.9529   0.9529   0.9579   0.9579
     0.9589   0.9589   0.9639   0.9639   0.9669   0.9669   0.9751   0.9751
     0.9880   0.9880   0.9906   0.9906   1.0053   1.0053   1.0059   1.0059
     1.0255   1.0255   1.0276   1.0276   1.0306   1.0306   1.0387   1.0387
     1.0577   1.0577   1.0699   1.0699   1.0956   1.0956   1.1099   1.1099
     1.1287   1.1287   1.2806   1.2806   1.5634   1.5634   1.8413   1.8413
     2.1176   2.1176

          k = 0.0327 0.1634 0.1634 ( 74091 PWs)   bands (ev):

   -70.2145 -70.2145 -70.2145 -70.2145 -70.2145 -70.2145 -70.2145 -70.2145
   -70.2145 -70.2145 -70.2145 -70.2145 -70.2145 -70.2145 -70.2145 -70.2144
   -40.2698 -40.2697 -40.2697 -40.2696 -40.2696 -40.2695 -40.2695 -40.2695
   -40.2695 -40.2695 -40.2694 -40.2694 -40.2694 -40.2694 -40.2693 -40.2692
   -40.2692 -40.2691 -40.2690 -40.2690 -40.2690 -40.2690 -40.2690 -40.2690
   -40.2690 -40.2690 -40.2690 -40.2689 -40.2689 -40.2689 -40.2688 -40.2687
   -40.2687 -40.2687 -40.2687 -40.2687 -40.2687 -40.2686 -40.2686 -40.2686
   -40.2685 -40.2685 -40.2685 -40.2685 -40.2685 -40.2685 -40.2684 -40.2684
    -0.2484   0.3152   0.3152   0.4558   0.5410   0.5410   0.5559   0.5559
     0.5741   0.5909   0.6305   0.6449   0.6477   0.6479   0.6670   0.6849
     0.6877   0.6877   0.6938   0.6938   0.6986   0.6986   0.7351   0.7496
     0.7567   0.7567   0.7631   0.7653   0.7653   0.7669   0.7747   0.7762
     0.7924   0.8435   0.8435   0.8467   0.8509   0.8586   0.8627   0.8702
     0.8799   0.8799   0.9128   0.9329   0.9329   0.9331   0.9403   0.9544
     0.9544   0.9551   0.9626   0.9626   0.9646   0.9646   0.9771   0.9771
     0.9808   0.9886   0.9886   0.9912   0.9986   0.9986   1.0106   1.0138
     1.0148   1.0175   1.0230   1.0262   1.0270   1.0357   1.0532   1.0658
     1.0658   1.0712   1.0751   1.0751   1.0870   1.0965   1.0965   1.1006
     1.1006   1.1379   1.1614   1.3920   1.4120   1.6654   1.9990   1.9990
     2.1967   2.1967

          k = 0.0327 0.1634 0.2288 ( 74106 PWs)   bands (ev):

   -70.2146 -70.2145 -70.2145 -70.2145 -70.2145 -70.2145 -70.2145 -70.2145
   -70.2145 -70.2145 -70.2145 -70.2145 -70.2145 -70.2145 -70.2145 -70.2144
   -40.2697 -40.2696 -40.2696 -40.2696 -40.2696 -40.2696 -40.2696 -40.2695
   -40.2695 -40.2695 -40.2695 -40.2694 -40.2694 -40.2694 -40.2693 -40.2692
   -40.2692 -40.2691 -40.2691 -40.2691 -40.2691 -40.2690 -40.2690 -40.2690
   -40.2690 -40.2690 -40.2689 -40.2689 -40.2689 -40.2689 -40.2688 -40.2688
   -40.2687 -40.2687 -40.2687 -40.2686 -40.2686 -40.2686 -40.2686 -40.2686
   -40.2686 -40.2685 -40.2685 -40.2685 -40.2685 -40.2685 -40.2685 -40.2684
    -0.1448   0.1466   0.3603   0.4326   0.5545   0.5769   0.5789   0.5837
     0.5850   0.6065   0.6276   0.6311   0.6451   0.6461   0.6694   0.6703
     0.6821   0.6954   0.6963   0.7085   0.7089   0.7211   0.7297   0.7350
     0.7375   0.7567   0.7568   0.7575   0.7601   0.7615   0.7650   0.7899
     0.7987   0.8252   0.8406   0.8616   0.8651   0.8738   0.8764   0.8829
     0.8860   0.8940   0.9139   0.9264   0.9337   0.9418   0.9477   0.9480
     0.9484   0.9516   0.9520   0.9552   0.9569   0.9644   0.9715   0.9798
     0.9806   0.9813   0.9862   0.9899   0.9938   0.9963   1.0010   1.0084
     1.0092   1.0107   1.0143   1.0249   1.0314   1.0361   1.0430   1.0436
     1.0437   1.0544   1.0626   1.0630   1.0672   1.0737   1.0895   1.1155
     1.1223   1.1369   1.1554   1.2141   1.5129   1.7747   1.8056   2.0798
     2.0898   2.3083

          k = 0.0327 0.1634-0.2941 ( 74094 PWs)   bands (ev):

   -70.2145 -70.2145 -70.2145 -70.2145 -70.2145 -70.2145 -70.2145 -70.2145
   -70.2145 -70.2145 -70.2145 -70.2145 -70.2145 -70.2145 -70.2145 -70.2144
   -40.2697 -40.2697 -40.2696 -40.2696 -40.2696 -40.2696 -40.2695 -40.2695
   -40.2695 -40.2695 -40.2695 -40.2695 -40.2693 -40.2693 -40.2693 -40.2693
   -40.2692 -40.2692 -40.2691 -40.2691 -40.2691 -40.2691 -40.2690 -40.2690
   -40.2690 -40.2690 -40.2689 -40.2689 -40.2688 -40.2688 -40.2688 -40.2688
   -40.2688 -40.2688 -40.2686 -40.2686 -40.2686 -40.2686 -40.2686 -40.2686
   -40.2686 -40.2686 -40.2685 -40.2685 -40.2685 -40.2685 -40.2685 -40.2684
    -0.0110  -0.0110   0.4013   0.4013   0.5700   0.5700   0.6019   0.6019
     0.6113   0.6113   0.6162   0.6162   0.6392   0.6392   0.6642   0.6642
     0.6999   0.6999   0.7113   0.7113   0.7141   0.7141   0.7294   0.7294
     0.7343   0.7343   0.7448   0.7448   0.7547   0.7547   0.7985   0.7985
     0.8093   0.8093   0.8335   0.8335   0.8901   0.8901   0.8985   0.8985
     0.9042   0.9043   0.9267   0.9267   0.9270   0.9270   0.9387   0.9387
     0.9454   0.9454   0.9514   0.9514   0.9658   0.9658   0.9696   0.9696
     0.9709   0.9709   0.9841   0.9841   1.0016   1.0016   1.0017   1.0017
     1.0111   1.0111   1.0225   1.0225   1.0286   1.0286   1.0297   1.0297
     1.0434   1.0434   1.0525   1.0525   1.0757   1.0757   1.1102   1.1102
     1.1292   1.1293   1.1422   1.1423   1.6435   1.6435   1.9135   1.9135
     2.1976   2.1977

          k = 0.0327 0.2288 0.2288 ( 74085 PWs)   bands (ev):

   -70.2145 -70.2145 -70.2145 -70.2145 -70.2145 -70.2145 -70.2145 -70.2145
   -70.2145 -70.2145 -70.2145 -70.2145 -70.2145 -70.2145 -70.2145 -70.2144
   -40.2697 -40.2696 -40.2696 -40.2696 -40.2696 -40.2696 -40.2695 -40.2695
   -40.2695 -40.2695 -40.2695 -40.2694 -40.2693 -40.2693 -40.2692 -40.2692
   -40.2692 -40.2691 -40.2691 -40.2691 -40.2690 -40.2690 -40.2690 -40.2690
   -40.2690 -40.2690 -40.2690 -40.2690 -40.2689 -40.2689 -40.2688 -40.2688
   -40.2687 -40.2687 -40.2687 -40.2686 -40.2686 -40.2686 -40.2686 -40.2686
   -40.2686 -40.2685 -40.2685 -40.2685 -40.2685 -40.2684 -40.2684 -40.2684
    -0.0463   0.2195   0.2195   0.3738   0.5852   0.5852   0.5910   0.5974
     0.5974   0.6223   0.6235   0.6302   0.6338   0.6567   0.6726   0.6726
     0.6969   0.7030   0.7189   0.7189   0.7323   0.7323   0.7344   0.7344
     0.7445   0.7482   0.7604   0.7608   0.7608   0.7608   0.7658   0.7971
     0.8083   0.8372   0.8544   0.8544   0.8561   0.8676   0.8717   0.8730
     0.8730   0.8835   0.9064   0.9151   0.9151   0.9198   0.9198   0.9439
     0.9502   0.9612   0.9616   0.9616   0.9623   0.9623   0.9649   0.9720
     0.9720   0.9723   0.9813   0.9868   0.9868   0.9875   0.9875   1.0008
     1.0022   1.0036   1.0119   1.0156   1.0158   1.0277   1.0304   1.0304
     1.0361   1.0415   1.0426   1.0426   1.0579   1.0634   1.0634   1.0746
     1.1357   1.1357   1.1435   1.1561   1.6184   1.8808   1.9067   1.9067
     2.1667   2.1686

          k = 0.0327 0.2288-0.2941 ( 74102 PWs)   bands (ev):

   -70.2145 -70.2145 -70.2145 -70.2145 -70.2145 -70.2145 -70.2145 -70.2145
   -70.2145 -70.2145 -70.2145 -70.2145 -70.2145 -70.2145 -70.2145 -70.2144
   -40.2697 -40.2697 -40.2696 -40.2696 -40.2696 -40.2696 -40.2695 -40.2695
   -40.2695 -40.2695 -40.2695 -40.2695 -40.2693 -40.2693 -40.2692 -40.2692
   -40.2691 -40.2691 -40.2691 -40.2691 -40.2691 -40.2691 -40.2691 -40.2690
   -40.2690 -40.2690 -40.2690 -40.2690 -40.2689 -40.2689 -40.2688 -40.2688
   -40.2687 -40.2687 -40.2686 -40.2686 -40.2686 -40.2686 -40.2686 -40.2686
   -40.2686 -40.2686 -40.2685 -40.2685 -40.2685 -40.2684 -40.2684 -40.2684
     0.0783   0.0783   0.2999   0.2999   0.5904   0.5904   0.6115   0.6115
     0.6115   0.6115   0.6125   0.6125   0.6564   0.6564   0.6667   0.6667
     0.7159   0.7159   0.7284   0.7284   0.7367   0.7367   0.7369   0.7369
     0.7446   0.7446   0.7517   0.7517   0.7526   0.7526   0.7979   0.7979
     0.8262   0.8262   0.8336   0.8336   0.8779   0.8779   0.8831   0.8831
     0.8883   0.8883   0.8959   0.8959   0.9104   0.9104   0.9112   0.9112
     0.9382   0.9382   0.9491   0.9491   0.9737   0.9737   0.9745   0.9745
     0.9751   0.9751   0.9769   0.9769   0.9870   0.9870   0.9944   0.9944
     0.9955   0.9955   1.0082   1.0082   1.0165   1.0165   1.0272   1.0272
     1.0326   1.0326   1.0415   1.0415   1.0455   1.0456   1.0590   1.0590
     1.1430   1.1430   1.1495   1.1495   1.7494   1.7494   2.0131   2.0131
     2.0279   2.0279

          k = 0.0327-0.2941-0.2941 ( 74080 PWs)   bands (ev):

   -70.2145 -70.2145 -70.2145 -70.2145 -70.2145 -70.2145 -70.2145 -70.2145
   -70.2145 -70.2145 -70.2145 -70.2145 -70.2145 -70.2145 -70.2145 -70.2144
   -40.2697 -40.2697 -40.2696 -40.2696 -40.2695 -40.2695 -40.2695 -40.2695
   -40.2695 -40.2695 -40.2695 -40.2695 -40.2692 -40.2692 -40.2692 -40.2692
   -40.2691 -40.2691 -40.2691 -40.2691 -40.2690 -40.2690 -40.2690 -40.2690
   -40.2690 -40.2690 -40.2690 -40.2690 -40.2690 -40.2690 -40.2689 -40.2689
   -40.2687 -40.2687 -40.2687 -40.2686 -40.2686 -40.2686 -40.2686 -40.2686
   -40.2685 -40.2685 -40.2685 -40.2685 -40.2684 -40.2684 -40.2684 -40.2684
     0.1865   0.1865   0.1865   0.1865   0.6041   0.6041   0.6041   0.6041
     0.6140   0.6140   0.6140   0.6140   0.6649   0.6649   0.6650   0.6650
     0.7237   0.7237   0.7237   0.7237   0.7513   0.7513   0.7513   0.7513
     0.7605   0.7605   0.7605   0.7605   0.7626   0.7626   0.7626   0.7626
     0.8593   0.8593   0.8593   0.8593   0.8673   0.8673   0.8673   0.8673
     0.8704   0.8704   0.8704   0.8704   0.8795   0.8795   0.8795   0.8795
     0.9643   0.9643   0.9643   0.9643   0.9737   0.9737   0.9737   0.9737
     0.9773   0.9773   0.9773   0.9773   0.9846   0.9846   0.9846   0.9846
     0.9868   0.9868   0.9868   0.9868   1.0136   1.0136   1.0136   1.0136
     1.0358   1.0358   1.0358   1.0358   1.0494   1.0494   1.0494   1.0494
     1.1498   1.1498   1.1498   1.1498   1.8777   1.8777   1.8777   1.8777
     2.1355   2.1355

          k = 0.0980 0.0980 0.0980 ( 74109 PWs)   bands (ev):

   -70.2146 -70.2145 -70.2145 -70.2145 -70.2145 -70.2145 -70.2145 -70.2145
   -70.2145 -70.2145 -70.2145 -70.2145 -70.2145 -70.2145 -70.2144 -70.2144
   -40.2698 -40.2697 -40.2697 -40.2697 -40.2697 -40.2697 -40.2694 -40.2694
   -40.2694 -40.2694 -40.2694 -40.2694 -40.2694 -40.2693 -40.2693 -40.2691
   -40.2691 -40.2691 -40.2691 -40.2691 -40.2691 -40.2690 -40.2690 -40.2690
   -40.2689 -40.2689 -40.2689 -40.2689 -40.2689 -40.2689 -40.2689 -40.2689
   -40.2688 -40.2688 -40.2688 -40.2688 -40.2687 -40.2687 -40.2686 -40.2686
   -40.2685 -40.2685 -40.2685 -40.2685 -40.2685 -40.2684 -40.2684 -40.2684
    -0.3547   0.4695   0.4695   0.4695   0.4948   0.4948   0.4948   0.5308
     0.5308   0.5308   0.6153   0.6153   0.6660   0.6725   0.6725   0.6725
     0.6913   0.6913   0.6913   0.7169   0.7169   0.7169   0.7279   0.7279
     0.7500   0.7500   0.7500   0.7779   0.7779   0.8054   0.8054   0.8054
     0.8206   0.8206   0.8227   0.8227   0.8227   0.8263   0.8352   0.8742
     0.8742   0.8742   0.9048   0.9048   0.9049   0.9416   0.9416   0.9416
     0.9753   0.9753   0.9753   0.9788   0.9788   0.9788   0.9838   0.9838
     0.9838   0.9884   0.9884   0.9884   1.0047   1.0047   1.0192   1.0192
     1.0192   1.0202   1.0202   1.0221   1.0221   1.0520   1.0520   1.0520
     1.0628   1.1084   1.1085   1.1085   1.1230   1.1230   1.1353   1.1353
     1.1353   1.1470   1.1470   1.1470   1.8127   1.8127   1.8127   1.9019
     1.9019   1.9019

          k = 0.0980 0.0980 0.1634 ( 74108 PWs)   bands (ev):

   -70.2146 -70.2145 -70.2145 -70.2145 -70.2145 -70.2145 -70.2145 -70.2145
   -70.2145 -70.2145 -70.2145 -70.2145 -70.2145 -70.2145 -70.2145 -70.2144
   -40.2697 -40.2697 -40.2697 -40.2696 -40.2696 -40.2696 -40.2695 -40.2695
   -40.2695 -40.2695 -40.2695 -40.2694 -40.2694 -40.2694 -40.2692 -40.2692
   -40.2692 -40.2692 -40.2691 -40.2691 -40.2690 -40.2690 -40.2690 -40.2690
   -40.2690 -40.2689 -40.2689 -40.2689 -40.2689 -40.2688 -40.2688 -40.2688
   -40.2688 -40.2688 -40.2687 -40.2687 -40.2686 -40.2686 -40.2686 -40.2686
   -40.2685 -40.2685 -40.2685 -40.2685 -40.2685 -40.2684 -40.2684 -40.2684
    -0.2835   0.2990   0.4842   0.4842   0.4940   0.4940   0.5285   0.5547
     0.5556   0.5556   0.6273   0.6338   0.6479   0.6746   0.6813   0.6813
     0.6941   0.6941   0.6952   0.7087   0.7113   0.7113   0.7182   0.7209
     0.7254   0.7619   0.7620   0.7713   0.7793   0.7793   0.7800   0.7924
     0.7981   0.8022   0.8332   0.8332   0.8467   0.8498   0.8544   0.8544
     0.8615   0.8913   0.9206   0.9263   0.9263   0.9427   0.9427   0.9478
     0.9478   0.9585   0.9708   0.9721   0.9721   0.9727   0.9818   0.9818
     0.9857   0.9927   0.9948   1.0095   1.0110   1.0110   1.0133   1.0133
     1.0166   1.0186   1.0194   1.0202   1.0253   1.0303   1.0598   1.0670
     1.0716   1.0716   1.0758   1.0824   1.0824   1.1025   1.1156   1.1267
     1.1438   1.1438   1.1706   1.1706   1.6705   1.6705   1.8928   1.8928
     1.9717   2.1570

          k = 0.0980 0.0980 0.2288 ( 74104 PWs)   bands (ev):

   -70.2146 -70.2145 -70.2145 -70.2145 -70.2145 -70.2145 -70.2145 -70.2145
   -70.2145 -70.2145 -70.2145 -70.2145 -70.2145 -70.2145 -70.2145 -70.2144
   -40.2697 -40.2697 -40.2696 -40.2696 -40.2695 -40.2695 -40.2695 -40.2695
   -40.2695 -40.2695 -40.2695 -40.2695 -40.2694 -40.2693 -40.2693 -40.2693
   -40.2693 -40.2692 -40.2691 -40.2691 -40.2691 -40.2691 -40.2690 -40.2690
   -40.2689 -40.2689 -40.2689 -40.2688 -40.2688 -40.2688 -40.2688 -40.2687
   -40.2687 -40.2687 -40.2687 -40.2687 -40.2686 -40.2686 -40.2686 -40.2686
   -40.2685 -40.2685 -40.2685 -40.2685 -40.2685 -40.2685 -40.2685 -40.2685
    -0.1783   0.1211   0.4946   0.4946   0.4960   0.4960   0.5746   0.5837
     0.5862   0.5862   0.6307   0.6447   0.6586   0.6586   0.6587   0.6784
     0.6791   0.6926   0.6946   0.6973   0.6973   0.7056   0.7115   0.7360
     0.7360   0.7480   0.7480   0.7581   0.7689   0.7749   0.7749   0.7810
     0.7834   0.7952   0.8450   0.8450   0.8692   0.8692   0.8708   0.8897
     0.9029   0.9047   0.9047   0.9201   0.9282   0.9415   0.9517   0.9517
     0.9533   0.9533   0.9602   0.9603   0.9603   0.9655   0.9655   0.9804
     0.9937   0.9946   0.9963   0.9976   0.9976   1.0042   1.0069   1.0115
     1.0124   1.0161   1.0197   1.0201   1.0295   1.0295   1.0329   1.0388
     1.0586   1.0586   1.0746   1.0794   1.0946   1.0946   1.0965   1.1230
     1.1331   1.1331   1.2352   1.2352   1.4802   1.4802   2.0070   2.0070
     2.0635   2.2928

          k = 0.0980 0.0980-0.2941 ( 74100 PWs)   bands (ev):

   -70.2145 -70.2145 -70.2145 -70.2145 -70.2145 -70.2145 -70.2145 -70.2145
   -70.2145 -70.2145 -70.2145 -70.2145 -70.2145 -70.2145 -70.2145 -70.2144
   -40.2696 -40.2696 -40.2696 -40.2696 -40.2696 -40.2696 -40.2696 -40.2696
   -40.2695 -40.2695 -40.2694 -40.2694 -40.2694 -40.2694 -40.2694 -40.2694
   -40.2692 -40.2692 -40.2691 -40.2691 -40.2691 -40.2691 -40.2691 -40.2691
   -40.2689 -40.2689 -40.2688 -40.2688 -40.2688 -40.2688 -40.2688 -40.2688
   -40.2687 -40.2687 -40.2686 -40.2686 -40.2686 -40.2686 -40.2686 -40.2686
   -40.2686 -40.2686 -40.2685 -40.2685 -40.2685 -40.2685 -40.2685 -40.2685
    -0.0417  -0.0417   0.4977   0.4977   0.4977   0.4977   0.6102   0.6102
     0.6213   0.6213   0.6213   0.6213   0.6274   0.6274   0.6668   0.6668
     0.6848   0.6848   0.6864   0.6864   0.7199   0.7199   0.7199   0.7199
     0.7267   0.7267   0.7615   0.7615   0.7615   0.7615   0.7716   0.7716
     0.7885   0.7885   0.8672   0.8672   0.8672   0.8672   0.8982   0.8982
     0.9182   0.9182   0.9182   0.9182   0.9381   0.9381   0.9427   0.9427
     0.9558   0.9559   0.9591   0.9591   0.9591   0.9591   0.9623   0.9623
     0.9762   0.9762   0.9762   0.9762   1.0040   1.0040   1.0054   1.0054
     1.0199   1.0199   1.0251   1.0251   1.0418   1.0418   1.0428   1.0428
     1.0428   1.0428   1.0498   1.0498   1.1127   1.1127   1.1161   1.1161
     1.1161   1.1161   1.3360   1.3360   1.3360   1.3360   2.1506   2.1506
     2.1506   2.1506

          k = 0.0980 0.1634 0.1634 ( 74094 PWs)   bands (ev):

   -70.2146 -70.2145 -70.2145 -70.2145 -70.2145 -70.2145 -70.2145 -70.2145
   -70.2145 -70.2145 -70.2145 -70.2145 -70.2145 -70.2145 -70.2145 -70.2144
   -40.2697 -40.2697 -40.2697 -40.2695 -40.2695 -40.2695 -40.2695 -40.2695
   -40.2695 -40.2695 -40.2695 -40.2694 -40.2694 -40.2693 -40.2692 -40.2692
   -40.2692 -40.2692 -40.2691 -40.2691 -40.2691 -40.2691 -40.2691 -40.2691
   -40.2689 -40.2689 -40.2689 -40.2689 -40.2689 -40.2688 -40.2688 -40.2688
   -40.2687 -40.2687 -40.2687 -40.2687 -40.2687 -40.2686 -40.2686 -40.2685
   -40.2685 -40.2685 -40.2685 -40.2685 -40.2685 -40.2685 -40.2685 -40.2684
    -0.2137   0.3379   0.3379   0.4768   0.5044   0.5290   0.5290   0.5752
     0.5752   0.5838   0.6351   0.6407   0.6499   0.6834   0.6834   0.6854
     0.6898   0.6919   0.7054   0.7054   0.7147   0.7147   0.7291   0.7332
     0.7462   0.7462   0.7513   0.7635   0.7685   0.7685   0.7786   0.7787
     0.8034   0.8148   0.8148   0.8156   0.8365   0.8529   0.8588   0.8609
     0.8609   0.8718   0.9110   0.9364   0.9364   0.9364   0.9386   0.9387
     0.9581   0.9628   0.9714   0.9715   0.9804   0.9804   0.9828   0.9845
     0.9845   0.9937   0.9941   0.9945   0.9945   1.0049   1.0049   1.0069
     1.0141   1.0174   1.0180   1.0193   1.0242   1.0277   1.0388   1.0388
     1.0414   1.0735   1.0769   1.0769   1.0916   1.0929   1.0929   1.1156
     1.1156   1.1271   1.1468   1.2275   1.4512   1.7513   1.7513   1.9694
     2.2336   2.2336

          k = 0.0980 0.1634 0.2288 ( 74145 PWs)   bands (ev):

   -70.2146 -70.2145 -70.2145 -70.2145 -70.2145 -70.2145 -70.2145 -70.2145
   -70.2145 -70.2145 -70.2145 -70.2145 -70.2145 -70.2145 -70.2145 -70.2144
   -40.2697 -40.2696 -40.2696 -40.2696 -40.2696 -40.2696 -40.2695 -40.2695
   -40.2695 -40.2695 -40.2695 -40.2694 -40.2694 -40.2693 -40.2693 -40.2692
   -40.2692 -40.2692 -40.2692 -40.2691 -40.2691 -40.2691 -40.2691 -40.2690
   -40.2690 -40.2689 -40.2689 -40.2689 -40.2688 -40.2688 -40.2688 -40.2688
   -40.2688 -40.2687 -40.2687 -40.2687 -40.2687 -40.2686 -40.2686 -40.2686
   -40.2685 -40.2685 -40.2685 -40.2685 -40.2685 -40.2685 -40.2685 -40.2684
    -0.1111   0.1752   0.3839   0.4555   0.5215   0.5307   0.5759   0.5965
     0.6013   0.6153   0.6247   0.6563   0.6637   0.6671   0.6747   0.6794
     0.6880   0.6936   0.6968   0.7003   0.7159   0.7261   0.7282   0.7364
     0.7393   0.7540   0.7567   0.7578   0.7582   0.7590   0.7740   0.7801
     0.7821   0.7991   0.8359   0.8382   0.8487   0.8531   0.8558   0.8734
     0.8820   0.8830   0.9007   0.9026   0.9286   0.9442   0.9523   0.9535
     0.9544   0.9546   0.9550   0.9584   0.9644   0.9656   0.9656   0.9673
     0.9753   0.9843   0.9864   0.9908   0.9913   0.9963   1.0017   1.0088
     1.0116   1.0122   1.0176   1.0196   1.0232   1.0241   1.0305   1.0349
     1.0363   1.0368   1.0658   1.0826   1.0832   1.1082   1.1092   1.1102
     1.1130   1.1276   1.1421   1.2856   1.3107   1.5674   1.8546   2.0780
     2.1127   2.3405

          k = 0.0980 0.1634-0.2941 ( 74124 PWs)   bands (ev):

   -70.2145 -70.2145 -70.2145 -70.2145 -70.2145 -70.2145 -70.2145 -70.2145
   -70.2145 -70.2145 -70.2145 -70.2145 -70.2145 -70.2145 -70.2145 -70.2144
   -40.2697 -40.2696 -40.2696 -40.2696 -40.2696 -40.2696 -40.2696 -40.2695
   -40.2695 -40.2695 -40.2694 -40.2694 -40.2694 -40.2694 -40.2693 -40.2693
   -40.2692 -40.2692 -40.2691 -40.2691 -40.2691 -40.2691 -40.2691 -40.2691
   -40.2689 -40.2689 -40.2689 -40.2689 -40.2688 -40.2688 -40.2688 -40.2688
   -40.2687 -40.2687 -40.2686 -40.2686 -40.2686 -40.2686 -40.2686 -40.2686
   -40.2686 -40.2686 -40.2685 -40.2685 -40.2685 -40.2685 -40.2685 -40.2685
     0.0208   0.0208   0.4251   0.4251   0.5297   0.5297   0.6133   0.6133
     0.6265   0.6265   0.6317   0.6317   0.6482   0.6482   0.6747   0.6747
     0.6976   0.6976   0.7028   0.7028   0.7150   0.7150   0.7246   0.7246
     0.7493   0.7493   0.7542   0.7542   0.7549   0.7549   0.7802   0.7802
     0.7886   0.7886   0.8391   0.8391   0.8701   0.8702   0.8875   0.8875
     0.9011   0.9011   0.9051   0.9051   0.9099   0.9099   0.9156   0.9156
     0.9330   0.9330   0.9591   0.9591   0.9695   0.9695   0.9707   0.9707
     0.9711   0.9711   0.9719   0.9719   1.0023   1.0023   1.0026   1.0026
     1.0205   1.0205   1.0206   1.0206   1.0240   1.0240   1.0332   1.0332
     1.0344   1.0344   1.0552   1.0552   1.0959   1.0959   1.1220   1.1220
     1.1304   1.1304   1.1759   1.1759   1.4220   1.4220   1.9756   1.9756
     2.2134   2.2134

          k = 0.0980 0.2288 0.2288 ( 74108 PWs)   bands (ev):

   -70.2145 -70.2145 -70.2145 -70.2145 -70.2145 -70.2145 -70.2145 -70.2145
   -70.2145 -70.2145 -70.2145 -70.2145 -70.2145 -70.2145 -70.2145 -70.2144
   -40.2697 -40.2696 -40.2696 -40.2696 -40.2696 -40.2696 -40.2696 -40.2695
   -40.2695 -40.2695 -40.2695 -40.2694 -40.2694 -40.2693 -40.2693 -40.2692
   -40.2692 -40.2692 -40.2691 -40.2691 -40.2691 -40.2691 -40.2691 -40.2691
   -40.2689 -40.2689 -40.2689 -40.2689 -40.2689 -40.2689 -40.2688 -40.2687
   -40.2687 -40.2687 -40.2687 -40.2687 -40.2686 -40.2686 -40.2686 -40.2686
   -40.2686 -40.2685 -40.2685 -40.2685 -40.2685 -40.2685 -40.2685 -40.2684
    -0.0134   0.2481   0.2481   0.4001   0.5486   0.5746   0.5746   0.6144
     0.6144   0.6226   0.6433   0.6466   0.6550   0.6677   0.6844   0.6844
     0.7003   0.7031   0.7079   0.7080   0.7333   0.7352   0.7352   0.7445
     0.7461   0.7461   0.7570   0.7573   0.7584   0.7584   0.7829   0.7845
     0.7877   0.8189   0.8206   0.8206   0.8338   0.8368   0.8458   0.8458
     0.8567   0.8735   0.8952   0.8952   0.8996   0.8996   0.9135   0.9236
     0.9350   0.9600   0.9642   0.9650   0.9650   0.9771   0.9816   0.9845
     0.9862   0.9862   0.9881   0.9881   0.9885   0.9885   1.0032   1.0051
     1.0051   1.0091   1.0095   1.0150   1.0208   1.0263   1.0263   1.0300
     1.0397   1.0397   1.0426   1.0430   1.0752   1.0805   1.0805   1.1259
     1.1259   1.1326   1.1436   1.1566   1.4080   1.6757   1.6757   1.9477
     2.1779   2.4372

          k = 0.0980 0.2288-0.2941 ( 74124 PWs)   bands (ev):

   -70.2145 -70.2145 -70.2145 -70.2145 -70.2145 -70.2145 -70.2145 -70.2145
   -70.2145 -70.2145 -70.2145 -70.2145 -70.2145 -70.2145 -70.2145 -70.2144
   -40.2696 -40.2696 -40.2696 -40.2696 -40.2696 -40.2696 -40.2695 -40.2695
   -40.2695 -40.2695 -40.2694 -40.2694 -40.2693 -40.2693 -40.2692 -40.2692
   -40.2692 -40.2692 -40.2692 -40.2692 -40.2692 -40.2692 -40.2690 -40.2690
   -40.2690 -40.2690 -40.2689 -40.2689 -40.2689 -40.2689 -40.2688 -40.2688
   -40.2687 -40.2687 -40.2686 -40.2686 -40.2686 -40.2686 -40.2686 -40.2686
   -40.2686 -40.2686 -40.2685 -40.2685 -40.2685 -40.2685 -40.2684 -40.2684
     0.1097   0.1097   0.3280   0.3280   0.5668   0.5668   0.6165   0.6165
     0.6207   0.6207   0.6354   0.6354   0.6672   0.6672   0.6783   0.6783
     0.7161   0.7161   0.7229   0.7229   0.7305   0.7305   0.7353   0.7353
     0.7370   0.7370   0.7580   0.7580   0.7665   0.7665   0.7930   0.7930
     0.7998   0.7998   0.8159   0.8159   0.8469   0.8469   0.8543   0.8543
     0.8627   0.8627   0.8685   0.8685   0.8752   0.8752   0.8827   0.8827
     0.9701   0.9701   0.9727   0.9727   0.9759   0.9759   0.9770   0.9770
     0.9771   0.9771   0.9842   0.9842   0.9957   0.9957   1.0005   1.0005
     1.0140   1.0141   1.0152   1.0152   1.0155   1.0155   1.0228   1.0228
     1.0285   1.0285   1.0573   1.0573   1.0758   1.0758   1.0796   1.0796
     1.1325   1.1325   1.1379   1.1379   1.5281   1.5281   1.8022   1.8022
     2.3009   2.3009

          k = 0.0980-0.2941-0.2941 ( 74080 PWs)   bands (ev):

   -70.2145 -70.2145 -70.2145 -70.2145 -70.2145 -70.2145 -70.2145 -70.2145
   -70.2145 -70.2145 -70.2145 -70.2145 -70.2145 -70.2145 -70.2145 -70.2144
   -40.2696 -40.2696 -40.2696 -40.2696 -40.2695 -40.2695 -40.2695 -40.2695
   -40.2695 -40.2695 -40.2695 -40.2695 -40.2693 -40.2693 -40.2693 -40.2693
   -40.2691 -40.2691 -40.2691 -40.2691 -40.2691 -40.2691 -40.2690 -40.2690
   -40.2689 -40.2689 -40.2689 -40.2689 -40.2689 -40.2689 -40.2689 -40.2689
   -40.2686 -40.2686 -40.2686 -40.2686 -40.2686 -40.2686 -40.2686 -40.2686
   -40.2686 -40.2686 -40.2686 -40.2685 -40.2685 -40.2685 -40.2684 -40.2684
     0.2167   0.2167   0.2168   0.2168   0.5974   0.5974   0.5974   0.5974
     0.6299   0.6299   0.6299   0.6299   0.6767   0.6767   0.6767   0.6767
     0.7236   0.7236   0.7236   0.7236   0.7423   0.7423   0.7423   0.7423
     0.7641   0.7641   0.7641   0.7641   0.7683   0.7683   0.7683   0.7683
     0.8235   0.8235   0.8235   0.8236   0.8269   0.8269   0.8269   0.8269
     0.8390   0.8390   0.8390   0.8390   0.8685   0.8685   0.8685   0.8685
     0.9798   0.9798   0.9798   0.9798   0.9866   0.9866   0.9866   0.9866
     0.9902   0.9902   0.9902   0.9903   0.9950   0.9950   0.9950   0.9950
     1.0123   1.0123   1.0123   1.0123   1.0192   1.0192   1.0192   1.0192
     1.0254   1.0254   1.0254   1.0254   1.0624   1.0624   1.0624   1.0624
     1.1384   1.1384   1.1384   1.1385   1.6538   1.6538   1.6538   1.6538
     2.4069   2.4069

          k = 0.1634 0.1634 0.1634 ( 74160 PWs)   bands (ev):

   -70.2146 -70.2145 -70.2145 -70.2145 -70.2145 -70.2145 -70.2145 -70.2145
   -70.2145 -70.2145 -70.2145 -70.2145 -70.2145 -70.2145 -70.2145 -70.2144
   -40.2697 -40.2697 -40.2697 -40.2696 -40.2696 -40.2696 -40.2695 -40.2695
   -40.2695 -40.2695 -40.2695 -40.2695 -40.2693 -40.2693 -40.2692 -40.2692
   -40.2692 -40.2692 -40.2691 -40.2691 -40.2691 -40.2691 -40.2691 -40.2691
   -40.2688 -40.2688 -40.2688 -40.2688 -40.2688 -40.2688 -40.2688 -40.2688
   -40.2688 -40.2687 -40.2687 -40.2687 -40.2687 -40.2686 -40.2686 -40.2686
   -40.2685 -40.2685 -40.2685 -40.2685 -40.2685 -40.2685 -40.2685 -40.2685
    -0.1452   0.3785   0.3785   0.3785   0.5167   0.5167   0.5167   0.5995
     0.5995   0.5995   0.6282   0.6597   0.6597   0.6867   0.6867   0.6868
     0.7133   0.7133   0.7195   0.7195   0.7195   0.7318   0.7318   0.7318
     0.7338   0.7338   0.7338   0.7644   0.7644   0.7763   0.7763   0.7763
     0.7818   0.7818   0.7818   0.8037   0.8334   0.8334   0.8423   0.8423
     0.8423   0.9011   0.9066   0.9066   0.9067   0.9472   0.9472   0.9472
     0.9537   0.9734   0.9734   0.9734   0.9758   0.9758   0.9758   0.9839
     0.9839   0.9840   0.9923   0.9923   0.9923   0.9995   0.9995   1.0148
     1.0148   1.0162   1.0162   1.0162   1.0172   1.0172   1.0172   1.0253
     1.0253   1.0921   1.0921   1.0921   1.1068   1.1068   1.1116   1.1116
     1.1116   1.1212   1.1212   1.1212   1.5423   1.5423   1.5423   2.0850
     2.3041   2.3041

          k = 0.1634 0.1634 0.2288 ( 74128 PWs)   bands (ev):

   -70.2146 -70.2145 -70.2145 -70.2145 -70.2145 -70.2145 -70.2145 -70.2145
   -70.2145 -70.2145 -70.2145 -70.2145 -70.2145 -70.2145 -70.2145 -70.2144
   -40.2697 -40.2697 -40.2696 -40.2696 -40.2696 -40.2696 -40.2695 -40.2695
   -40.2695 -40.2695 -40.2694 -40.2694 -40.2694 -40.2693 -40.2693 -40.2692
   -40.2692 -40.2692 -40.2692 -40.2692 -40.2692 -40.2692 -40.2691 -40.2691
   -40.2689 -40.2689 -40.2688 -40.2688 -40.2688 -40.2688 -40.2688 -40.2688
   -40.2687 -40.2687 -40.2687 -40.2687 -40.2687 -40.2687 -40.2686 -40.2686
   -40.2686 -40.2685 -40.2685 -40.2685 -40.2685 -40.2685 -40.2685 -40.2685
    -0.0450   0.2294   0.4268   0.4268   0.4990   0.4990   0.5714   0.6140
     0.6250   0.6284   0.6284   0.6738   0.6849   0.6894   0.6921   0.6934
     0.6934   0.6983   0.6983   0.7019   0.7111   0.7275   0.7440   0.7453
     0.7453   0.7522   0.7522   0.7523   0.7523   0.7547   0.7603   0.7661
     0.7725   0.8005   0.8052   0.8052   0.8091   0.8324   0.8324   0.8465
     0.8614   0.8712   0.8712   0.8982   0.9120   0.9122   0.9142   0.9142
     0.9353   0.9611   0.9611   0.9613   0.9756   0.9756   0.9847   0.9847
     0.9852   0.9852   0.9890   0.9912   0.9955   1.0045   1.0069   1.0090
     1.0149   1.0156   1.0169   1.0179   1.0191   1.0191   1.0224   1.0224
     1.0391   1.0442   1.0794   1.0904   1.0991   1.0991   1.1061   1.1143
     1.1186   1.1186   1.1739   1.1739   1.3798   1.3798   1.6521   1.9221
     2.4021   2.4021

          k = 0.1634 0.1634-0.2941 ( 74118 PWs)   bands (ev):

   -70.2145 -70.2145 -70.2145 -70.2145 -70.2145 -70.2145 -70.2145 -70.2145
   -70.2145 -70.2145 -70.2145 -70.2145 -70.2145 -70.2145 -70.2145 -70.2144
   -40.2696 -40.2696 -40.2696 -40.2696 -40.2696 -40.2696 -40.2696 -40.2695
   -40.2695 -40.2695 -40.2694 -40.2694 -40.2693 -40.2693 -40.2693 -40.2693
   -40.2692 -40.2692 -40.2692 -40.2692 -40.2692 -40.2692 -40.2690 -40.2690
   -40.2689 -40.2689 -40.2688 -40.2688 -40.2688 -40.2688 -40.2688 -40.2688
   -40.2687 -40.2687 -40.2687 -40.2687 -40.2686 -40.2686 -40.2686 -40.2686
   -40.2686 -40.2686 -40.2685 -40.2685 -40.2685 -40.2685 -40.2685 -40.2685
     0.0827   0.0827   0.4697   0.4697   0.4697   0.4697   0.6219   0.6219
     0.6340   0.6340   0.6606   0.6606   0.6606   0.6606   0.6913   0.6913
     0.6942   0.6942   0.7110   0.7110   0.7180   0.7180   0.7180   0.7180
     0.7523   0.7523   0.7624   0.7624   0.7624   0.7624   0.7678   0.7678
     0.7688   0.7688   0.8414   0.8414   0.8414   0.8414   0.8518   0.8518
     0.8518   0.8518   0.8539   0.8539   0.8736   0.8736   0.8835   0.8835
     0.9733   0.9733   0.9747   0.9747   0.9747   0.9747   0.9759   0.9759
     0.9794   0.9794   0.9794   0.9794   1.0023   1.0023   1.0060   1.0060
     1.0163   1.0163   1.0171   1.0171   1.0218   1.0218   1.0218   1.0218
     1.0477   1.0477   1.0613   1.0613   1.1100   1.1100   1.1100   1.1100
     1.1139   1.1139   1.2607   1.2607   1.2607   1.2607   1.7782   1.7782
     2.5167   2.5167

          k = 0.1634 0.2288 0.2288 ( 74131 PWs)   bands (ev):

   -70.2145 -70.2145 -70.2145 -70.2145 -70.2145 -70.2145 -70.2145 -70.2145
   -70.2145 -70.2145 -70.2145 -70.2145 -70.2145 -70.2145 -70.2145 -70.2144
   -40.2696 -40.2696 -40.2696 -40.2696 -40.2696 -40.2696 -40.2695 -40.2695
   -40.2695 -40.2694 -40.2694 -40.2694 -40.2693 -40.2693 -40.2693 -40.2693
   -40.2693 -40.2692 -40.2692 -40.2692 -40.2692 -40.2691 -40.2691 -40.2691
   -40.2689 -40.2688 -40.2688 -40.2688 -40.2688 -40.2688 -40.2687 -40.2687
   -40.2687 -40.2687 -40.2687 -40.2687 -40.2687 -40.2686 -40.2686 -40.2686
   -40.2686 -40.2685 -40.2685 -40.2685 -40.2685 -40.2685 -40.2685 -40.2685
     0.0508   0.3025   0.3025   0.4505   0.4796   0.5578   0.5578   0.6299
     0.6370   0.6370   0.6575   0.6715   0.6886   0.6888   0.7020   0.7020
     0.7036   0.7061   0.7061   0.7070   0.7217   0.7380   0.7380   0.7447
     0.7492   0.7497   0.7497   0.7533   0.7578   0.7578   0.7640   0.7667
     0.7722   0.7727   0.7816   0.7816   0.8023   0.8173   0.8173   0.8320
     0.8356   0.8489   0.8535   0.8535   0.8595   0.8659   0.8659   0.8697
     0.9713   0.9718   0.9718   0.9758   0.9832   0.9859   0.9904   0.9911
     0.9911   0.9944   0.9944   0.9976   1.0048   1.0053   1.0108   1.0108
     1.0140   1.0146   1.0158   1.0158   1.0173   1.0173   1.0204   1.0220
     1.0446   1.0675   1.0861   1.0861   1.0887   1.0904   1.0904   1.1098
     1.1098   1.1123   1.1212   1.2459   1.2567   1.4879   1.4879   1.7551
     2.4869   2.6676

          k = 0.1634 0.2288-0.2941 ( 74128 PWs)   bands (ev):

   -70.2145 -70.2145 -70.2145 -70.2145 -70.2145 -70.2145 -70.2145 -70.2145
   -70.2145 -70.2145 -70.2145 -70.2145 -70.2145 -70.2145 -70.2145 -70.2144
   -40.2696 -40.2696 -40.2696 -40.2696 -40.2696 -40.2696 -40.2695 -40.2695
   -40.2694 -40.2694 -40.2694 -40.2694 -40.2694 -40.2694 -40.2693 -40.2693
   -40.2693 -40.2693 -40.2693 -40.2693 -40.2692 -40.2692 -40.2690 -40.2690
   -40.2690 -40.2690 -40.2688 -40.2688 -40.2688 -40.2688 -40.2687 -40.2687
   -40.2687 -40.2687 -40.2687 -40.2687 -40.2686 -40.2686 -40.2686 -40.2686
   -40.2686 -40.2686 -40.2685 -40.2685 -40.2685 -40.2685 -40.2685 -40.2685
     0.1704   0.1704   0.3817   0.3817   0.5273   0.5273   0.6220   0.6220
     0.6360   0.6360   0.6638   0.6638   0.6852   0.6852   0.7002   0.7002
     0.7109   0.7109   0.7170   0.7171   0.7260   0.7260   0.7341   0.7341
     0.7374   0.7374   0.7600   0.7600   0.7694   0.7694   0.7731   0.7731
     0.7787   0.7787   0.8001   0.8001   0.8005   0.8005   0.8075   0.8075
     0.8111   0.8111   0.8328   0.8328   0.8411   0.8411   0.8569   0.8569
     0.9812   0.9812   0.9822   0.9822   0.9827   0.9827   0.9968   0.9968
     0.9984   0.9984   0.9988   0.9989   1.0085   1.0085   1.0109   1.0109
     1.0144   1.0144   1.0158   1.0158   1.0198   1.0198   1.0254   1.0254
     1.0402   1.0402   1.0635   1.0635   1.0873   1.0873   1.1139   1.1139
     1.1171   1.1171   1.1533   1.1533   1.3589   1.3589   1.6116   1.6116
     2.5839   2.5839

          k = 0.1634-0.2941-0.2941 ( 74128 PWs)   bands (ev):

   -70.2145 -70.2145 -70.2145 -70.2145 -70.2145 -70.2145 -70.2145 -70.2145
   -70.2145 -70.2145 -70.2145 -70.2145 -70.2145 -70.2145 -70.2145 -70.2144
   -40.2696 -40.2696 -40.2696 -40.2696 -40.2695 -40.2695 -40.2695 -40.2695
   -40.2694 -40.2694 -40.2694 -40.2694 -40.2693 -40.2693 -40.2693 -40.2693
   -40.2693 -40.2693 -40.2693 -40.2693 -40.2691 -40.2691 -40.2691 -40.2691
   -40.2689 -40.2689 -40.2689 -40.2689 -40.2688 -40.2688 -40.2688 -40.2688
   -40.2686 -40.2686 -40.2686 -40.2686 -40.2686 -40.2686 -40.2686 -40.2686
   -40.2686 -40.2686 -40.2686 -40.2686 -40.2685 -40.2685 -40.2685 -40.2685
     0.2753   0.2753   0.2753   0.2753   0.5840   0.5840   0.5840   0.5840
     0.6523   0.6523   0.6523   0.6523   0.6987   0.6987   0.6987   0.6987
     0.7236   0.7236   0.7236   0.7236   0.7349   0.7349   0.7349   0.7349
     0.7669   0.7669   0.7669   0.7669   0.7684   0.7684   0.7684   0.7684
     0.7731   0.7731   0.7731   0.7731   0.7834   0.7834   0.7834   0.7834
     0.7994   0.7994   0.7994   0.7994   0.8427   0.8427   0.8427   0.8427
     0.9855   0.9855   0.9855   0.9855   0.9909   0.9909   0.9909   0.9909
     1.0098   1.0098   1.0098   1.0098   1.0106   1.0106   1.0106   1.0106
     1.0176   1.0176   1.0176   1.0176   1.0193   1.0193   1.0193   1.0193
     1.0701   1.0701   1.0701   1.0701   1.0797   1.0797   1.0797   1.0797
     1.1176   1.1176   1.1176   1.1176   1.4738   1.4738   1.4738   1.4738
     2.6584   2.6584

          k = 0.2288 0.2288 0.2288 ( 74154 PWs)   bands (ev):

   -70.2146 -70.2145 -70.2145 -70.2145 -70.2145 -70.2145 -70.2145 -70.2145
   -70.2145 -70.2145 -70.2145 -70.2145 -70.2145 -70.2145 -70.2145 -70.2144
   -40.2696 -40.2696 -40.2696 -40.2696 -40.2696 -40.2696 -40.2695 -40.2695
   -40.2695 -40.2694 -40.2694 -40.2694 -40.2694 -40.2694 -40.2693 -40.2693
   -40.2693 -40.2693 -40.2693 -40.2693 -40.2692 -40.2692 -40.2692 -40.2690
   -40.2690 -40.2688 -40.2688 -40.2688 -40.2687 -40.2687 -40.2687 -40.2687
   -40.2687 -40.2687 -40.2687 -40.2687 -40.2687 -40.2687 -40.2687 -40.2686
   -40.2686 -40.2686 -40.2685 -40.2685 -40.2685 -40.2685 -40.2685 -40.2685
     0.1430   0.3761   0.3761   0.3761   0.5208   0.5208   0.5208   0.6426
     0.6648   0.6648   0.6648   0.6853   0.7051   0.7051   0.7051   0.7134
     0.7134   0.7162   0.7162   0.7237   0.7237   0.7237   0.7387   0.7387
     0.7387   0.7433   0.7433   0.7433   0.7454   0.7454   0.7496   0.7496
     0.7496   0.7646   0.7646   0.7646   0.8015   0.8015   0.8015   0.8023
     0.8023   0.8023   0.8167   0.8167   0.8258   0.8326   0.8326   0.8326
     0.9804   0.9804   0.9804   0.9926   0.9926   0.9926   0.9981   0.9981
     1.0064   1.0065   1.0065   1.0078   1.0078   1.0124   1.0124   1.0124
     1.0147   1.0147   1.0147   1.0241   1.0244   1.0244   1.0244   1.0389
     1.0389   1.0852   1.0852   1.0930   1.0930   1.0930   1.0956   1.0956
     1.0956   1.1541   1.1541   1.1541   1.3449   1.3449   1.3449   1.5929
     2.7741   2.7741

          k = 0.2288 0.2288-0.2941 ( 74102 PWs)   bands (ev):

   -70.2145 -70.2145 -70.2145 -70.2145 -70.2145 -70.2145 -70.2145 -70.2145
   -70.2145 -70.2145 -70.2145 -70.2145 -70.2145 -70.2145 -70.2145 -70.2144
   -40.2696 -40.2696 -40.2696 -40.2695 -40.2695 -40.2695 -40.2695 -40.2695
   -40.2694 -40.2694 -40.2694 -40.2694 -40.2693 -40.2693 -40.2693 -40.2693
   -40.2693 -40.2693 -40.2693 -40.2693 -40.2693 -40.2693 -40.2691 -40.2691
   -40.2688 -40.2688 -40.2687 -40.2687 -40.2687 -40.2687 -40.2687 -40.2687
   -40.2687 -40.2687 -40.2687 -40.2687 -40.2686 -40.2686 -40.2686 -40.2686
   -40.2686 -40.2686 -40.2686 -40.2686 -40.2685 -40.2685 -40.2685 -40.2685
     0.2561   0.2561   0.4557   0.4557   0.4557   0.4557   0.6037   0.6037
     0.6570   0.6570   0.6958   0.6958   0.6958   0.6958   0.7081   0.7081
     0.7200   0.7200   0.7200   0.7200   0.7272   0.7272   0.7365   0.7365
     0.7401   0.7401   0.7469   0.7469   0.7510   0.7510   0.7598   0.7598
     0.7598   0.7598   0.7650   0.7650   0.7650   0.7650   0.7848   0.7848
     0.7919   0.7919   0.8065   0.8065   0.8065   0.8065   0.8267   0.8267
     0.9885   0.9886   0.9886   0.9886   0.9897   0.9897   1.0002   1.0002
     1.0066   1.0066   1.0103   1.0103   1.0122   1.0122   1.0122   1.0122
     1.0202   1.0202   1.0202   1.0202   1.0258   1.0258   1.0547   1.0548
     1.0641   1.0641   1.0812   1.0812   1.0918   1.0918   1.0918   1.0918
     1.0946   1.0946   1.2377   1.2377   1.2377   1.2377   1.4584   1.4584
     2.8243   2.8244

          k = 0.2288-0.2941-0.2941 ( 74132 PWs)   bands (ev):

   -70.2145 -70.2145 -70.2145 -70.2145 -70.2145 -70.2145 -70.2145 -70.2145
   -70.2145 -70.2145 -70.2145 -70.2145 -70.2145 -70.2145 -70.2145 -70.2144
   -40.2695 -40.2695 -40.2695 -40.2695 -40.2695 -40.2695 -40.2695 -40.2695
   -40.2694 -40.2694 -40.2694 -40.2694 -40.2694 -40.2694 -40.2694 -40.2694
   -40.2694 -40.2693 -40.2693 -40.2693 -40.2692 -40.2692 -40.2692 -40.2692
   -40.2688 -40.2688 -40.2688 -40.2688 -40.2687 -40.2687 -40.2687 -40.2687
   -40.2687 -40.2687 -40.2687 -40.2687 -40.2687 -40.2687 -40.2687 -40.2686
   -40.2686 -40.2686 -40.2686 -40.2686 -40.2686 -40.2686 -40.2685 -40.2685
     0.3572   0.3572   0.3573   0.3573   0.5382   0.5382   0.5382   0.5382
     0.6807   0.6807   0.6807   0.6807   0.7242   0.7242   0.7242   0.7242
     0.7249   0.7249   0.7249   0.7249   0.7271   0.7271   0.7271   0.7271
     0.7294   0.7294   0.7294   0.7294   0.7489   0.7489   0.7489   0.7489
     0.7634   0.7635   0.7635   0.7635   0.7703   0.7703   0.7703   0.7703
     0.7746   0.7746   0.7746   0.7746   0.8088   0.8088   0.8088   0.8088
     0.9930   0.9930   0.9930   0.9930   0.9962   0.9962   0.9962   0.9962
     1.0061   1.0061   1.0061   1.0061   1.0098   1.0098   1.0098   1.0098
     1.0333   1.0333   1.0333   1.0333   1.0438   1.0438   1.0438   1.0438
     1.0699   1.0699   1.0699   1.0699   1.0904   1.0904   1.0904   1.0904
     1.1498   1.1498   1.1498   1.1498   1.3369   1.3369   1.3369   1.3369
     2.8429   2.8429

          k =-0.2941-0.2941-0.2941 ( 74184 PWs)   bands (ev):

   -70.2145 -70.2145 -70.2145 -70.2145 -70.2145 -70.2145 -70.2145 -70.2145
   -70.2145 -70.2145 -70.2145 -70.2145 -70.2145 -70.2145 -70.2145 -70.2144
   -40.2695 -40.2695 -40.2695 -40.2695 -40.2695 -40.2695 -40.2695 -40.2695
   -40.2695 -40.2695 -40.2695 -40.2695 -40.2695 -40.2695 -40.2695 -40.2695
   -40.2693 -40.2693 -40.2693 -40.2693 -40.2693 -40.2693 -40.2693 -40.2693
   -40.2688 -40.2687 -40.2687 -40.2687 -40.2687 -40.2687 -40.2687 -40.2687
   -40.2686 -40.2686 -40.2686 -40.2686 -40.2686 -40.2686 -40.2686 -40.2686
   -40.2686 -40.2686 -40.2686 -40.2686 -40.2686 -40.2686 -40.2686 -40.2686
     0.4523   0.4523   0.4523   0.4523   0.4523   0.4523   0.4523   0.4523
     0.7129   0.7129   0.7129   0.7129   0.7129   0.7129   0.7129   0.7129
     0.7260   0.7260   0.7260   0.7260   0.7260   0.7260   0.7260   0.7260
     0.7260   0.7260   0.7260   0.7260   0.7260   0.7260   0.7260   0.7260
     0.7732   0.7732   0.7732   0.7732   0.7733   0.7733   0.7733   0.7733
     0.7733   0.7733   0.7733   0.7733   0.7733   0.7733   0.7733   0.7733
     1.0014   1.0014   1.0014   1.0014   1.0014   1.0014   1.0014   1.0014
     1.0014   1.0014   1.0014   1.0014   1.0014   1.0014   1.0014   1.0014
     1.0610   1.0610   1.0610   1.0610   1.0610   1.0610   1.0610   1.0610
     1.0610   1.0610   1.0610   1.0610   1.0610   1.0610   1.0610   1.0610
     1.2328   1.2328   1.2328   1.2328   1.2328   1.2328   1.2328   1.2328
     2.9327   2.9327

     the Fermi energy is     1.1518 ev

!    total energy              =   -6898.32263813 Ry

     total all-electron energy =   -144986.517808 Ry
     estimated scf accuracy    <       0.00000016 Ry
     smearing contrib. (-TS)   =      -0.36934278 Ry
     internal energy E=F+TS    =   -6897.95329534 Ry

     The total energy is F=E-TS. E is the sum of the following terms:
     one-electron contribution =   -2257.04138500 Ry
     hartree contribution      =    1145.61821325 Ry
     xc contribution           =    -457.71905788 Ry
     ewald contribution        =   -1534.37694899 Ry
     one-center paw contrib.   =   -3794.43411672 Ry

     convergence has been achieved in  22 iterations

     Forces acting on atoms (cartesian axes, Ry/au):

     atom    1 type  1   force =     0.00000000    0.00000000    0.00000000
     atom    2 type  1   force =     0.00000820    0.00000820    0.00000820
     atom    3 type  1   force =     0.00000000    0.00000000    0.00000000
     atom    4 type  1   force =     0.00000820    0.00000820   -0.00000820
     atom    5 type  1   force =     0.00000000    0.00000000    0.00000000
     atom    6 type  1   force =     0.00000820   -0.00000820    0.00000820
     atom    7 type  1   force =     0.00000000    0.00000000    0.00000000
     atom    8 type  1   force =     0.00000820   -0.00000820   -0.00000820
     atom    9 type  1   force =     0.00000000    0.00000000    0.00000000
     atom   10 type  1   force =    -0.00000820    0.00000820    0.00000820
     atom   11 type  1   force =     0.00000000    0.00000000    0.00000000
     atom   12 type  1   force =    -0.00000820    0.00000820   -0.00000820
     atom   13 type  1   force =     0.00000000    0.00000000    0.00000000
     atom   14 type  1   force =    -0.00000820   -0.00000820    0.00000820
     atom   15 type  1   force =     0.00000000    0.00000000    0.00000000
     atom   16 type  1   force =    -0.00000820   -0.00000820   -0.00000820

     Total force =     0.000040     Total SCF correction =     0.000205
     SCF correction compared to forces is large: reduce conv_thr to get better values


     Computing stress (Cartesian axis) and pressure

          total   stress  (Ry/bohr**3)                   (kbar)     P=      -55.10
  -0.00037454   0.00000000   0.00000000          -55.10        0.00        0.00
   0.00000000  -0.00037454   0.00000000            0.00      -55.10        0.00
   0.00000000   0.00000000  -0.00037454            0.00        0.00      -55.10


     Writing output data file /scratch/nEotgMIzVnVDQwNX.save/
 
     init_run     :      9.33s CPU      9.62s WALL (       1 calls)
     electrons    :    522.93s CPU    530.19s WALL (       1 calls)
     forces       :      2.58s CPU      2.65s WALL (       1 calls)
     stress       :     21.86s CPU     22.04s WALL (       1 calls)

     Called by init_run:
     wfcinit      :      7.58s CPU      7.76s WALL (       1 calls)
     potinit      :      0.29s CPU      0.30s WALL (       1 calls)
     hinit0       :      0.49s CPU      0.50s WALL (       1 calls)

     Called by electrons:
     c_bands      :    453.86s CPU    458.98s WALL (      22 calls)
     sum_band     :     65.39s CPU     66.89s WALL (      22 calls)
     v_of_rho     :      0.68s CPU      0.72s WALL (      23 calls)
     newd         :      1.22s CPU      1.65s WALL (      23 calls)
     PAW_pot      :      1.31s CPU      1.44s WALL (      23 calls)
     mix_rho      :      0.35s CPU      0.37s WALL (      22 calls)

     Called by c_bands:
     init_us_2    :      4.01s CPU      4.06s WALL (    1645 calls)
     cegterg      :    439.54s CPU    444.29s WALL (     770 calls)

     Called by *egterg:
     cdiaghg      :     31.94s CPU     32.15s WALL (    2835 calls)
     h_psi        :    260.59s CPU    264.12s WALL (    2870 calls)
     s_psi        :     16.18s CPU     16.28s WALL (    2870 calls)
     g_psi        :      0.91s CPU      0.92s WALL (    2065 calls)

     Called by h_psi:
     h_psi:calbec :     22.60s CPU     22.77s WALL (    2870 calls)
     vloc_psi     :    220.63s CPU    223.80s WALL (    2870 calls)
     add_vuspsi   :     15.16s CPU     15.31s WALL (    2870 calls)

     General routines
     calbec       :     35.31s CPU     35.59s WALL (    3815 calls)
     fft          :      0.92s CPU      0.94s WALL (     322 calls)
     ffts         :      0.10s CPU      0.10s WALL (      45 calls)
     fftw         :    260.73s CPU    264.41s WALL (  675328 calls)
     interpolate  :      0.20s CPU      0.20s WALL (      23 calls)
 
     Parallel routines
     fft_scatt_xy :     20.29s CPU     20.53s WALL (  675695 calls)
     fft_scatt_yz :    202.43s CPU    205.47s WALL (  675695 calls)
 
     PWSCF        :   9m25.40s CPU   9m35.38s WALL

 
   This run was terminated on:   0:24: 7  26Nov2021            

=------------------------------------------------------------------------------=
   JOB DONE.
=------------------------------------------------------------------------------=
