
     Program PWSCF v.6.7MaX starts on 29Nov2021 at 23:33:58 

     This program is part of the open-source Quantum ESPRESSO suite
     for quantum simulation of materials; please cite
         "P. Giannozzi et al., J. Phys.:Condens. Matter 21 395502 (2009);
         "P. Giannozzi et al., J. Phys.:Condens. Matter 29 465901 (2017);
          URL http://www.quantum-espresso.org", 
     in publications or presentations arising from this work. More details at
     http://www.quantum-espresso.org/quote

     Parallel version (MPI & OpenMP), running on      72 processor cores
     Number of MPI processes:                72
     Threads/MPI process:                     1

     MPI processes distributed on     1 nodes
     R & G space division:  proc/nbgrp/npool/nimage =      72
     Reading input from bcc_9.in
Warning: card &CELL ignored
Warning: card CELL_DYNAMICS = 'BFGS', ignored
Warning: card CELL_FACTOR = 2.0, ignored
Warning: card PRESS = 0.0, ignored
Warning: card / ignored

     Current dimensions of program PWSCF are:
     Max number of different atomic species (ntypx) = 10
     Max number of k-points (npk) =  40000
     Max angular momentum in pseudopotentials (lmaxx) =  3
     file Pd.pbe-spn-kjpaw_psl.1.0.0.UPF: wavefunction(s)  4S 5S 4D renormalized

     Subspace diagonalization in iterative solution of the eigenvalue problem:
     one sub-group per band group will be used
     ELPA distributed-memory algorithm (size of sub-group:  8*  8 procs)

     Found symmetry operation: I + (  0.2500  0.2500  0.2500)
     This is a supercell, fractional translations are disabled
     Message from routine setup:
     using ibrav=0 with symmetry is DISCOURAGED, use correct ibrav instead
 
     Parallelization info
     --------------------
     sticks:   dense  smooth     PW     G-vecs:    dense   smooth      PW
     Min         101      67     18                 6489     3487     494
     Max         102      68     19                 6494     3491     499
     Sum        7289    4825   1313               467329   251175   35729
 


     bravais-lattice index     =            0
     lattice parameter (alat)  =      11.4293  a.u.
     unit-cell volume          =    3104.0667 (a.u.)^3
     number of atoms/cell      =           16
     number of atomic types    =            1
     number of electrons       =       288.00
     number of Kohn-Sham states=          173
     kinetic-energy cutoff     =      71.0000  Ry
     charge density cutoff     =     430.0000  Ry
     scf convergence threshold =      1.0E-06
     mixing beta               =       0.1000
     number of iterations used =           10  TF        mixing
     Exchange-correlation= SLA  PW   PBX  PBC
                           (   1   4   3   4   0   0   0)

     celldm(1)=  11.429280  celldm(2)=   0.000000  celldm(3)=   0.000000
     celldm(4)=   0.000000  celldm(5)=   0.000000  celldm(6)=   0.000000

     crystal axes: (cart. coord. in units of alat)
               a(1) = (   1.276316   0.000000   0.000000 )  
               a(2) = (   0.000000   1.276316   0.000000 )  
               a(3) = (   0.000000   0.000000   1.276316 )  

     reciprocal axes: (cart. coord. in units 2 pi/alat)
               b(1) = (  0.783505  0.000000  0.000000 )  
               b(2) = (  0.000000  0.783505  0.000000 )  
               b(3) = (  0.000000  0.000000  0.783505 )  


     PseudoPot. # 1 for Pd read from file:
     /rds/homes/b/bxp912/pp/Pd.pbe-spn-kjpaw_psl.1.0.0.UPF
     MD5 check sum: 790f2ebce206edfd9790dcb9844eca51
     Pseudo is Projector augmented-wave + core cor, Zval = 18.0
     Generated using &quot;atomic&quot; code by A. Dal Corso  v.6.3
     Shape of augmentation charge: PSQ
     Using radial grid of 1235 points,  6 beta functions with: 
                l(1) =   0
                l(2) =   0
                l(3) =   1
                l(4) =   1
                l(5) =   2
                l(6) =   2
     Q(r) pseudized with 0 coefficients 


     atomic species   valence    mass     pseudopotential
        Pd            18.00   106.42000     Pd( 1.00)

     48 Sym. Ops., with inversion, found



   Cartesian axes

     site n.     atom                  positions (alat units)
         1           Pd  tau(   1) = (   0.0000000   0.0000000   0.0000000  )
         2           Pd  tau(   2) = (   0.3190789   0.3190789   0.3190789  )
         3           Pd  tau(   3) = (   0.0000000   0.0000000   0.6381579  )
         4           Pd  tau(   4) = (   0.3190789   0.3190789   0.9572368  )
         5           Pd  tau(   5) = (   0.0000000   0.6381579   0.0000000  )
         6           Pd  tau(   6) = (   0.3190789   0.9572368   0.3190789  )
         7           Pd  tau(   7) = (   0.0000000   0.6381579   0.6381579  )
         8           Pd  tau(   8) = (   0.3190789   0.9572368   0.9572368  )
         9           Pd  tau(   9) = (   0.6381579   0.0000000   0.0000000  )
        10           Pd  tau(  10) = (   0.9572368   0.3190789   0.3190789  )
        11           Pd  tau(  11) = (   0.6381579   0.0000000   0.6381579  )
        12           Pd  tau(  12) = (   0.9572368   0.3190789   0.9572368  )
        13           Pd  tau(  13) = (   0.6381579   0.6381579   0.0000000  )
        14           Pd  tau(  14) = (   0.9572368   0.9572368   0.3190789  )
        15           Pd  tau(  15) = (   0.6381579   0.6381579   0.6381579  )
        16           Pd  tau(  16) = (   0.9572368   0.9572368   0.9572368  )

     number of k points=    35  Marzari-Vanderbilt smearing, width (Ry)=  0.0400
                       cart. coord. in units 2pi/alat
        k(    1) = (   0.0435281   0.0435281   0.0435281), wk =   0.0219479
        k(    2) = (   0.0435281   0.0435281   0.1305842), wk =   0.0658436
        k(    3) = (   0.0435281   0.0435281   0.2176403), wk =   0.0658436
        k(    4) = (   0.0435281   0.0435281   0.3046964), wk =   0.0658436
        k(    5) = (   0.0435281   0.0435281  -0.3917526), wk =   0.0329218
        k(    6) = (   0.0435281   0.1305842   0.1305842), wk =   0.0658436
        k(    7) = (   0.0435281   0.1305842   0.2176403), wk =   0.1316872
        k(    8) = (   0.0435281   0.1305842   0.3046964), wk =   0.1316872
        k(    9) = (   0.0435281   0.1305842  -0.3917526), wk =   0.0658436
        k(   10) = (   0.0435281   0.2176403   0.2176403), wk =   0.0658436
        k(   11) = (   0.0435281   0.2176403   0.3046964), wk =   0.1316872
        k(   12) = (   0.0435281   0.2176403  -0.3917526), wk =   0.0658436
        k(   13) = (   0.0435281   0.3046964   0.3046964), wk =   0.0658436
        k(   14) = (   0.0435281   0.3046964  -0.3917526), wk =   0.0658436
        k(   15) = (   0.0435281  -0.3917526  -0.3917526), wk =   0.0164609
        k(   16) = (   0.1305842   0.1305842   0.1305842), wk =   0.0219479
        k(   17) = (   0.1305842   0.1305842   0.2176403), wk =   0.0658436
        k(   18) = (   0.1305842   0.1305842   0.3046964), wk =   0.0658436
        k(   19) = (   0.1305842   0.1305842  -0.3917526), wk =   0.0329218
        k(   20) = (   0.1305842   0.2176403   0.2176403), wk =   0.0658436
        k(   21) = (   0.1305842   0.2176403   0.3046964), wk =   0.1316872
        k(   22) = (   0.1305842   0.2176403  -0.3917526), wk =   0.0658436
        k(   23) = (   0.1305842   0.3046964   0.3046964), wk =   0.0658436
        k(   24) = (   0.1305842   0.3046964  -0.3917526), wk =   0.0658436
        k(   25) = (   0.1305842  -0.3917526  -0.3917526), wk =   0.0164609
        k(   26) = (   0.2176403   0.2176403   0.2176403), wk =   0.0219479
        k(   27) = (   0.2176403   0.2176403   0.3046964), wk =   0.0658436
        k(   28) = (   0.2176403   0.2176403  -0.3917526), wk =   0.0329218
        k(   29) = (   0.2176403   0.3046964   0.3046964), wk =   0.0658436
        k(   30) = (   0.2176403   0.3046964  -0.3917526), wk =   0.0658436
        k(   31) = (   0.2176403  -0.3917526  -0.3917526), wk =   0.0164609
        k(   32) = (   0.3046964   0.3046964   0.3046964), wk =   0.0219479
        k(   33) = (   0.3046964   0.3046964  -0.3917526), wk =   0.0329218
        k(   34) = (   0.3046964  -0.3917526  -0.3917526), wk =   0.0164609
        k(   35) = (  -0.3917526  -0.3917526  -0.3917526), wk =   0.0027435

     Dense  grid:   467329 G-vectors     FFT dimensions: ( 100, 100, 100)

     Smooth grid:   251175 G-vectors     FFT dimensions: (  80,  80,  80)

     Estimated max dynamical RAM per process >      72.45 MB

     Estimated total dynamical RAM >       5.09 GB

     Check: negative core charge=   -0.000001

     Initial potential from superposition of free atoms

     starting charge  287.99388, renormalised to  288.00000
     Starting wfcs are  160 randomized atomic wfcs +   13 random wfcs
     Checking if some PAW data can be deallocated... 

     total cpu time spent up to now is        7.8 secs

     Self-consistent Calculation

     iteration #  1     ecut=    71.00 Ry     beta= 0.10
     Davidson diagonalization with overlap
     ethr =  1.00E-02,  avg # of iterations =  3.5

     total cpu time spent up to now is       30.0 secs

     total energy              =   -8191.15146608 Ry
     estimated scf accuracy    <       4.65007015 Ry

     iteration #  2     ecut=    71.00 Ry     beta= 0.10
     Davidson diagonalization with overlap
     ethr =  1.61E-03,  avg # of iterations =  1.1

     total cpu time spent up to now is       43.7 secs

     total energy              =   -8190.13135116 Ry
     estimated scf accuracy    <       2.95973636 Ry

     iteration #  3     ecut=    71.00 Ry     beta= 0.10
     Davidson diagonalization with overlap
     ethr =  1.03E-03,  avg # of iterations =  2.1

     total cpu time spent up to now is       62.0 secs

     total energy              =   -8190.56815046 Ry
     estimated scf accuracy    <       0.08995203 Ry

     iteration #  4     ecut=    71.00 Ry     beta= 0.10
     Davidson diagonalization with overlap
     ethr =  3.12E-05,  avg # of iterations =  4.1

     total cpu time spent up to now is       79.3 secs

     total energy              =   -8190.53350063 Ry
     estimated scf accuracy    <       0.06567318 Ry

     iteration #  5     ecut=    71.00 Ry     beta= 0.10
     Davidson diagonalization with overlap
     ethr =  2.28E-05,  avg # of iterations =  1.5

     total cpu time spent up to now is       91.8 secs

     total energy              =   -8190.53770627 Ry
     estimated scf accuracy    <       0.00528320 Ry

     iteration #  6     ecut=    71.00 Ry     beta= 0.10
     Davidson diagonalization with overlap
     ethr =  1.83E-06,  avg # of iterations =  4.3

     total cpu time spent up to now is      117.2 secs

     total energy              =   -8190.53848760 Ry
     estimated scf accuracy    <       0.00258407 Ry

     iteration #  7     ecut=    71.00 Ry     beta= 0.10
     Davidson diagonalization with overlap
     ethr =  8.97E-07,  avg # of iterations =  1.7

     total cpu time spent up to now is      133.2 secs

     total energy              =   -8190.53947800 Ry
     estimated scf accuracy    <       0.00207160 Ry

     iteration #  8     ecut=    71.00 Ry     beta= 0.10
     Davidson diagonalization with overlap
     ethr =  7.19E-07,  avg # of iterations =  1.6

     total cpu time spent up to now is      146.9 secs

     total energy              =   -8190.53981722 Ry
     estimated scf accuracy    <       0.00023653 Ry

     iteration #  9     ecut=    71.00 Ry     beta= 0.10
     Davidson diagonalization with overlap
     ethr =  8.21E-08,  avg # of iterations =  2.0

     total cpu time spent up to now is      163.6 secs

     total energy              =   -8190.53989506 Ry
     estimated scf accuracy    <       0.00007642 Ry

     iteration # 10     ecut=    71.00 Ry     beta= 0.10
     Davidson diagonalization with overlap
     ethr =  2.65E-08,  avg # of iterations =  2.3

     total cpu time spent up to now is      181.7 secs

     total energy              =   -8190.53986157 Ry
     estimated scf accuracy    <       0.00016618 Ry

     iteration # 11     ecut=    71.00 Ry     beta= 0.10
     Davidson diagonalization with overlap
     ethr =  2.65E-08,  avg # of iterations =  2.0

     total cpu time spent up to now is      202.4 secs

     total energy              =   -8190.53991014 Ry
     estimated scf accuracy    <       0.00001344 Ry

     iteration # 12     ecut=    71.00 Ry     beta= 0.10
     Davidson diagonalization with overlap
     ethr =  4.67E-09,  avg # of iterations =  2.0

     total cpu time spent up to now is      216.9 secs

     total energy              =   -8190.53991561 Ry
     estimated scf accuracy    <       0.00000980 Ry

     iteration # 13     ecut=    71.00 Ry     beta= 0.10
     Davidson diagonalization with overlap
     ethr =  3.40E-09,  avg # of iterations =  1.3

     total cpu time spent up to now is      230.5 secs

     End of self-consistent calculation

          k = 0.0435 0.0435 0.0435 ( 31379 PWs)   bands (ev):

   -75.4882 -75.4864 -75.4864 -75.4864 -75.4862 -75.4862 -75.4862 -75.4862
   -75.4862 -75.4862 -75.4861 -75.4861 -75.4861 -75.4861 -75.4861 -75.4844
   -41.2421 -41.2421 -41.2421 -41.2420 -41.2420 -41.2419 -41.2362 -41.2362
   -41.2359 -41.2296 -41.2293 -41.2293 -41.2293 -41.2283 -41.2283 -41.2274
   -41.2274 -41.2274 -41.2256 -41.2256 -41.2255 -41.2254 -41.2254 -41.2245
   -41.2245 -41.2245 -41.2243 -41.2243 -41.2243 -41.2243 -41.2241 -41.2241
   -41.2241 -41.2234 -41.2234 -41.2234 -41.2225 -41.2225 -41.2225 -41.2131
   -41.2127 -41.2127 -41.2124 -41.2124 -41.2124 -41.2123 -41.2123 -41.2123
     4.0239   5.3699   5.3699   5.3699   5.3765   5.3765   5.3765   5.4997
     5.4997   5.7904   5.7904   5.7904   5.7962   5.7962   5.7962   5.8123
     5.8123   5.8123   5.9194   5.9194   5.9194   5.9466   5.9959   5.9959
     6.0870   6.0870   6.1157   6.1158   6.1158   6.1274   6.1757   6.1757
     6.1918   6.2264   6.2264   6.2264   6.3848   6.3849   6.3849   6.4202
     6.4202   6.4202   6.4585   6.4586   6.4586   6.4917   6.4917   6.4918
     6.6818   6.6818   6.6818   6.7729   6.7729   6.7729   6.8223   6.8223
     6.8223   6.8267   6.8267   6.8268   6.8702   6.8702   6.9005   6.9005
     6.9005   6.9223   6.9223   6.9223   6.9338   6.9338   6.9339   6.9339
     7.2075   7.2309   7.2309   7.3283   7.3284   7.3284   7.3392   7.3392
     7.3392   7.5676   7.5676   7.5677   8.0248   8.0248   8.0248   9.4328
     9.4328   9.4328   9.6812   9.6812   9.6812  11.2193  11.2193  11.2193
    11.4587  11.4587  11.4587  12.0464  12.1443  13.2379  13.4072  13.4072
    14.0923  14.0923  14.1248  14.2294  14.5087

          k = 0.0435 0.0435 0.1306 ( 31378 PWs)   bands (ev):

   -75.4882 -75.4868 -75.4864 -75.4864 -75.4862 -75.4862 -75.4862 -75.4862
   -75.4861 -75.4861 -75.4861 -75.4861 -75.4861 -75.4861 -75.4858 -75.4845
   -41.2418 -41.2418 -41.2416 -41.2415 -41.2413 -41.2413 -41.2363 -41.2358
   -41.2353 -41.2315 -41.2312 -41.2312 -41.2311 -41.2309 -41.2294 -41.2294
   -41.2276 -41.2275 -41.2266 -41.2261 -41.2254 -41.2254 -41.2250 -41.2245
   -41.2245 -41.2245 -41.2243 -41.2240 -41.2240 -41.2234 -41.2234 -41.2231
   -41.2227 -41.2226 -41.2225 -41.2213 -41.2207 -41.2206 -41.2205 -41.2138
   -41.2131 -41.2130 -41.2130 -41.2129 -41.2128 -41.2127 -41.2125 -41.2124
     4.0930   5.3864   5.3865   5.4062   5.4062   5.4068   5.4125   5.5202
     5.5273   5.5998   5.7880   5.7880   5.7915   5.7973   5.8074   5.8074
     5.8247   5.8247   5.8854   5.8922   5.8922   5.9257   5.9374   5.9818
     6.0007   6.0352   6.1171   6.1171   6.1699   6.1782   6.2005   6.2049
     6.2049   6.2096   6.2158   6.2919   6.3096   6.3096   6.3203   6.3747
     6.3748   6.4066   6.4986   6.4986   6.5376   6.5376   6.5451   6.5834
     6.5925   6.7711   6.7711   6.7975   6.7975   6.8133   6.8133   6.8291
     6.8331   6.8417   6.8418   6.8499   6.8589   6.8590   6.8634   6.8783
     6.8981   6.9000   6.9001   6.9230   6.9274   6.9275   6.9332   6.9335
     7.1569   7.1931   7.2246   7.2278   7.2434   7.2666   7.2957   7.2957
     7.3272   7.3272   7.6080   7.6080   8.0885   8.0885   8.6162   9.0267
     9.0267   9.5643   9.5643   9.5949   9.8517  11.2393  11.4913  11.4959
    11.4959  11.7459  12.0006  12.0105  12.0105  12.7547  12.9411  13.5288
    13.8187  14.2229  14.2953  14.3472  14.8066

          k = 0.0435 0.0435 0.2176 ( 31384 PWs)   bands (ev):

   -75.4881 -75.4871 -75.4864 -75.4864 -75.4863 -75.4863 -75.4862 -75.4862
   -75.4861 -75.4861 -75.4861 -75.4861 -75.4861 -75.4861 -75.4855 -75.4846
   -41.2410 -41.2409 -41.2407 -41.2406 -41.2401 -41.2401 -41.2361 -41.2352
   -41.2345 -41.2337 -41.2336 -41.2336 -41.2334 -41.2328 -41.2318 -41.2318
   -41.2294 -41.2285 -41.2270 -41.2261 -41.2253 -41.2253 -41.2247 -41.2247
   -41.2247 -41.2245 -41.2238 -41.2238 -41.2234 -41.2234 -41.2228 -41.2207
   -41.2205 -41.2205 -41.2203 -41.2193 -41.2187 -41.2187 -41.2186 -41.2149
   -41.2138 -41.2138 -41.2137 -41.2137 -41.2136 -41.2133 -41.2130 -41.2130
     4.2297   5.3070   5.4252   5.4252   5.4580   5.4580   5.4771   5.4808
     5.5607   5.5800   5.7279   5.7279   5.7947   5.8009   5.8166   5.8166
     5.8298   5.8464   5.8464   5.8742   5.8749   5.8750   5.8897   5.8966
     5.9090   5.9591   6.1647   6.1647   6.1711   6.1719   6.1719   6.1842
     6.2514   6.2664   6.2694   6.2735   6.2735   6.2808   6.2809   6.3365
     6.3366   6.4899   6.5071   6.5972   6.5972   6.6040   6.6040   6.6458
     6.6883   6.7095   6.7095   6.7625   6.7625   6.7979   6.7979   6.8099
     6.8419   6.8452   6.8533   6.8533   6.8808   6.8808   6.8872   6.8944
     6.9151   6.9152   6.9244   6.9319   6.9331   6.9502   6.9654   6.9654
     7.0562   7.0797   7.0928   7.0975   7.1224   7.2028   7.2429   7.2429
     7.2925   7.2925   7.6932   7.6932   8.2141   8.2141   8.6305   8.6305
     9.2531   9.2531   9.3094   9.8768  10.1575  11.2819  11.3878  11.5619
    11.7904  12.1110  12.1110  12.1385  12.5195  12.6766  12.7080  12.7080
    14.4223  14.5158  14.5772  14.7458  15.5456

          k = 0.0435 0.0435 0.3047 ( 31384 PWs)   bands (ev):

   -75.4879 -75.4874 -75.4864 -75.4864 -75.4863 -75.4863 -75.4862 -75.4861
   -75.4861 -75.4861 -75.4861 -75.4861 -75.4861 -75.4861 -75.4852 -75.4847
   -41.2396 -41.2396 -41.2394 -41.2393 -41.2385 -41.2384 -41.2359 -41.2359
   -41.2358 -41.2357 -41.2356 -41.2343 -41.2342 -41.2341 -41.2340 -41.2333
   -41.2312 -41.2303 -41.2264 -41.2258 -41.2252 -41.2252 -41.2252 -41.2249
   -41.2249 -41.2249 -41.2237 -41.2237 -41.2235 -41.2235 -41.2206 -41.2185
   -41.2184 -41.2184 -41.2183 -41.2176 -41.2170 -41.2168 -41.2168 -41.2166
   -41.2150 -41.2150 -41.2149 -41.2149 -41.2147 -41.2142 -41.2139 -41.2139
     4.4302   4.9882   5.4841   5.4841   5.5299   5.5299   5.5737   5.5741
     5.6199   5.6449   5.6449   5.6527   5.7177   5.7177   5.7681   5.7870
     5.8018   5.8047   5.8102   5.8235   5.8384   5.8800   5.9060   5.9061
     5.9453   5.9454   6.0763   6.0763   6.1304   6.1304   6.1797   6.1948
     6.2254   6.2368   6.2991   6.3040   6.3040   6.3785   6.3785   6.4283
     6.4927   6.4935   6.5776   6.5776   6.5873   6.6550   6.6550   6.6669
     6.6669   6.6855   6.6855   6.7514   6.7567   6.7628   6.7628   6.8017
     6.8083   6.8083   6.8233   6.8592   6.8614   6.8633   6.8982   6.8987
     6.9187   6.9262   6.9302   6.9338   6.9693   6.9818   6.9881   6.9882
     7.0066   7.0272   7.0304   7.0687   7.0687   7.1596   7.1723   7.1723
     7.2362   7.2363   7.8307   7.8307   8.2941   8.2941   8.3983   8.3983
     8.9270   8.9270  10.0803  10.2307  10.5602  11.0101  11.3523  11.5629
    11.6027  11.6824  11.7853  12.1483  12.8767  12.8767  13.4976  13.4977
    14.6482  14.6482  15.1385  15.2768  15.2771

          k = 0.0435 0.0435-0.3918 ( 31388 PWs)   bands (ev):

   -75.4877 -75.4877 -75.4863 -75.4863 -75.4863 -75.4863 -75.4862 -75.4862
   -75.4861 -75.4861 -75.4861 -75.4861 -75.4861 -75.4861 -75.4849 -75.4849
   -41.2379 -41.2379 -41.2379 -41.2379 -41.2377 -41.2377 -41.2377 -41.2377
   -41.2365 -41.2365 -41.2365 -41.2365 -41.2349 -41.2349 -41.2328 -41.2328
   -41.2319 -41.2318 -41.2259 -41.2259 -41.2254 -41.2254 -41.2251 -41.2251
   -41.2251 -41.2251 -41.2236 -41.2236 -41.2236 -41.2236 -41.2185 -41.2185
   -41.2166 -41.2166 -41.2166 -41.2166 -41.2165 -41.2165 -41.2165 -41.2165
   -41.2161 -41.2161 -41.2154 -41.2154 -41.2152 -41.2152 -41.2151 -41.2151
     4.6875   4.6875   5.5595   5.5595   5.5595   5.5595   5.6184   5.6184
     5.6184   5.6184   5.6776   5.6776   5.6877   5.6877   5.6961   5.6961
     5.7375   5.7375   5.8153   5.8153   5.8316   5.8316   5.9840   5.9840
     5.9840   5.9840   6.0329   6.0329   6.0329   6.0329   6.1972   6.1972
     6.2118   6.2118   6.3584   6.3584   6.4345   6.4345   6.4345   6.4345
     6.5158   6.5158   6.5158   6.5158   6.6650   6.6650   6.6708   6.6708
     6.6762   6.6762   6.7199   6.7199   6.7200   6.7200   6.7555   6.7555
     6.7555   6.7555   6.8713   6.8713   6.8787   6.8787   6.8800   6.8800
     6.9172   6.9172   6.9282   6.9282   6.9389   6.9389   6.9535   6.9535
     7.0864   7.0864   7.0864   7.0864   7.1011   7.1011   7.1605   7.1605
     7.1605   7.1606   8.0285   8.0285   8.0285   8.0285   8.6376   8.6376
     8.6376   8.6376  10.6185  10.6185  10.9114  10.9114  11.0338  11.0338
    11.4570  11.4570  11.8711  11.8711  13.7306  13.7306  13.7306  13.7306
    14.3583  14.3583  14.3583  14.3583  15.2429

          k = 0.0435 0.1306 0.1306 ( 31387 PWs)   bands (ev):

   -75.4881 -75.4867 -75.4867 -75.4864 -75.4863 -75.4862 -75.4862 -75.4861
   -75.4861 -75.4861 -75.4861 -75.4861 -75.4861 -75.4858 -75.4858 -75.4845
   -41.2417 -41.2413 -41.2413 -41.2409 -41.2409 -41.2403 -41.2366 -41.2356
   -41.2345 -41.2330 -41.2330 -41.2328 -41.2324 -41.2317 -41.2306 -41.2281
   -41.2274 -41.2274 -41.2272 -41.2272 -41.2256 -41.2255 -41.2251 -41.2247
   -41.2247 -41.2247 -41.2246 -41.2241 -41.2241 -41.2235 -41.2234 -41.2221
   -41.2214 -41.2214 -41.2214 -41.2210 -41.2196 -41.2188 -41.2188 -41.2146
   -41.2138 -41.2134 -41.2133 -41.2133 -41.2129 -41.2129 -41.2127 -41.2123
     4.1613   5.3872   5.4232   5.4232   5.4405   5.4405   5.4464   5.5430
     5.5520   5.5972   5.5972   5.7771   5.8081   5.8081   5.8126   5.8252
     5.8252   5.8312   5.8642   5.8847   5.8858   5.9168   5.9168   5.9900
     6.0195   6.0195   6.0715   6.0843   6.1512   6.1544   6.1784   6.2189
     6.2265   6.2265   6.2346   6.2547   6.2858   6.2858   6.3276   6.3685
     6.4549   6.4549   6.4910   6.4910   6.5094   6.5470   6.5987   6.5987
     6.6837   6.6838   6.7432   6.7776   6.8037   6.8038   6.8149   6.8203
     6.8203   6.8353   6.8353   6.8373   6.8459   6.8723   6.8963   6.8963
     6.9097   6.9179   6.9229   6.9233   6.9307   6.9318   6.9454   6.9454
     7.0871   7.1643   7.1927   7.1927   7.2379   7.2425   7.2431   7.2431
     7.2806   7.2806   7.3356   7.6611   8.1603   8.5131   8.6947   8.6947
     9.1802   9.1802   9.7156   9.7156   9.9556  11.2697  11.3215  11.5303
    11.5303  11.7996  12.0544  12.0544  12.6523  12.8632  13.1797  13.4963
    13.5581  13.8166  14.2363  14.4407  15.2321

          k = 0.0435 0.1306 0.2176 ( 31386 PWs)   bands (ev):

   -75.4880 -75.4871 -75.4867 -75.4864 -75.4864 -75.4863 -75.4862 -75.4861
   -75.4861 -75.4861 -75.4861 -75.4861 -75.4860 -75.4858 -75.4855 -75.4846
   -41.2413 -41.2406 -41.2405 -41.2401 -41.2398 -41.2388 -41.2367 -41.2351
   -41.2349 -41.2344 -41.2344 -41.2342 -41.2336 -41.2332 -41.2325 -41.2297
   -41.2293 -41.2276 -41.2272 -41.2267 -41.2257 -41.2256 -41.2255 -41.2251
   -41.2249 -41.2249 -41.2243 -41.2239 -41.2236 -41.2229 -41.2224 -41.2216
   -41.2202 -41.2197 -41.2196 -41.2194 -41.2181 -41.2171 -41.2170 -41.2163
   -41.2150 -41.2141 -41.2140 -41.2140 -41.2137 -41.2133 -41.2128 -41.2125
     4.2959   5.3315   5.4071   5.4607   5.4899   5.4928   5.5045   5.5057
     5.5789   5.5824   5.6042   5.7352   5.7831   5.8111   5.8284   5.8291
     5.8345   5.8397   5.8464   5.8499   5.8726   5.8738   5.9250   5.9317
     5.9548   6.0226   6.0894   6.0900   6.1203   6.1311   6.1373   6.1838
     6.1888   6.2721   6.3051   6.3133   6.3173   6.3177   6.3236   6.3243
     6.3401   6.5394   6.5494   6.5838   6.5927   6.5971   6.6022   6.6215
     6.6233   6.6835   6.7049   6.7479   6.7658   6.7908   6.7959   6.7969
     6.7993   6.8142   6.8311   6.8328   6.8425   6.8782   6.8840   6.8949
     6.9106   6.9108   6.9163   6.9301   6.9335   6.9803   6.9945   7.0269
     7.0427   7.0460   7.0948   7.0954   7.1166   7.1525   7.1716   7.2212
     7.2326   7.3147   7.3202   7.7692   8.0750   8.2987   8.7795   8.8457
     9.3862   9.3966   9.4408   9.9089   9.9825  10.8999  11.4489  11.6048
    11.6149  12.1463  12.1576  12.5726  12.7555  12.7658  13.0511  13.3811
    13.8982  14.0013  14.5958  15.0364  15.4725

          k = 0.0435 0.1306 0.3047 ( 31357 PWs)   bands (ev):

   -75.4878 -75.4873 -75.4866 -75.4865 -75.4864 -75.4863 -75.4862 -75.4862
   -75.4861 -75.4861 -75.4861 -75.4861 -75.4859 -75.4858 -75.4852 -75.4848
   -41.2403 -41.2393 -41.2391 -41.2390 -41.2383 -41.2371 -41.2369 -41.2366
   -41.2360 -41.2360 -41.2357 -41.2354 -41.2345 -41.2339 -41.2322 -41.2318
   -41.2311 -41.2286 -41.2271 -41.2269 -41.2261 -41.2256 -41.2255 -41.2253
   -41.2252 -41.2247 -41.2238 -41.2236 -41.2226 -41.2225 -41.2218 -41.2202
   -41.2182 -41.2182 -41.2180 -41.2178 -41.2178 -41.2165 -41.2164 -41.2156
   -41.2153 -41.2151 -41.2150 -41.2150 -41.2149 -41.2141 -41.2134 -41.2130
     4.4926   5.0322   5.4433   5.5169   5.5400   5.5586   5.5813   5.5869
     5.5875   5.6386   5.6652   5.6771   5.7347   5.7375   5.7618   5.7772
     5.7917   5.8194   5.8425   5.8496   5.8871   5.8876   5.9043   5.9397
     5.9435   6.0050   6.0369   6.0578   6.0805   6.1327   6.1576   6.1744
     6.1946   6.2403   6.2463   6.3360   6.3654   6.3773   6.4343   6.4504
     6.4543   6.4826   6.5127   6.5723   6.6168   6.6473   6.6529   6.6568
     6.6662   6.6683   6.6904   6.7167   6.7169   6.7293   6.7617   6.7653
     6.7776   6.7856   6.7963   6.8422   6.8479   6.8536   6.8868   6.8922
     6.8931   6.9048   6.9081   6.9308   6.9401   6.9516   6.9877   6.9980
     7.0019   7.0099   7.0535   7.0901   7.1000   7.1048   7.1407   7.1795
     7.2062   7.2814   7.3842   7.7395   7.9333   8.4354   8.4967   9.0483
     9.0597   9.6267   9.7631  10.1729  10.3216  10.5000  11.0769  11.7313
    11.8819  12.2104  12.2926  12.3206  12.7648  12.9257  13.5441  14.0753
    14.1811  14.1817  14.6812  14.7074  14.9832

          k = 0.0435 0.1306-0.3918 ( 31340 PWs)   bands (ev):

   -75.4876 -75.4876 -75.4866 -75.4866 -75.4863 -75.4863 -75.4862 -75.4862
   -75.4861 -75.4861 -75.4861 -75.4861 -75.4859 -75.4859 -75.4850 -75.4850
   -41.2389 -41.2388 -41.2377 -41.2377 -41.2376 -41.2376 -41.2376 -41.2376
   -41.2365 -41.2365 -41.2362 -41.2361 -41.2347 -41.2347 -41.2326 -41.2326
   -41.2302 -41.2302 -41.2265 -41.2265 -41.2263 -41.2263 -41.2253 -41.2253
   -41.2250 -41.2250 -41.2237 -41.2237 -41.2221 -41.2221 -41.2204 -41.2204
   -41.2182 -41.2182 -41.2164 -41.2164 -41.2164 -41.2164 -41.2163 -41.2163
   -41.2163 -41.2163 -41.2152 -41.2151 -41.2143 -41.2143 -41.2139 -41.2139
     4.7432   4.7432   5.4905   5.4905   5.5877   5.5877   5.6432   5.6432
     5.6690   5.6690   5.6708   5.6708   5.6906   5.6906   5.7097   5.7097
     5.7623   5.7623   5.8401   5.8401   5.8775   5.8775   5.9543   5.9543
     5.9779   5.9779   6.0157   6.0157   6.1001   6.1001   6.1391   6.1391
     6.2129   6.2129   6.3422   6.3422   6.4349   6.4349   6.4376   6.4376
     6.5044   6.5044   6.5837   6.5837   6.6019   6.6019   6.6117   6.6117
     6.6845   6.6845   6.6942   6.6942   6.7215   6.7215   6.7407   6.7407
     6.7716   6.7717   6.7744   6.7744   6.8701   6.8701   6.8731   6.8731
     6.8951   6.8951   6.9343   6.9343   6.9434   6.9434   6.9586   6.9586
     7.0024   7.0024   7.0499   7.0499   7.1218   7.1218   7.1609   7.1609
     7.2207   7.2207   7.5153   7.5153   8.1544   8.1544   8.7482   8.7482
     9.3258   9.3258  10.1203  10.1203  10.6959  10.6959  11.0072  11.0072
    11.9274  11.9274  12.4997  12.4997  13.1613  13.1613  13.7757  13.7757
    14.3993  14.3993  14.5485  14.5486  15.0449

          k = 0.0435 0.2176 0.2176 ( 31366 PWs)   bands (ev):

   -75.4879 -75.4870 -75.4870 -75.4866 -75.4864 -75.4862 -75.4862 -75.4862
   -75.4861 -75.4861 -75.4861 -75.4861 -75.4859 -75.4855 -75.4855 -75.4847
   -41.2412 -41.2398 -41.2398 -41.2392 -41.2392 -41.2373 -41.2370 -41.2363
   -41.2363 -41.2353 -41.2351 -41.2346 -41.2343 -41.2336 -41.2318 -41.2290
   -41.2290 -41.2278 -41.2274 -41.2274 -41.2264 -41.2259 -41.2254 -41.2253
   -41.2253 -41.2245 -41.2244 -41.2241 -41.2241 -41.2237 -41.2221 -41.2199
   -41.2198 -41.2191 -41.2186 -41.2183 -41.2182 -41.2171 -41.2164 -41.2155
   -41.2154 -41.2146 -41.2145 -41.2145 -41.2140 -41.2140 -41.2126 -41.2123
     4.4258   5.3667   5.3667   5.4014   5.5264   5.5264   5.5473   5.5473
     5.5662   5.6187   5.6560   5.7275   5.7466   5.7907   5.8167   5.8332
     5.8332   5.8493   5.8493   5.8545   5.8764   5.8764   5.9830   5.9953
     6.0046   6.0046   6.0472   6.0476   6.0833   6.0980   6.0981   6.1057
     6.1899   6.3162   6.3174   6.3174   6.3191   6.3247   6.3354   6.3721
     6.4298   6.4298   6.5032   6.6119   6.6119   6.6127   6.6292   6.6706
     6.6706   6.6794   6.6794   6.7093   6.7093   6.7097   6.7472   6.7472
     6.7950   6.8081   6.8081   6.8094   6.8258   6.8258   6.8764   6.8879
     6.8978   6.8986   6.9102   6.9313   6.9374   6.9557   7.0054   7.0287
     7.0404   7.0404   7.0779   7.0913   7.0913   7.1176   7.1176   7.1183
     7.1183   7.2510   7.3249   7.6113   7.9131   8.4569   9.0276   9.0276
     9.5635   9.5635   9.6200   9.6200  10.4308  10.4536  11.0232  11.3791
    12.2542  12.2542  12.8170  12.8522  12.8523  12.9667  13.1730  13.4324
    13.8552  14.1226  14.5128  14.5128  14.5209

          k = 0.0435 0.2176 0.3047 ( 31353 PWs)   bands (ev):

   -75.4877 -75.4873 -75.4869 -75.4867 -75.4863 -75.4863 -75.4862 -75.4862
   -75.4861 -75.4861 -75.4861 -75.4861 -75.4857 -75.4856 -75.4853 -75.4849
   -41.2404 -41.2388 -41.2387 -41.2384 -41.2380 -41.2379 -41.2375 -41.2370
   -41.2363 -41.2363 -41.2359 -41.2351 -41.2349 -41.2333 -41.2306 -41.2301
   -41.2299 -41.2285 -41.2274 -41.2272 -41.2265 -41.2260 -41.2260 -41.2256
   -41.2251 -41.2250 -41.2245 -41.2241 -41.2239 -41.2222 -41.2214 -41.2204
   -41.2202 -41.2182 -41.2181 -41.2176 -41.2173 -41.2171 -41.2161 -41.2155
   -41.2152 -41.2152 -41.2150 -41.2145 -41.2142 -41.2141 -41.2128 -41.2126
     4.6138   5.1107   5.3938   5.4032   5.5748   5.6071   5.6100   5.6158
     5.6357   5.6670   5.6890   5.7146   5.7308   5.7477   5.7573   5.7766
     5.7845   5.8620   5.8898   5.8934   5.9065   5.9136   5.9371   5.9504
     6.0035   6.0144   6.0367   6.0415   6.0790   6.0837   6.0841   6.1064
     6.2043   6.2731   6.3085   6.3499   6.3535   6.3701   6.3899   6.3999
     6.4341   6.4475   6.5347   6.5477   6.6045   6.6133   6.6176   6.6506
     6.6626   6.6646   6.6733   6.6806   6.6821   6.6884   6.7467   6.7602
     6.7705   6.7758   6.7763   6.7879   6.8225   6.8277   6.8337   6.8593
     6.8782   6.8784   6.8913   6.9362   6.9394   6.9489   6.9732   6.9812
     6.9840   6.9875   7.0282   7.0300   7.0367   7.0944   7.0997   7.1784
     7.2001   7.2476   7.2846   7.3060   8.1139   8.6688   8.6755   9.2627
     9.3329   9.7978   9.9186  10.0474  10.3505  10.3766  10.6266  11.8384
    12.0676  12.4059  12.8595  12.9995  13.0240  13.2940  13.3957  13.5577
    13.6358  14.0431  14.3514  14.7190  14.9663

          k = 0.0435 0.2176-0.3918 ( 31346 PWs)   bands (ev):

   -75.4875 -75.4875 -75.4868 -75.4868 -75.4863 -75.4863 -75.4862 -75.4862
   -75.4861 -75.4861 -75.4861 -75.4861 -75.4857 -75.4857 -75.4850 -75.4850
   -41.2394 -41.2394 -41.2375 -41.2375 -41.2374 -41.2374 -41.2374 -41.2374
   -41.2374 -41.2374 -41.2366 -41.2366 -41.2325 -41.2325 -41.2321 -41.2321
   -41.2283 -41.2283 -41.2279 -41.2279 -41.2267 -41.2267 -41.2259 -41.2259
   -41.2248 -41.2248 -41.2240 -41.2240 -41.2227 -41.2227 -41.2208 -41.2208
   -41.2201 -41.2201 -41.2168 -41.2168 -41.2162 -41.2162 -41.2161 -41.2161
   -41.2161 -41.2161 -41.2152 -41.2152 -41.2133 -41.2133 -41.2131 -41.2131
     4.8488   4.8488   5.4041   5.4041   5.6323   5.6323   5.6747   5.6747
     5.6801   5.6801   5.6900   5.6900   5.7083   5.7083   5.7245   5.7246
     5.8198   5.8198   5.8958   5.8958   5.9377   5.9377   5.9439   5.9439
     5.9757   5.9757   5.9986   5.9986   6.0747   6.0747   6.1809   6.1809
     6.2313   6.2313   6.2422   6.2422   6.4261   6.4261   6.4611   6.4611
     6.5101   6.5101   6.5136   6.5136   6.5300   6.5300   6.6168   6.6168
     6.6504   6.6504   6.6660   6.6660   6.7237   6.7237   6.7328   6.7328
     6.7361   6.7361   6.7615   6.7616   6.8409   6.8409   6.8532   6.8532
     6.8552   6.8552   6.9194   6.9194   6.9247   6.9247   6.9469   6.9469
     6.9749   6.9749   7.0119   7.0119   7.0701   7.0702   7.1325   7.1325
     7.2226   7.2226   7.2639   7.2639   8.3656   8.3656   8.9456   8.9456
     9.6748   9.6748  10.0828  10.0828  10.2580  10.2580  11.1923  11.1923
    12.6147  12.6147  12.6494  12.6494  13.1923  13.1923  13.6324  13.6324
    13.8603  13.8603  14.4745  14.4745  15.1205

          k = 0.0435 0.3047 0.3047 ( 31343 PWs)   bands (ev):

   -75.4876 -75.4872 -75.4872 -75.4869 -75.4863 -75.4863 -75.4863 -75.4862
   -75.4861 -75.4861 -75.4861 -75.4861 -75.4856 -75.4853 -75.4853 -75.4850
   -41.2402 -41.2384 -41.2384 -41.2381 -41.2381 -41.2381 -41.2375 -41.2375
   -41.2367 -41.2367 -41.2365 -41.2358 -41.2326 -41.2324 -41.2301 -41.2300
   -41.2283 -41.2282 -41.2276 -41.2275 -41.2273 -41.2264 -41.2263 -41.2263
   -41.2248 -41.2244 -41.2244 -41.2244 -41.2243 -41.2241 -41.2227 -41.2204
   -41.2200 -41.2188 -41.2187 -41.2167 -41.2166 -41.2165 -41.2165 -41.2157
   -41.2156 -41.2155 -41.2151 -41.2151 -41.2132 -41.2132 -41.2125 -41.2124
     4.7852   5.2043   5.2043   5.3555   5.6402   5.6402   5.6568   5.6568
     5.6880   5.6923   5.7009   5.7027   5.7227   5.7460   5.7650   5.7650
     5.8098   5.9118   5.9233   5.9233   5.9527   5.9527   5.9828   6.0076
     6.0076   6.0089   6.0089   6.0221   6.0256   6.0296   6.0454   6.1792
     6.2297   6.2466   6.3384   6.3526   6.3607   6.3607   6.3628   6.3789
     6.4094   6.4094   6.4926   6.4927   6.5131   6.5131   6.5372   6.6469
     6.6673   6.7052   6.7052   6.7097   6.7118   6.7119   6.7160   6.7332
     6.7333   6.7524   6.7790   6.7880   6.7980   6.7980   6.8010   6.8010
     6.8550   6.8560   6.8585   6.8827   6.9006   6.9451   6.9576   6.9576
     6.9627   6.9833   6.9833   6.9875   6.9999   7.0283   7.0313   7.0313
     7.2432   7.2432   7.2686   7.3083   8.3497   8.9155   8.9565   8.9565
     9.5401   9.5401   9.6444  10.2241  10.6005  10.6005  11.0350  11.5645
    12.2619  12.4478  13.0959  13.0959  13.1681  13.1681  13.3385  13.7664
    13.7664  13.8635  14.2896  14.5792  14.9401

          k = 0.0435 0.3047-0.3918 ( 31334 PWs)   bands (ev):

   -75.4874 -75.4874 -75.4870 -75.4870 -75.4863 -75.4863 -75.4862 -75.4862
   -75.4861 -75.4861 -75.4861 -75.4861 -75.4855 -75.4855 -75.4851 -75.4851
   -41.2396 -41.2395 -41.2385 -41.2385 -41.2373 -41.2373 -41.2373 -41.2372
   -41.2371 -41.2371 -41.2367 -41.2367 -41.2313 -41.2313 -41.2301 -41.2301
   -41.2293 -41.2293 -41.2269 -41.2269 -41.2264 -41.2264 -41.2264 -41.2263
   -41.2251 -41.2251 -41.2246 -41.2246 -41.2242 -41.2242 -41.2221 -41.2221
   -41.2195 -41.2195 -41.2175 -41.2175 -41.2160 -41.2160 -41.2160 -41.2160
   -41.2159 -41.2159 -41.2154 -41.2154 -41.2127 -41.2127 -41.2126 -41.2126
     4.9909   4.9909   5.2902   5.2902   5.6714   5.6714   5.6882   5.6882
     5.6912   5.6912   5.7047   5.7047   5.7325   5.7325   5.7361   5.7361
     5.9053   5.9053   5.9522   5.9522   5.9596   5.9596   5.9884   5.9884
     5.9932   5.9932   6.0022   6.0022   6.0196   6.0196   6.1219   6.1219
     6.2807   6.2807   6.2893   6.2893   6.3948   6.3948   6.3954   6.3954
     6.4139   6.4139   6.4222   6.4222   6.5243   6.5243   6.5281   6.5281
     6.6323   6.6323   6.6757   6.6757   6.7539   6.7539   6.7570   6.7570
     6.7572   6.7572   6.7592   6.7592   6.7751   6.7751   6.8270   6.8270
     6.8273   6.8273   6.8454   6.8454   6.9021   6.9022   6.9324   6.9324
     6.9589   6.9589   6.9868   6.9868   6.9873   6.9873   7.0284   7.0284
     7.2668   7.2668   7.2872   7.2872   8.6305   8.6305   9.2050   9.2050
     9.2825   9.2825   9.8627   9.8627  10.9000  10.9000  11.4560  11.4560
    12.1953  12.1953  12.6942  12.6943  13.3315  13.3315  13.9011  13.9011
    13.9549  13.9549  14.5499  14.5499  14.8391

          k = 0.0435-0.3918-0.3918 ( 31300 PWs)   bands (ev):

   -75.4872 -75.4872 -75.4872 -75.4872 -75.4863 -75.4863 -75.4863 -75.4863
   -75.4861 -75.4861 -75.4861 -75.4861 -75.4853 -75.4853 -75.4853 -75.4853
   -41.2392 -41.2392 -41.2391 -41.2391 -41.2372 -41.2372 -41.2371 -41.2371
   -41.2369 -41.2369 -41.2368 -41.2368 -41.2304 -41.2304 -41.2303 -41.2303
   -41.2276 -41.2276 -41.2276 -41.2276 -41.2269 -41.2269 -41.2268 -41.2268
   -41.2245 -41.2245 -41.2245 -41.2245 -41.2243 -41.2243 -41.2242 -41.2242
   -41.2184 -41.2184 -41.2183 -41.2183 -41.2159 -41.2159 -41.2159 -41.2159
   -41.2156 -41.2156 -41.2156 -41.2156 -41.2124 -41.2124 -41.2124 -41.2124
     5.1469   5.1469   5.1469   5.1469   5.6891   5.6891   5.6891   5.6891
     5.7034   5.7034   5.7034   5.7034   5.7406   5.7406   5.7406   5.7406
     5.9780   5.9780   5.9780   5.9780   5.9966   5.9966   5.9966   5.9966
     6.0095   6.0095   6.0095   6.0095   6.0151   6.0151   6.0152   6.0152
     6.3633   6.3633   6.3633   6.3633   6.3795   6.3795   6.3795   6.3795
     6.3805   6.3805   6.3805   6.3805   6.4019   6.4019   6.4019   6.4019
     6.7150   6.7150   6.7150   6.7150   6.7398   6.7398   6.7398   6.7398
     6.7684   6.7684   6.7684   6.7684   6.7919   6.7919   6.7919   6.7919
     6.7941   6.7941   6.7941   6.7941   6.8910   6.8910   6.8911   6.8911
     6.9710   6.9710   6.9710   6.9710   7.0024   7.0024   7.0024   7.0025
     7.2886   7.2886   7.2886   7.2886   8.9363   8.9363   8.9363   8.9363
     9.5122   9.5122   9.5122   9.5122  11.7200  11.7200  11.7200  11.7200
    11.8500  11.8500  11.8500  11.8500  13.8817  13.8818  13.8818  13.8818
    14.4470  14.8473  14.8482  14.8484  14.8487

          k = 0.1306 0.1306 0.1306 ( 31346 PWs)   bands (ev):

   -75.4881 -75.4867 -75.4867 -75.4867 -75.4863 -75.4863 -75.4863 -75.4862
   -75.4861 -75.4861 -75.4861 -75.4861 -75.4858 -75.4858 -75.4858 -75.4846
   -41.2414 -41.2413 -41.2413 -41.2399 -41.2399 -41.2399 -41.2362 -41.2362
   -41.2340 -41.2339 -41.2339 -41.2339 -41.2334 -41.2306 -41.2306 -41.2285
   -41.2285 -41.2285 -41.2277 -41.2276 -41.2276 -41.2253 -41.2253 -41.2253
   -41.2235 -41.2235 -41.2235 -41.2232 -41.2232 -41.2232 -41.2231 -41.2231
   -41.2215 -41.2214 -41.2214 -41.2198 -41.2179 -41.2178 -41.2178 -41.2158
   -41.2140 -41.2140 -41.2140 -41.2129 -41.2129 -41.2128 -41.2127 -41.2127
     4.2287   5.4258   5.4258   5.4258   5.4780   5.4780   5.4780   5.5709
     5.5709   5.6024   5.6024   5.6024   5.7834   5.8129   5.8129   5.8129
     5.8634   5.8634   5.8634   5.9270   5.9270   5.9313   5.9313   5.9313
     5.9958   5.9958   5.9958   6.1523   6.1523   6.1718   6.1718   6.1894
     6.1894   6.1894   6.2406   6.2666   6.2666   6.2667   6.2995   6.4061
     6.4061   6.4061   6.5194   6.5194   6.5194   6.6186   6.6186   6.6186
     6.7319   6.7319   6.7319   6.7668   6.7668   6.7668   6.7888   6.7888
     6.7888   6.8216   6.8216   6.8217   6.8550   6.8550   6.9184   6.9185
     6.9185   6.9229   6.9229   6.9256   6.9256   6.9848   6.9848   6.9848
     7.0033   7.1186   7.1186   7.1186   7.2002   7.2002   7.2651   7.2651
     7.2651   7.3069   7.3069   7.3069   8.6778   8.6778   8.6778   8.7769
     8.7769   8.7769  10.1100  10.1100  10.1100  10.8405  11.2920  11.2920
    11.2920  12.0222  12.6993  12.6993  12.6993  12.9141  12.9141  13.4723
    13.5047  13.9289  13.9289  14.9449  14.9449

          k = 0.1306 0.1306 0.2176 ( 31378 PWs)   bands (ev):

   -75.4879 -75.4870 -75.4867 -75.4867 -75.4864 -75.4864 -75.4863 -75.4862
   -75.4861 -75.4861 -75.4860 -75.4860 -75.4858 -75.4858 -75.4855 -75.4847
   -41.2408 -41.2408 -41.2404 -41.2394 -41.2386 -41.2386 -41.2366 -41.2355
   -41.2355 -41.2355 -41.2352 -41.2350 -41.2331 -41.2320 -41.2305 -41.2305
   -41.2296 -41.2296 -41.2277 -41.2277 -41.2263 -41.2259 -41.2259 -41.2259
   -41.2253 -41.2236 -41.2236 -41.2229 -41.2229 -41.2215 -41.2215 -41.2215
   -41.2215 -41.2206 -41.2195 -41.2185 -41.2176 -41.2165 -41.2165 -41.2164
   -41.2150 -41.2150 -41.2146 -41.2138 -41.2137 -41.2130 -41.2129 -41.2129
     4.3615   5.3595   5.4466   5.4466   5.4993   5.5347   5.5347   5.5354
     5.5967   5.5967   5.6081   5.6240   5.7451   5.8146   5.8395   5.8395
     5.8664   5.8770   5.8771   5.8811   5.9025   5.9107   5.9179   5.9204
     5.9204   6.0378   6.0378   6.0961   6.1209   6.1209   6.1307   6.1550
     6.1918   6.2010   6.2856   6.2856   6.2890   6.2891   6.3359   6.3359
     6.3599   6.4673   6.5709   6.5901   6.5901   6.6115   6.6115   6.6454
     6.6454   6.6883   6.7027   6.7118   6.7614   6.7614   6.7974   6.7974
     6.8092   6.8209   6.8344   6.8602   6.8602   6.8725   6.8809   6.8809
     6.8991   6.9095   6.9115   6.9193   6.9229   6.9321   6.9351   7.0480
     7.0480   7.0484   7.0484   7.0570   7.0981   7.1302   7.1560   7.2133
     7.2602   7.2603   7.3700   7.3700   8.2519   8.2519   8.9337   8.9337
     8.9428   9.4847  10.0379  10.0379  10.3935  10.3964  11.3393  11.6553
    11.6553  11.8768  12.3080  12.7953  12.8467  13.4278  13.4278  13.4685
    13.5610  13.8845  14.1477  15.0438  15.0438

          k = 0.1306 0.1306 0.3047 ( 31368 PWs)   bands (ev):

   -75.4878 -75.4873 -75.4866 -75.4866 -75.4865 -75.4865 -75.4863 -75.4862
   -75.4861 -75.4861 -75.4859 -75.4859 -75.4858 -75.4858 -75.4852 -75.4848
   -41.2399 -41.2399 -41.2391 -41.2386 -41.2371 -41.2371 -41.2369 -41.2368
   -41.2368 -41.2363 -41.2360 -41.2354 -41.2344 -41.2327 -41.2326 -41.2314
   -41.2305 -41.2286 -41.2274 -41.2274 -41.2272 -41.2265 -41.2265 -41.2265
   -41.2240 -41.2238 -41.2238 -41.2225 -41.2225 -41.2218 -41.2218 -41.2196
   -41.2196 -41.2196 -41.2185 -41.2176 -41.2172 -41.2164 -41.2163 -41.2152
   -41.2152 -41.2152 -41.2151 -41.2149 -41.2148 -41.2134 -41.2134 -41.2133
     4.5548   5.0778   5.4821   5.4821   5.5689   5.5689   5.6000   5.6053
     5.6083   5.6083   5.6622   5.6965   5.7106   5.7879   5.7879   5.8126
     5.8196   5.8287   5.8498   5.8596   5.8836   5.8869   5.8869   5.9914
     5.9915   6.0074   6.0339   6.0339   6.0927   6.0927   6.1209   6.1525
     6.1603   6.1809   6.2914   6.2914   6.3862   6.3863   6.4015   6.4168
     6.4309   6.4780   6.4780   6.5578   6.5998   6.6402   6.6422   6.6704
     6.6704   6.6740   6.6740   6.7021   6.7022   6.7327   6.7327   6.7399
     6.7718   6.7842   6.8085   6.8086   6.8179   6.8356   6.8520   6.8903
     6.8918   6.8982   6.9205   6.9224   6.9322   6.9322   6.9478   6.9914
     7.0100   7.0100   7.0364   7.0517   7.1180   7.1180   7.1205   7.2025
     7.2312   7.2312   7.4851   7.4852   7.9153   7.9153   9.1540   9.1540
     9.2608   9.7370   9.7370   9.9887  10.2645  10.7748  11.4165  11.6858
    11.7446  11.9745  12.3720  12.3720  12.9426  13.3711  14.1156  14.1156
    14.1255  14.2008  14.2258  14.2258  14.4626

          k = 0.1306 0.1306-0.3918 ( 31336 PWs)   bands (ev):

   -75.4876 -75.4876 -75.4866 -75.4866 -75.4866 -75.4866 -75.4862 -75.4862
   -75.4861 -75.4861 -75.4859 -75.4859 -75.4859 -75.4859 -75.4850 -75.4850
   -41.2386 -41.2386 -41.2386 -41.2386 -41.2375 -41.2375 -41.2374 -41.2374
   -41.2365 -41.2365 -41.2349 -41.2349 -41.2349 -41.2349 -41.2331 -41.2331
   -41.2288 -41.2288 -41.2276 -41.2276 -41.2270 -41.2270 -41.2270 -41.2270
   -41.2239 -41.2239 -41.2221 -41.2221 -41.2221 -41.2221 -41.2218 -41.2217
   -41.2179 -41.2179 -41.2178 -41.2178 -41.2166 -41.2166 -41.2161 -41.2161
   -41.2161 -41.2160 -41.2141 -41.2141 -41.2141 -41.2141 -41.2140 -41.2140
     4.7993   4.7993   5.5262   5.5263   5.5263   5.5263   5.6673   5.6673
     5.6947   5.6947   5.6947   5.6947   5.7159   5.7159   5.7313   5.7313
     5.7794   5.7794   5.8303   5.8303   5.9297   5.9297   5.9530   5.9530
     5.9530   5.9530   6.0643   6.0643   6.0643   6.0643   6.1267   6.1267
     6.1690   6.1690   6.3534   6.3534   6.3534   6.3534   6.5116   6.5116
     6.5405   6.5405   6.5406   6.5406   6.5420   6.5420   6.5574   6.5574
     6.6673   6.6673   6.7033   6.7033   6.7033   6.7033   6.7100   6.7100
     6.7444   6.7444   6.7444   6.7444   6.8639   6.8639   6.8718   6.8718
     6.9216   6.9216   6.9290   6.9290   6.9344   6.9344   6.9784   6.9784
     6.9784   6.9784   6.9827   6.9827   7.1704   7.1704   7.1818   7.1818
     7.1818   7.1819   7.6637   7.6637   7.6637   7.6637   9.4268   9.4268
     9.4268   9.4268   9.6112   9.6112  11.1006  11.1006  11.2303  11.2303
    11.5303  11.5303  13.1402  13.1402  13.2118  13.2118  13.2118  13.2118
    14.4571  14.4572  14.8616  15.0146  15.0148

          k = 0.1306 0.2176 0.2176 ( 31379 PWs)   bands (ev):

   -75.4878 -75.4870 -75.4870 -75.4866 -75.4865 -75.4864 -75.4864 -75.4862
   -75.4860 -75.4860 -75.4860 -75.4859 -75.4858 -75.4855 -75.4855 -75.4848
   -41.2407 -41.2400 -41.2400 -41.2383 -41.2383 -41.2370 -41.2369 -41.2364
   -41.2364 -41.2362 -41.2358 -41.2352 -41.2338 -41.2318 -41.2305 -41.2303
   -41.2296 -41.2296 -41.2283 -41.2283 -41.2280 -41.2269 -41.2266 -41.2266
   -41.2234 -41.2234 -41.2231 -41.2230 -41.2228 -41.2221 -41.2216 -41.2201
   -41.2198 -41.2197 -41.2196 -41.2194 -41.2176 -41.2163 -41.2159 -41.2152
   -41.2152 -41.2152 -41.2152 -41.2141 -41.2138 -41.2137 -41.2129 -41.2128
     4.4900   5.4014   5.4014   5.4446   5.5211   5.5211   5.5854   5.5854
     5.5937   5.6146   5.6476   5.6716   5.7203   5.8407   5.8407   5.8485
     5.8536   5.8680   5.8680   5.8908   5.9187   5.9187   5.9329   5.9810
     5.9810   5.9834   5.9941   6.1008   6.1023   6.1023   6.1047   6.1250
     6.1479   6.2376   6.2376   6.2484   6.2724   6.2854   6.3178   6.3705
     6.3705   6.4344   6.4938   6.5854   6.5854   6.6259   6.6259   6.6271
     6.6780   6.7160   6.7160   6.7318   6.7778   6.7778   6.7848   6.7868
     6.7868   6.8003   6.8004   6.8019   6.8197   6.8260   6.8260   6.8638
     6.8998   6.9008   6.9051   6.9101   6.9176   6.9193   6.9351   6.9490
     6.9490   7.0608   7.0942   7.1112   7.1112   7.1132   7.1132   7.1657
     7.1657   7.2135   7.2724   7.4863   7.8247   8.5185   8.5185   9.0995
     9.6529   9.6529   9.9451  10.2711  10.2711  10.5665  11.4063  11.6292
    11.7419  11.7419  12.6076  12.8752  13.2259  13.2812  13.5215  13.5215
    13.9498  14.1675  14.2377  14.5343  14.5344

          k = 0.1306 0.2176 0.3047 ( 31342 PWs)   bands (ev):

   -75.4877 -75.4872 -75.4869 -75.4867 -75.4866 -75.4865 -75.4863 -75.4863
   -75.4860 -75.4860 -75.4859 -75.4858 -75.4858 -75.4856 -75.4853 -75.4849
   -41.2400 -41.2392 -41.2387 -41.2378 -41.2377 -41.2372 -41.2371 -41.2370
   -41.2368 -41.2365 -41.2354 -41.2351 -41.2343 -41.2335 -41.2314 -41.2305
   -41.2296 -41.2292 -41.2288 -41.2281 -41.2278 -41.2275 -41.2272 -41.2260
   -41.2254 -41.2230 -41.2229 -41.2225 -41.2218 -41.2215 -41.2214 -41.2213
   -41.2200 -41.2187 -41.2181 -41.2179 -41.2178 -41.2168 -41.2162 -41.2156
   -41.2151 -41.2151 -41.2149 -41.2142 -41.2142 -41.2140 -41.2130 -41.2129
     4.6754   5.1592   5.4354   5.4487   5.5532   5.6122   5.6205   5.6410
     5.6526   5.6633   5.6961   5.7029   5.7445   5.8021   5.8088   5.8166
     5.8215   5.8469   5.8885   5.8890   5.9072   5.9123   5.9354   5.9774
     6.0156   6.0229   6.0364   6.0574   6.0636   6.0723   6.0819   6.0821
     6.1531   6.1941   6.2804   6.3041   6.3077   6.3286   6.3379   6.3624
     6.3660   6.4436   6.4611   6.5205   6.5348   6.6095   6.6173   6.6640
     6.6791   6.6844   6.6880   6.7036   6.7079   6.7096   6.7120   6.7167
     6.7628   6.7866   6.7899   6.7912   6.8075   6.8196   6.8375   6.8812
     6.8821   6.8841   6.8896   6.9205   6.9259   6.9284   6.9493   6.9554
     6.9607   6.9802   7.0098   7.0703   7.0882   7.1520   7.1631   7.1671
     7.1723   7.2154   7.2597   7.5100   7.6608   8.1699   8.8288   9.3298
     9.5391   9.8890   9.9384  10.4404  10.4838  10.5742  11.2710  11.8861
    11.8889  12.1516  12.3916  12.4766  13.3700  13.6074  13.6606  13.7880
    13.9906  14.0813  14.1711  14.3120  14.5169

          k = 0.1306 0.2176-0.3918 ( 31334 PWs)   bands (ev):

   -75.4875 -75.4875 -75.4868 -75.4868 -75.4865 -75.4865 -75.4863 -75.4863
   -75.4860 -75.4860 -75.4859 -75.4859 -75.4857 -75.4857 -75.4851 -75.4851
   -41.2390 -41.2390 -41.2381 -41.2381 -41.2373 -41.2373 -41.2372 -41.2372
   -41.2371 -41.2371 -41.2352 -41.2352 -41.2330 -41.2330 -41.2328 -41.2328
   -41.2286 -41.2286 -41.2285 -41.2285 -41.2277 -41.2277 -41.2271 -41.2271
   -41.2238 -41.2238 -41.2230 -41.2230 -41.2221 -41.2221 -41.2206 -41.2206
   -41.2195 -41.2195 -41.2173 -41.2173 -41.2164 -41.2164 -41.2163 -41.2163
   -41.2161 -41.2161 -41.2145 -41.2145 -41.2135 -41.2135 -41.2134 -41.2134
     4.9057   4.9057   5.4496   5.4496   5.5875   5.5875   5.6811   5.6811
     5.7250   5.7251   5.7336   5.7336   5.7377   5.7377   5.7543   5.7543
     5.8293   5.8293   5.8658   5.8658   5.9431   5.9431   5.9568   5.9568
     5.9863   5.9863   6.0234   6.0234   6.0736   6.0736   6.1201   6.1201
     6.1671   6.1671   6.2592   6.2592   6.3555   6.3555   6.4394   6.4394
     6.4547   6.4547   6.4567   6.4567   6.5035   6.5035   6.5464   6.5464
     6.6161   6.6161   6.7042   6.7042   6.7367   6.7368   6.7374   6.7374
     6.7427   6.7427   6.7452   6.7452   6.8539   6.8539   6.8592   6.8592
     6.9093   6.9093   6.9178   6.9178   6.9230   6.9230   6.9264   6.9264
     6.9615   6.9615   6.9984   6.9984   7.1226   7.1226   7.1989   7.1989
     7.2247   7.2247   7.2961   7.2961   7.8876   7.8876   9.1691   9.1691
     9.6133   9.6133  10.1777  10.1777  10.9152  10.9152  11.2813  11.2813
    12.1023  12.1023  12.7063  12.7063  13.3090  13.3090  13.6885  13.6885
    13.8336  13.8336  14.5912  14.5912  14.8821

          k = 0.1306 0.3047 0.3047 ( 31339 PWs)   bands (ev):

   -75.4875 -75.4871 -75.4871 -75.4868 -75.4865 -75.4864 -75.4864 -75.4863
   -75.4860 -75.4859 -75.4859 -75.4859 -75.4856 -75.4854 -75.4854 -75.4850
   -41.2398 -41.2383 -41.2382 -41.2382 -41.2381 -41.2378 -41.2372 -41.2368
   -41.2367 -41.2365 -41.2361 -41.2345 -41.2335 -41.2330 -41.2309 -41.2309
   -41.2297 -41.2290 -41.2285 -41.2282 -41.2282 -41.2282 -41.2282 -41.2271
   -41.2237 -41.2234 -41.2233 -41.2225 -41.2225 -41.2224 -41.2219 -41.2202
   -41.2195 -41.2185 -41.2184 -41.2177 -41.2172 -41.2164 -41.2161 -41.2161
   -41.2159 -41.2151 -41.2149 -41.2149 -41.2135 -41.2134 -41.2129 -41.2128
     4.8456   5.2563   5.2563   5.4067   5.6406   5.6406   5.6448   5.6928
     5.6928   5.7060   5.7181   5.7321   5.7673   5.7987   5.7988   5.8124
     5.8207   5.9014   5.9014   5.9097   5.9489   5.9855   5.9855   6.0038
     6.0038   6.0046   6.0088   6.0088   6.0305   6.0429   6.0742   6.1351
     6.1663   6.2439   6.2601   6.2606   6.2606   6.2871   6.3118   6.3317
     6.3317   6.3410   6.4256   6.4256   6.4665   6.4665   6.5409   6.5630
     6.6229   6.7115   6.7228   6.7248   6.7249   6.7472   6.7706   6.7706
     6.7862   6.7900   6.8008   6.8008   6.8081   6.8081   6.8362   6.8362
     6.8602   6.8677   6.8749   6.8991   6.9246   6.9386   6.9413   6.9413
     6.9539   6.9723   6.9751   6.9751   7.0691   7.0714   7.0714   7.2110
     7.2110   7.2289   7.2309   7.2649   7.8862   8.4630   8.4630   9.1418
     9.5711  10.2061  10.2061  10.6888  10.6888  10.8765  11.1563  11.5994
    12.3179  12.5558  12.6354  12.6354  12.8979  13.1568  13.1568  13.6774
    14.0608  14.4306  14.4306  14.4614  14.7686

          k = 0.1306 0.3047-0.3918 ( 31354 PWs)   bands (ev):

   -75.4873 -75.4873 -75.4870 -75.4870 -75.4865 -75.4865 -75.4864 -75.4864
   -75.4860 -75.4860 -75.4859 -75.4859 -75.4855 -75.4855 -75.4852 -75.4852
   -41.2392 -41.2391 -41.2381 -41.2381 -41.2376 -41.2376 -41.2371 -41.2371
   -41.2367 -41.2366 -41.2356 -41.2356 -41.2323 -41.2323 -41.2306 -41.2306
   -41.2300 -41.2300 -41.2292 -41.2292 -41.2286 -41.2286 -41.2259 -41.2259
   -41.2253 -41.2253 -41.2225 -41.2225 -41.2221 -41.2221 -41.2214 -41.2214
   -41.2193 -41.2193 -41.2171 -41.2171 -41.2168 -41.2168 -41.2162 -41.2162
   -41.2160 -41.2160 -41.2150 -41.2150 -41.2130 -41.2130 -41.2130 -41.2130
     5.0486   5.0486   5.3438   5.3438   5.6523   5.6523   5.7086   5.7086
     5.7177   5.7177   5.7555   5.7555   5.7651   5.7651   5.7689   5.7689
     5.9122   5.9122   5.9313   5.9313   5.9502   5.9502   5.9736   5.9736
     6.0119   6.0119   6.0175   6.0175   6.0287   6.0287   6.1160   6.1160
     6.2000   6.2000   6.2300   6.2300   6.3288   6.3288   6.3415   6.3415
     6.3433   6.3433   6.3762   6.3762   6.3881   6.3881   6.4257   6.4257
     6.7331   6.7331   6.7352   6.7352   6.7649   6.7649   6.7650   6.7650
     6.7676   6.7676   6.7777   6.7777   6.8340   6.8340   6.8384   6.8384
     6.8524   6.8524   6.8969   6.8969   6.8978   6.8978   6.9314   6.9314
     6.9504   6.9504   7.0094   7.0094   7.0466   7.0466   7.0664   7.0664
     7.2309   7.2309   7.2476   7.2477   8.1523   8.1523   8.7859   8.7859
     9.8659   9.8659  10.5217  10.5217  10.9912  10.9912  11.5398  11.5398
    12.2586  12.2586  12.7682  12.7682  12.8324  12.8324  13.4295  13.4295
    14.2725  14.2725  14.5400  14.8830  14.8839

          k = 0.1306-0.3918-0.3918 ( 31396 PWs)   bands (ev):

   -75.4872 -75.4872 -75.4872 -75.4872 -75.4864 -75.4864 -75.4864 -75.4864
   -75.4859 -75.4859 -75.4859 -75.4859 -75.4853 -75.4853 -75.4853 -75.4853
   -41.2389 -41.2389 -41.2388 -41.2388 -41.2372 -41.2372 -41.2372 -41.2372
   -41.2362 -41.2362 -41.2361 -41.2361 -41.2314 -41.2314 -41.2313 -41.2313
   -41.2292 -41.2292 -41.2291 -41.2291 -41.2283 -41.2283 -41.2283 -41.2282
   -41.2235 -41.2235 -41.2234 -41.2234 -41.2222 -41.2222 -41.2222 -41.2222
   -41.2181 -41.2181 -41.2180 -41.2180 -41.2165 -41.2165 -41.2164 -41.2164
   -41.2156 -41.2156 -41.2155 -41.2155 -41.2129 -41.2129 -41.2128 -41.2128
     5.2044   5.2044   5.2044   5.2044   5.6966   5.6966   5.6966   5.6966
     5.7403   5.7403   5.7403   5.7403   5.7743   5.7743   5.7743   5.7743
     5.9752   5.9752   5.9752   5.9752   5.9802   5.9802   5.9803   5.9803
     6.0141   6.0141   6.0142   6.0142   6.0318   6.0318   6.0318   6.0318
     6.2726   6.2726   6.2726   6.2726   6.2797   6.2797   6.2798   6.2798
     6.3154   6.3154   6.3154   6.3154   6.3376   6.3376   6.3376   6.3377
     6.7782   6.7782   6.7782   6.7782   6.7868   6.7868   6.7869   6.7869
     6.8012   6.8012   6.8013   6.8013   6.8135   6.8135   6.8135   6.8135
     6.8721   6.8721   6.8721   6.8721   6.8870   6.8870   6.8870   6.8870
     6.9409   6.9409   6.9409   6.9409   7.0284   7.0284   7.0284   7.0284
     7.2493   7.2493   7.2493   7.2493   8.4503   8.4503   8.4503   8.4503
    10.1708  10.1708  10.1709  10.1709  11.8322  11.8322  11.8322  11.8322
    11.8953  11.8953  11.8953  11.8953  13.3975  13.3975  13.3975  13.3975
    14.2517  14.2517  14.2517  14.2517  15.0904

          k = 0.2176 0.2176 0.2176 ( 31349 PWs)   bands (ev):

   -75.4877 -75.4869 -75.4869 -75.4869 -75.4865 -75.4865 -75.4865 -75.4863
   -75.4860 -75.4859 -75.4859 -75.4859 -75.4856 -75.4856 -75.4856 -75.4848
   -41.2398 -41.2397 -41.2397 -41.2369 -41.2369 -41.2369 -41.2369 -41.2368
   -41.2368 -41.2362 -41.2362 -41.2362 -41.2327 -41.2327 -41.2302 -41.2301
   -41.2301 -41.2297 -41.2297 -41.2297 -41.2289 -41.2277 -41.2277 -41.2277
   -41.2220 -41.2220 -41.2220 -41.2219 -41.2219 -41.2219 -41.2211 -41.2204
   -41.2204 -41.2196 -41.2195 -41.2195 -41.2170 -41.2162 -41.2162 -41.2161
   -41.2149 -41.2148 -41.2148 -41.2137 -41.2137 -41.2137 -41.2136 -41.2136
     4.6153   5.4567   5.4567   5.4567   5.5267   5.5267   5.5267   5.6402
     5.6402   5.6402   5.7023   5.7023   5.7101   5.8530   5.8530   5.8530
     5.8970   5.8970   5.9307   5.9307   5.9307   5.9349   5.9349   5.9349
     5.9712   5.9712   5.9712   6.1033   6.1033   6.1053   6.1053   6.1053
     6.1587   6.1587   6.1587   6.2110   6.2110   6.2167   6.3023   6.3023
     6.3023   6.4722   6.4722   6.4722   6.5222   6.6630   6.6638   6.6638
     6.6638   6.6946   6.6946   6.6946   6.7533   6.7533   6.7533   6.7697
     6.7697   6.7697   6.8182   6.8182   6.8182   6.8391   6.8391   6.8848
     6.8848   6.8848   6.9027   6.9027   6.9097   6.9098   6.9098   6.9217
     6.9217   7.1121   7.1121   7.1121   7.1442   7.1442   7.1823   7.1823
     7.1823   7.1859   7.1859   7.1859   8.1020   8.1020   8.1020   9.4961
     9.8231   9.8231   9.8231  10.8214  10.8214  10.8214  11.4632  11.4632
    11.4632  11.9935  12.6369  12.6369  12.8980  13.4914  13.4914  14.2564
    14.2564  14.2564  14.3982  14.3982  14.3982

          k = 0.2176 0.2176 0.3047 ( 31351 PWs)   bands (ev):

   -75.4876 -75.4872 -75.4868 -75.4868 -75.4866 -75.4866 -75.4865 -75.4864
   -75.4860 -75.4859 -75.4858 -75.4858 -75.4856 -75.4856 -75.4853 -75.4850
   -41.2393 -41.2393 -41.2385 -41.2375 -41.2375 -41.2372 -41.2368 -41.2367
   -41.2364 -41.2353 -41.2352 -41.2350 -41.2350 -41.2320 -41.2316 -41.2315
   -41.2315 -41.2301 -41.2301 -41.2288 -41.2288 -41.2288 -41.2275 -41.2272
   -41.2238 -41.2233 -41.2218 -41.2211 -41.2211 -41.2210 -41.2203 -41.2202
   -41.2198 -41.2198 -41.2184 -41.2177 -41.2174 -41.2174 -41.2165 -41.2161
   -41.2149 -41.2148 -41.2144 -41.2144 -41.2141 -41.2137 -41.2137 -41.2135
     4.7946   5.2470   5.5072   5.5073   5.5348   5.5348   5.6388   5.6856
     5.7090   5.7090   5.7099   5.7463   5.7758   5.8543   5.8645   5.8650
     5.8650   5.8709   5.8735   5.8878   5.8878   5.9203   5.9808   6.0106
     6.0106   6.0241   6.0242   6.0249   6.0250   6.0725   6.0919   6.1023
     6.1043   6.1190   6.2168   6.2168   6.2326   6.2524   6.2525   6.2978
     6.3363   6.3538   6.3538   6.4338   6.5051   6.5250   6.5250   6.5386
     6.6244   6.7110   6.7120   6.7120   6.7611   6.7611   6.7644   6.7644
     6.7981   6.7981   6.8036   6.8148   6.8347   6.8371   6.8470   6.8664
     6.8821   6.8957   6.9054   6.9090   6.9156   6.9156   6.9212   6.9213
     6.9547   6.9916   7.0528   7.0915   7.1316   7.1316   7.1509   7.1702
     7.1820   7.1820   7.3216   7.3216   7.7745   7.7745   8.4076   9.0974
    10.0618  10.0618  10.6131  10.6814  10.6814  11.1732  11.5546  11.8562
    11.9953  11.9953  12.0932  12.3091  13.3058  13.3896  13.6864  13.6864
    13.7931  13.9851  14.3837  14.6216  15.0195

          k = 0.2176 0.2176-0.3918 ( 31352 PWs)   bands (ev):

   -75.4874 -75.4874 -75.4867 -75.4867 -75.4867 -75.4867 -75.4864 -75.4864
   -75.4859 -75.4859 -75.4857 -75.4857 -75.4857 -75.4857 -75.4851 -75.4851
   -41.2384 -41.2384 -41.2384 -41.2384 -41.2372 -41.2372 -41.2369 -41.2369
   -41.2367 -41.2367 -41.2336 -41.2336 -41.2334 -41.2334 -41.2334 -41.2334
   -41.2302 -41.2302 -41.2296 -41.2296 -41.2296 -41.2296 -41.2255 -41.2255
   -41.2254 -41.2254 -41.2215 -41.2214 -41.2203 -41.2203 -41.2203 -41.2203
   -41.2187 -41.2187 -41.2187 -41.2187 -41.2165 -41.2165 -41.2162 -41.2162
   -41.2161 -41.2161 -41.2140 -41.2140 -41.2140 -41.2140 -41.2137 -41.2137
     5.0137   5.0137   5.5329   5.5329   5.5329   5.5329   5.7078   5.7078
     5.7645   5.7645   5.7867   5.7867   5.7867   5.7867   5.8015   5.8015
     5.8559   5.8559   5.8602   5.8602   5.9458   5.9458   5.9458   5.9458
     6.0331   6.0331   6.0527   6.0527   6.0527   6.0527   6.0654   6.0654
     6.1026   6.1026   6.2621   6.2621   6.2621   6.2621   6.3437   6.3437
     6.3506   6.3506   6.3506   6.3506   6.3750   6.3750   6.4236   6.4236
     6.7367   6.7367   6.7596   6.7596   6.7598   6.7598   6.7599   6.7599
     6.7615   6.7615   6.7616   6.7616   6.8588   6.8588   6.8594   6.8594
     6.9057   6.9057   6.9075   6.9076   6.9249   6.9249   6.9249   6.9249
     6.9501   6.9501   7.0110   7.0110   7.1602   7.1602   7.1602   7.1602
     7.1717   7.1717   7.5197   7.5197   7.5197   7.5197   8.7377   8.7378
    10.3559  10.3559  10.3559  10.3559  11.4535  11.4535  11.6020  11.6020
    11.6858  11.6858  12.8186  12.8186  12.8186  12.8186  13.6413  13.6413
    14.1306  14.1306  14.1739  14.1739  14.5281

          k = 0.2176 0.3047 0.3047 ( 31340 PWs)   bands (ev):

   -75.4874 -75.4871 -75.4871 -75.4868 -75.4868 -75.4866 -75.4866 -75.4864
   -75.4859 -75.4858 -75.4858 -75.4857 -75.4856 -75.4854 -75.4854 -75.4851
   -41.2390 -41.2381 -41.2381 -41.2377 -41.2377 -41.2374 -41.2370 -41.2362
   -41.2356 -41.2355 -41.2353 -41.2347 -41.2334 -41.2328 -41.2321 -41.2320
   -41.2319 -41.2307 -41.2301 -41.2300 -41.2300 -41.2295 -41.2294 -41.2255
   -41.2252 -41.2220 -41.2220 -41.2207 -41.2207 -41.2201 -41.2198 -41.2198
   -41.2190 -41.2187 -41.2180 -41.2180 -41.2176 -41.2170 -41.2169 -41.2165
   -41.2153 -41.2148 -41.2148 -41.2146 -41.2139 -41.2139 -41.2137 -41.2136
     4.9621   5.3530   5.3530   5.5053   5.5840   5.6494   5.6494   5.7300
     5.7474   5.7474   5.7701   5.7914   5.8358   5.8416   5.8626   5.8626
     5.8904   5.8918   5.8918   5.9065   5.9252   5.9771   5.9908   5.9909
     6.0134   6.0134   6.0163   6.0164   6.0291   6.0387   6.0744   6.0924
     6.1236   6.1405   6.1420   6.1420   6.1605   6.2373   6.2377   6.2379
     6.2379   6.2641   6.3300   6.3300   6.3534   6.3534   6.3775   6.4137
     6.7454   6.7480   6.7485   6.7486   6.7772   6.8021   6.8042   6.8105
     6.8156   6.8157   6.8193   6.8194   6.8414   6.8414   6.8595   6.8682
     6.8956   6.8957   6.8957   6.8961   6.9020   6.9105   6.9105   6.9258
     6.9675   7.0158   7.0785   7.0785   7.0948   7.0948   7.1003   7.1596
     7.1596   7.1620   7.1898   7.4757   7.5282   8.0607   8.0607   8.7121
    10.3030  10.8579  10.8579  10.9443  10.9443  11.3879  11.5801  11.6713
    12.1657  12.1657  12.4221  12.5590  12.7651  13.1073  13.2635  13.2635
    13.6171  13.8816  14.3820  14.6457  14.6459

          k = 0.2176 0.3047-0.3918 ( 31340 PWs)   bands (ev):

   -75.4873 -75.4873 -75.4869 -75.4869 -75.4867 -75.4867 -75.4865 -75.4865
   -75.4858 -75.4858 -75.4857 -75.4857 -75.4855 -75.4855 -75.4852 -75.4852
   -41.2384 -41.2384 -41.2376 -41.2376 -41.2375 -41.2375 -41.2367 -41.2367
   -41.2359 -41.2358 -41.2342 -41.2342 -41.2335 -41.2335 -41.2315 -41.2315
   -41.2313 -41.2313 -41.2313 -41.2312 -41.2307 -41.2307 -41.2273 -41.2273
   -41.2238 -41.2238 -41.2204 -41.2204 -41.2203 -41.2203 -41.2200 -41.2200
   -41.2187 -41.2187 -41.2179 -41.2179 -41.2166 -41.2166 -41.2165 -41.2165
   -41.2162 -41.2162 -41.2147 -41.2147 -41.2137 -41.2137 -41.2137 -41.2137
     5.1589   5.1589   5.4464   5.4464   5.6348   5.6348   5.7505   5.7505
     5.7648   5.7648   5.8217   5.8217   5.8252   5.8252   5.8307   5.8307
     5.9093   5.9093   5.9252   5.9252   5.9482   5.9482   5.9599   5.9599
     6.0149   6.0149   6.0170   6.0170   6.0604   6.0604   6.0858   6.0858
     6.1046   6.1046   6.1699   6.1699   6.2111   6.2111   6.2148   6.2148
     6.2354   6.2354   6.2559   6.2559   6.2945   6.2945   6.3039   6.3039
     6.7834   6.7834   6.7850   6.7850   6.7865   6.7866   6.8089   6.8089
     6.8173   6.8173   6.8443   6.8443   6.8615   6.8615   6.8643   6.8643
     6.8970   6.8970   6.9059   6.9059   6.9069   6.9069   6.9196   6.9196
     6.9307   6.9307   7.0181   7.0181   7.0915   7.0915   7.1688   7.1688
     7.1789   7.1789   7.2498   7.2498   7.7726   7.7726   8.3706   8.3706
    10.6013  10.6013  11.1622  11.1622  11.2489  11.2489  11.6997  11.6997
    12.3873  12.3873  12.4006  12.4006  12.9079  12.9079  12.9708  12.9708
    13.7668  13.7668  14.2034  14.2034  14.3715

          k = 0.2176-0.3918-0.3918 ( 31344 PWs)   bands (ev):

   -75.4871 -75.4871 -75.4871 -75.4871 -75.4866 -75.4866 -75.4866 -75.4866
   -75.4858 -75.4858 -75.4858 -75.4858 -75.4854 -75.4854 -75.4854 -75.4854
   -41.2380 -41.2380 -41.2380 -41.2380 -41.2369 -41.2369 -41.2369 -41.2369
   -41.2351 -41.2351 -41.2350 -41.2350 -41.2327 -41.2327 -41.2326 -41.2326
   -41.2314 -41.2314 -41.2314 -41.2314 -41.2294 -41.2294 -41.2294 -41.2294
   -41.2221 -41.2221 -41.2220 -41.2220 -41.2200 -41.2200 -41.2200 -41.2199
   -41.2175 -41.2175 -41.2174 -41.2174 -41.2172 -41.2172 -41.2171 -41.2171
   -41.2156 -41.2156 -41.2155 -41.2155 -41.2137 -41.2137 -41.2136 -41.2136
     5.3151   5.3151   5.3151   5.3151   5.7205   5.7205   5.7206   5.7206
     5.7991   5.7991   5.7991   5.7991   5.8386   5.8386   5.8386   5.8386
     5.9687   5.9687   5.9687   5.9687   5.9705   5.9705   5.9705   5.9705
     6.0224   6.0225   6.0225   6.0225   6.0425   6.0425   6.0426   6.0426
     6.1397   6.1397   6.1397   6.1397   6.1484   6.1484   6.1484   6.1484
     6.2017   6.2017   6.2017   6.2017   6.2553   6.2553   6.2553   6.2553
     6.7969   6.7969   6.7970   6.7970   6.8169   6.8169   6.8169   6.8169
     6.8546   6.8546   6.8546   6.8546   6.8718   6.8718   6.8718   6.8718
     6.8790   6.8790   6.8791   6.8791   6.9123   6.9123   6.9124   6.9124
     7.0402   7.0402   7.0402   7.0402   7.0484   7.0484   7.0484   7.0484
     7.1790   7.1791   7.1791   7.1791   8.0533   8.0533   8.0533   8.0533
    10.9010  10.9010  10.9010  10.9010  11.9861  11.9861  11.9861  11.9861
    12.0486  12.0486  12.0486  12.0486  12.9956  12.9956  12.9956  12.9956
    13.6976  13.6976  13.6976  13.6976  14.4826

          k = 0.3047 0.3047 0.3047 ( 31354 PWs)   bands (ev):

   -75.4873 -75.4870 -75.4870 -75.4870 -75.4867 -75.4867 -75.4867 -75.4865
   -75.4858 -75.4857 -75.4857 -75.4857 -75.4855 -75.4855 -75.4855 -75.4852
   -41.2378 -41.2377 -41.2377 -41.2373 -41.2373 -41.2373 -41.2360 -41.2360
   -41.2356 -41.2343 -41.2343 -41.2341 -41.2341 -41.2340 -41.2327 -41.2327
   -41.2327 -41.2315 -41.2315 -41.2315 -41.2309 -41.2309 -41.2309 -41.2271
   -41.2240 -41.2206 -41.2206 -41.2205 -41.2193 -41.2192 -41.2192 -41.2181
   -41.2181 -41.2179 -41.2179 -41.2179 -41.2179 -41.2179 -41.2179 -41.2168
   -41.2148 -41.2148 -41.2148 -41.2147 -41.2147 -41.2144 -41.2144 -41.2144
     5.1238   5.4753   5.4753   5.4753   5.6430   5.6430   5.6430   5.7692
     5.8167   5.8167   5.8167   5.8709   5.8709   5.9040   5.9040   5.9041
     5.9109   5.9109   5.9426   5.9427   5.9427   5.9614   5.9614   5.9614
     6.0185   6.0286   6.0286   6.0286   6.0340   6.0340   6.0384   6.0384
     6.0384   6.0411   6.0411   6.0411   6.1658   6.1658   6.1658   6.1675
     6.1675   6.2116   6.2116   6.2116   6.2241   6.2241   6.2241   6.2879
     6.7786   6.7787   6.7787   6.8244   6.8244   6.8244   6.8373   6.8373
     6.8447   6.8447   6.8447   6.8769   6.8769   6.8830   6.8830   6.8830
     6.8891   6.8913   6.8914   6.8914   6.8979   6.8979   6.8980   6.9443
     6.9443   7.0728   7.0728   7.1005   7.1005   7.1006   7.1140   7.1140
     7.1140   7.2605   7.2606   7.2606   7.7392   7.7392   7.7392   8.3450
    11.0968  11.0968  11.0968  11.7135  11.7135  11.7135  11.7835  11.7835
    11.7835  12.0609  12.4913  12.5848  12.5848  13.0645  13.0645  13.2488
    13.2488  13.2488  13.8838  13.8838  13.8839

          k = 0.3047 0.3047-0.3918 ( 31344 PWs)   bands (ev):

   -75.4872 -75.4872 -75.4869 -75.4869 -75.4869 -75.4869 -75.4866 -75.4866
   -75.4857 -75.4857 -75.4856 -75.4856 -75.4856 -75.4856 -75.4853 -75.4853
   -41.2374 -41.2374 -41.2374 -41.2374 -41.2368 -41.2367 -41.2362 -41.2362
   -41.2349 -41.2349 -41.2345 -41.2345 -41.2330 -41.2330 -41.2326 -41.2326
   -41.2326 -41.2326 -41.2325 -41.2325 -41.2325 -41.2325 -41.2290 -41.2290
   -41.2222 -41.2222 -41.2191 -41.2191 -41.2191 -41.2191 -41.2187 -41.2187
   -41.2182 -41.2182 -41.2182 -41.2182 -41.2173 -41.2173 -41.2163 -41.2163
   -41.2162 -41.2161 -41.2147 -41.2147 -41.2147 -41.2147 -41.2145 -41.2145
     5.3085   5.3085   5.5859   5.5859   5.5859   5.5859   5.8046   5.8046
     5.8104   5.8104   5.8917   5.8917   5.8917   5.8917   5.9047   5.9047
     5.9058   5.9058   5.9506   5.9506   5.9513   5.9513   5.9513   5.9513
     6.0090   6.0090   6.0267   6.0267   6.0267   6.0267   6.0302   6.0302
     6.0708   6.0708   6.0769   6.0769   6.0962   6.0962   6.0962   6.0962
     6.1499   6.1499   6.1499   6.1499   6.1839   6.1839   6.2015   6.2015
     6.8083   6.8083   6.8083   6.8083   6.8096   6.8096   6.8503   6.8503
     6.8679   6.8679   6.8772   6.8773   6.8773   6.8773   6.8849   6.8849
     6.8905   6.8905   6.8906   6.8906   6.9024   6.9024   6.9759   6.9759
     7.0145   7.0145   7.0557   7.0557   7.0985   7.0985   7.0985   7.0985
     7.1056   7.1056   7.4789   7.4789   7.4789   7.4789   8.0254   8.0254
    11.3962  11.3962  11.3962  11.3962  11.9230  11.9230  11.9356  11.9356
    12.1168  12.1168  12.5771  12.5771  12.5771  12.5771  12.9727  12.9727
    13.3435  13.3435  13.4413  13.4413  13.9219

          k = 0.3047-0.3918-0.3918 ( 31340 PWs)   bands (ev):

   -75.4870 -75.4870 -75.4870 -75.4870 -75.4868 -75.4868 -75.4868 -75.4868
   -75.4856 -75.4856 -75.4856 -75.4856 -75.4854 -75.4854 -75.4854 -75.4854
   -41.2369 -41.2369 -41.2369 -41.2368 -41.2363 -41.2363 -41.2363 -41.2363
   -41.2341 -41.2341 -41.2341 -41.2341 -41.2337 -41.2337 -41.2337 -41.2337
   -41.2335 -41.2335 -41.2335 -41.2335 -41.2308 -41.2308 -41.2307 -41.2307
   -41.2206 -41.2206 -41.2206 -41.2206 -41.2181 -41.2181 -41.2181 -41.2180
   -41.2180 -41.2180 -41.2180 -41.2179 -41.2168 -41.2168 -41.2167 -41.2167
   -41.2158 -41.2158 -41.2158 -41.2158 -41.2147 -41.2147 -41.2147 -41.2147
     5.4681   5.4681   5.4681   5.4681   5.7324   5.7324   5.7324   5.7324
     5.8776   5.8776   5.8776   5.8776   5.9274   5.9274   5.9274   5.9274
     5.9629   5.9629   5.9629   5.9629   5.9655   5.9655   5.9655   5.9655
     5.9927   5.9927   5.9927   5.9927   6.0324   6.0324   6.0324   6.0324
     6.0377   6.0377   6.0377   6.0377   6.0454   6.0454   6.0455   6.0455
     6.0862   6.0862   6.0863   6.0863   6.1503   6.1503   6.1503   6.1503
     6.8225   6.8225   6.8226   6.8226   6.8348   6.8349   6.8349   6.8349
     6.8673   6.8673   6.8674   6.8674   6.8829   6.8829   6.8829   6.8829
     6.9181   6.9181   6.9182   6.9182   6.9456   6.9456   6.9456   6.9456
     7.0316   7.0316   7.0316   7.0316   7.0911   7.0911   7.0911   7.0911
     7.2474   7.2474   7.2474   7.2474   7.7337   7.7337   7.7337   7.7337
    11.6780  11.6780  11.6780  11.6780  12.1189  12.1189  12.1189  12.1189
    12.3562  12.3562  12.3562  12.3562  12.6884  12.6884  12.6884  12.6884
    13.1916  13.1917  13.1917  13.1917  13.5531

          k =-0.3918-0.3918-0.3918 ( 31144 PWs)   bands (ev):

   -75.4869 -75.4869 -75.4869 -75.4869 -75.4869 -75.4869 -75.4869 -75.4869
   -75.4855 -75.4855 -75.4855 -75.4855 -75.4855 -75.4855 -75.4855 -75.4855
   -41.2352 -41.2352 -41.2352 -41.2352 -41.2352 -41.2352 -41.2352 -41.2352
   -41.2352 -41.2352 -41.2352 -41.2352 -41.2351 -41.2351 -41.2351 -41.2351
   -41.2322 -41.2322 -41.2322 -41.2322 -41.2322 -41.2322 -41.2321 -41.2321
   -41.2191 -41.2191 -41.2191 -41.2191 -41.2191 -41.2191 -41.2191 -41.2190
   -41.2162 -41.2162 -41.2162 -41.2162 -41.2162 -41.2162 -41.2162 -41.2162
   -41.2162 -41.2162 -41.2162 -41.2162 -41.2161 -41.2161 -41.2161 -41.2161
     5.6363   5.6363   5.6363   5.6363   5.6363   5.6363   5.6363   5.6363
     5.9623   5.9623   5.9623   5.9623   5.9624   5.9624   5.9624   5.9624
     5.9624   5.9624   5.9624   5.9624   5.9624   5.9624   5.9624   5.9624
     5.9701   5.9701   5.9701   5.9701   5.9701   5.9701   5.9701   5.9701
     6.0412   6.0412   6.0412   6.0412   6.0412   6.0412   6.0412   6.0412
     6.0412   6.0412   6.0412   6.0412   6.0412   6.0412   6.0412   6.0412
     6.8522   6.8522   6.8522   6.8522   6.8522   6.8522   6.8523   6.8523
     6.8523   6.8523   6.8523   6.8523   6.8523   6.8523   6.8523   6.8523
     7.0000   7.0000   7.0000   7.0000   7.0001   7.0001   7.0001   7.0001
     7.0001   7.0001   7.0001   7.0001   7.0001   7.0001   7.0001   7.0001
     7.4716   7.4716   7.4716   7.4716   7.4716   7.4716   7.4716   7.4716
    12.2223  12.2223  12.2223  12.2223  12.2223  12.2223  12.2223  12.2223
    12.7413  12.7413  12.7413  12.7413  12.7413  12.7413  12.7413  12.7413
    12.7413  12.7413  12.7413  12.7413  12.7413

     the Fermi energy is     7.3110 ev

!    total energy              =   -8190.53992533 Ry

     total all-electron energy =   -161470.966779 Ry
     estimated scf accuracy    <       0.00000020 Ry
     smearing contrib. (-TS)   =       0.23770993 Ry
     internal energy E=F+TS    =   -8190.77763526 Ry

     The total energy is F=E-TS. E is the sum of the following terms:
     one-electron contribution =   -2251.71332870 Ry
     hartree contribution      =    1221.13931752 Ry
     xc contribution           =    -490.15058310 Ry
     ewald contribution        =   -2586.59176008 Ry
     one-center paw contrib.   =   -4083.46128089 Ry

     convergence has been achieved in  13 iterations

     Forces acting on atoms (cartesian axes, Ry/au):

     atom    1 type  1   force =     0.00000000    0.00000000    0.00000000
     atom    2 type  1   force =     0.00000217    0.00000217    0.00000217
     atom    3 type  1   force =     0.00000000    0.00000000    0.00000000
     atom    4 type  1   force =     0.00000217    0.00000217   -0.00000217
     atom    5 type  1   force =     0.00000000    0.00000000    0.00000000
     atom    6 type  1   force =     0.00000217   -0.00000217    0.00000217
     atom    7 type  1   force =     0.00000000    0.00000000    0.00000000
     atom    8 type  1   force =     0.00000217   -0.00000217   -0.00000217
     atom    9 type  1   force =     0.00000000    0.00000000    0.00000000
     atom   10 type  1   force =    -0.00000217    0.00000217    0.00000217
     atom   11 type  1   force =     0.00000000    0.00000000    0.00000000
     atom   12 type  1   force =    -0.00000217    0.00000217   -0.00000217
     atom   13 type  1   force =     0.00000000    0.00000000    0.00000000
     atom   14 type  1   force =    -0.00000217   -0.00000217    0.00000217
     atom   15 type  1   force =     0.00000000    0.00000000    0.00000000
     atom   16 type  1   force =    -0.00000217   -0.00000217   -0.00000217

     Total force =     0.000011     Total SCF correction =     0.000007
     SCF correction compared to forces is large: reduce conv_thr to get better values


     Computing stress (Cartesian axis) and pressure

          total   stress  (Ry/bohr**3)                   (kbar)     P=     -187.19
  -0.00127248   0.00000000   0.00000000         -187.19        0.00        0.00
   0.00000000  -0.00127248   0.00000000            0.00     -187.19        0.00
   0.00000000   0.00000000  -0.00127248            0.00        0.00     -187.19


     Writing output data file /scratch/ueqgSwmLrTCRhUus.save/
 
     init_run     :      5.05s CPU      5.24s WALL (       1 calls)
     electrons    :    218.45s CPU    222.75s WALL (       1 calls)
     forces       :      1.92s CPU      2.00s WALL (       1 calls)
     stress       :      7.64s CPU      7.70s WALL (       1 calls)

     Called by init_run:
     wfcinit      :      4.63s CPU      4.76s WALL (       1 calls)
     potinit      :      0.12s CPU      0.13s WALL (       1 calls)
     hinit0       :      0.10s CPU      0.10s WALL (       1 calls)

     Called by electrons:
     c_bands      :    189.29s CPU    192.83s WALL (      13 calls)
     sum_band     :     27.78s CPU     28.32s WALL (      13 calls)
     v_of_rho     :      0.20s CPU      0.22s WALL (      14 calls)
     newd         :      0.29s CPU      0.39s WALL (      14 calls)
     PAW_pot      :      0.78s CPU      0.86s WALL (      14 calls)
     mix_rho      :      0.06s CPU      0.07s WALL (      13 calls)

     Called by c_bands:
     init_us_2    :      0.91s CPU      0.93s WALL (    1015 calls)
     cegterg      :    185.71s CPU    189.11s WALL (     455 calls)

     Called by *egterg:
     cdiaghg      :     20.34s CPU     20.62s WALL (    1486 calls)
     h_psi        :    110.61s CPU    113.01s WALL (    1521 calls)
     s_psi        :      4.08s CPU      4.11s WALL (    1521 calls)
     g_psi        :      0.18s CPU      0.18s WALL (    1031 calls)

     Called by h_psi:
     h_psi:calbec :      8.23s CPU      8.29s WALL (    1521 calls)
     vloc_psi     :     97.62s CPU     99.88s WALL (    1521 calls)
     add_vuspsi   :      4.27s CPU      4.33s WALL (    1521 calls)

     General routines
     calbec       :     13.84s CPU     13.94s WALL (    2151 calls)
     fft          :      0.21s CPU      0.23s WALL (     205 calls)
     ffts         :      0.02s CPU      0.02s WALL (      27 calls)
     fftw         :    116.62s CPU    119.13s WALL (  438501 calls)
     interpolate  :      0.03s CPU      0.04s WALL (      14 calls)
 
     Parallel routines
     fft_scatt_xy :      7.62s CPU      7.75s WALL (  438733 calls)
     fft_scatt_yz :     96.03s CPU     98.24s WALL (  438733 calls)
 
     PWSCF        :   3m59.38s CPU   4m 5.18s WALL

 
   This run was terminated on:  23:38: 3  29Nov2021            

=------------------------------------------------------------------------------=
   JOB DONE.
=------------------------------------------------------------------------------=
