
     Program PWSCF v.6.7MaX starts on 29Nov2021 at 23:17:17 

     This program is part of the open-source Quantum ESPRESSO suite
     for quantum simulation of materials; please cite
         "P. Giannozzi et al., J. Phys.:Condens. Matter 21 395502 (2009);
         "P. Giannozzi et al., J. Phys.:Condens. Matter 29 465901 (2017);
          URL http://www.quantum-espresso.org", 
     in publications or presentations arising from this work. More details at
     http://www.quantum-espresso.org/quote

     Parallel version (MPI & OpenMP), running on      72 processor cores
     Number of MPI processes:                72
     Threads/MPI process:                     1

     MPI processes distributed on     1 nodes
     R & G space division:  proc/nbgrp/npool/nimage =      72
     Reading input from bcc_4.in
Warning: card &CELL ignored
Warning: card CELL_DYNAMICS = 'BFGS', ignored
Warning: card CELL_FACTOR = 2.0, ignored
Warning: card PRESS = 0.0, ignored
Warning: card / ignored

     Current dimensions of program PWSCF are:
     Max number of different atomic species (ntypx) = 10
     Max number of k-points (npk) =  40000
     Max angular momentum in pseudopotentials (lmaxx) =  3
     file Pd.pbe-spn-kjpaw_psl.1.0.0.UPF: wavefunction(s)  4S 5S 4D renormalized

     Subspace diagonalization in iterative solution of the eigenvalue problem:
     one sub-group per band group will be used
     ELPA distributed-memory algorithm (size of sub-group:  8*  8 procs)

     Found symmetry operation: I + (  0.2500  0.2500  0.2500)
     This is a supercell, fractional translations are disabled
     Message from routine setup:
     using ibrav=0 with symmetry is DISCOURAGED, use correct ibrav instead
 
     Parallelization info
     --------------------
     sticks:   dense  smooth     PW     G-vecs:    dense   smooth      PW
     Min          55      36     10                 2651     1420     210
     Max          56      37     11                 2658     1427     215
     Sum        4001    2637    749               191063   102399   15275
 


     bravais-lattice index     =            0
     lattice parameter (alat)  =      11.4293  a.u.
     unit-cell volume          =    1269.4434 (a.u.)^3
     number of atoms/cell      =           16
     number of atomic types    =            1
     number of electrons       =       288.00
     number of Kohn-Sham states=          173
     kinetic-energy cutoff     =      71.0000  Ry
     charge density cutoff     =     430.0000  Ry
     scf convergence threshold =      1.0E-06
     mixing beta               =       0.1000
     number of iterations used =           10  TF        mixing
     Exchange-correlation= SLA  PW   PBX  PBC
                           (   1   4   3   4   0   0   0)

     celldm(1)=  11.429280  celldm(2)=   0.000000  celldm(3)=   0.000000
     celldm(4)=   0.000000  celldm(5)=   0.000000  celldm(6)=   0.000000

     crystal axes: (cart. coord. in units of alat)
               a(1) = (   0.947368   0.000000   0.000000 )  
               a(2) = (   0.000000   0.947368   0.000000 )  
               a(3) = (   0.000000   0.000000   0.947368 )  

     reciprocal axes: (cart. coord. in units 2 pi/alat)
               b(1) = (  1.055556  0.000000  0.000000 )  
               b(2) = (  0.000000  1.055556  0.000000 )  
               b(3) = (  0.000000  0.000000  1.055556 )  


     PseudoPot. # 1 for Pd read from file:
     /rds/homes/b/bxp912/pp/Pd.pbe-spn-kjpaw_psl.1.0.0.UPF
     MD5 check sum: 790f2ebce206edfd9790dcb9844eca51
     Pseudo is Projector augmented-wave + core cor, Zval = 18.0
     Generated using &quot;atomic&quot; code by A. Dal Corso  v.6.3
     Shape of augmentation charge: PSQ
     Using radial grid of 1235 points,  6 beta functions with: 
                l(1) =   0
                l(2) =   0
                l(3) =   1
                l(4) =   1
                l(5) =   2
                l(6) =   2
     Q(r) pseudized with 0 coefficients 


     atomic species   valence    mass     pseudopotential
        Pd            18.00   106.42000     Pd( 1.00)

     48 Sym. Ops., with inversion, found



   Cartesian axes

     site n.     atom                  positions (alat units)
         1           Pd  tau(   1) = (   0.0000000   0.0000000   0.0000000  )
         2           Pd  tau(   2) = (   0.2368421   0.2368421   0.2368421  )
         3           Pd  tau(   3) = (   0.0000000   0.0000000   0.4736842  )
         4           Pd  tau(   4) = (   0.2368421   0.2368421   0.7105263  )
         5           Pd  tau(   5) = (   0.0000000   0.4736842   0.0000000  )
         6           Pd  tau(   6) = (   0.2368421   0.7105263   0.2368421  )
         7           Pd  tau(   7) = (   0.0000000   0.4736842   0.4736842  )
         8           Pd  tau(   8) = (   0.2368421   0.7105263   0.7105263  )
         9           Pd  tau(   9) = (   0.4736842   0.0000000   0.0000000  )
        10           Pd  tau(  10) = (   0.7105263   0.2368421   0.2368421  )
        11           Pd  tau(  11) = (   0.4736842   0.0000000   0.4736842  )
        12           Pd  tau(  12) = (   0.7105263   0.2368421   0.7105263  )
        13           Pd  tau(  13) = (   0.4736842   0.4736842   0.0000000  )
        14           Pd  tau(  14) = (   0.7105263   0.7105263   0.2368421  )
        15           Pd  tau(  15) = (   0.4736842   0.4736842   0.4736842  )
        16           Pd  tau(  16) = (   0.7105263   0.7105263   0.7105263  )

     number of k points=    35  Marzari-Vanderbilt smearing, width (Ry)=  0.0400
                       cart. coord. in units 2pi/alat
        k(    1) = (   0.0586420   0.0586420   0.0586420), wk =   0.0219479
        k(    2) = (   0.0586420   0.0586420   0.1759259), wk =   0.0658436
        k(    3) = (   0.0586420   0.0586420   0.2932099), wk =   0.0658436
        k(    4) = (   0.0586420   0.0586420   0.4104938), wk =   0.0658436
        k(    5) = (   0.0586420   0.0586420  -0.5277778), wk =   0.0329218
        k(    6) = (   0.0586420   0.1759259   0.1759259), wk =   0.0658436
        k(    7) = (   0.0586420   0.1759259   0.2932099), wk =   0.1316872
        k(    8) = (   0.0586420   0.1759259   0.4104938), wk =   0.1316872
        k(    9) = (   0.0586420   0.1759259  -0.5277778), wk =   0.0658436
        k(   10) = (   0.0586420   0.2932099   0.2932099), wk =   0.0658436
        k(   11) = (   0.0586420   0.2932099   0.4104938), wk =   0.1316872
        k(   12) = (   0.0586420   0.2932099  -0.5277778), wk =   0.0658436
        k(   13) = (   0.0586420   0.4104938   0.4104938), wk =   0.0658436
        k(   14) = (   0.0586420   0.4104938  -0.5277778), wk =   0.0658436
        k(   15) = (   0.0586420  -0.5277778  -0.5277778), wk =   0.0164609
        k(   16) = (   0.1759259   0.1759259   0.1759259), wk =   0.0219479
        k(   17) = (   0.1759259   0.1759259   0.2932099), wk =   0.0658436
        k(   18) = (   0.1759259   0.1759259   0.4104938), wk =   0.0658436
        k(   19) = (   0.1759259   0.1759259  -0.5277778), wk =   0.0329218
        k(   20) = (   0.1759259   0.2932099   0.2932099), wk =   0.0658436
        k(   21) = (   0.1759259   0.2932099   0.4104938), wk =   0.1316872
        k(   22) = (   0.1759259   0.2932099  -0.5277778), wk =   0.0658436
        k(   23) = (   0.1759259   0.4104938   0.4104938), wk =   0.0658436
        k(   24) = (   0.1759259   0.4104938  -0.5277778), wk =   0.0658436
        k(   25) = (   0.1759259  -0.5277778  -0.5277778), wk =   0.0164609
        k(   26) = (   0.2932099   0.2932099   0.2932099), wk =   0.0219479
        k(   27) = (   0.2932099   0.2932099   0.4104938), wk =   0.0658436
        k(   28) = (   0.2932099   0.2932099  -0.5277778), wk =   0.0329218
        k(   29) = (   0.2932099   0.4104938   0.4104938), wk =   0.0658436
        k(   30) = (   0.2932099   0.4104938  -0.5277778), wk =   0.0658436
        k(   31) = (   0.2932099  -0.5277778  -0.5277778), wk =   0.0164609
        k(   32) = (   0.4104938   0.4104938   0.4104938), wk =   0.0219479
        k(   33) = (   0.4104938   0.4104938  -0.5277778), wk =   0.0329218
        k(   34) = (   0.4104938  -0.5277778  -0.5277778), wk =   0.0164609
        k(   35) = (  -0.5277778  -0.5277778  -0.5277778), wk =   0.0027435

     Dense  grid:   191063 G-vectors     FFT dimensions: (  72,  72,  72)

     Smooth grid:   102399 G-vectors     FFT dimensions: (  60,  60,  60)

     Estimated max dynamical RAM per process >      30.45 MB

     Estimated total dynamical RAM >       2.14 GB

     Check: negative core charge=   -0.000002

     Initial potential from superposition of free atoms

     starting charge  287.99388, renormalised to  288.00000
     Starting wfcs are  160 randomized atomic wfcs +   13 random wfcs
     Checking if some PAW data can be deallocated... 

     total cpu time spent up to now is        4.9 secs

     Self-consistent Calculation

     iteration #  1     ecut=    71.00 Ry     beta= 0.10
     Davidson diagonalization with overlap
     ethr =  1.00E-02,  avg # of iterations =  3.0

     Threshold (ethr) on eigenvalues was too large:
     Diagonalizing with lowered threshold

     Davidson diagonalization with overlap
     ethr =  3.10E-05,  avg # of iterations =  4.5

     total cpu time spent up to now is       31.0 secs

     total energy              =   -8191.47814368 Ry
     estimated scf accuracy    <       0.07980638 Ry

     iteration #  2     ecut=    71.00 Ry     beta= 0.10
     Davidson diagonalization with overlap
     ethr =  2.77E-05,  avg # of iterations =  1.0

     total cpu time spent up to now is       36.8 secs

     total energy              =   -8191.45410419 Ry
     estimated scf accuracy    <       0.06222207 Ry

     iteration #  3     ecut=    71.00 Ry     beta= 0.10
     Davidson diagonalization with overlap
     ethr =  2.16E-05,  avg # of iterations =  2.0

     total cpu time spent up to now is       45.5 secs

     total energy              =   -8191.46118874 Ry
     estimated scf accuracy    <       0.00447459 Ry

     iteration #  4     ecut=    71.00 Ry     beta= 0.10
     Davidson diagonalization with overlap
     ethr =  1.55E-06,  avg # of iterations =  2.2

     total cpu time spent up to now is       54.6 secs

     total energy              =   -8191.46098091 Ry
     estimated scf accuracy    <       0.00153046 Ry

     iteration #  5     ecut=    71.00 Ry     beta= 0.10
     Davidson diagonalization with overlap
     ethr =  5.31E-07,  avg # of iterations =  1.2

     total cpu time spent up to now is       61.6 secs

     total energy              =   -8191.46065663 Ry
     estimated scf accuracy    <       0.00070010 Ry

     iteration #  6     ecut=    71.00 Ry     beta= 0.10
     Davidson diagonalization with overlap
     ethr =  2.43E-07,  avg # of iterations =  2.0

     total cpu time spent up to now is       72.9 secs

     total energy              =   -8191.46086990 Ry
     estimated scf accuracy    <       0.00013476 Ry

     iteration #  7     ecut=    71.00 Ry     beta= 0.10
     Davidson diagonalization with overlap
     ethr =  4.68E-08,  avg # of iterations =  2.0

     total cpu time spent up to now is       84.9 secs

     total energy              =   -8191.46090789 Ry
     estimated scf accuracy    <       0.00003000 Ry

     iteration #  8     ecut=    71.00 Ry     beta= 0.10
     Davidson diagonalization with overlap
     ethr =  1.04E-08,  avg # of iterations =  2.0

     total cpu time spent up to now is       94.4 secs

     total energy              =   -8191.46090383 Ry
     estimated scf accuracy    <       0.00001537 Ry

     iteration #  9     ecut=    71.00 Ry     beta= 0.10
     Davidson diagonalization with overlap
     ethr =  5.34E-09,  avg # of iterations =  2.0

     total cpu time spent up to now is      102.3 secs

     total energy              =   -8191.46090768 Ry
     estimated scf accuracy    <       0.00000122 Ry

     iteration # 10     ecut=    71.00 Ry     beta= 0.10
     Davidson diagonalization with overlap
     ethr =  4.23E-10,  avg # of iterations =  1.9

     total cpu time spent up to now is      110.6 secs

     End of self-consistent calculation

          k = 0.0586 0.0586 0.0586 ( 12866 PWs)   bands (ev):

   -58.1974 -58.0602 -58.0602 -58.0602 -58.0378 -58.0378 -58.0377 -58.0358
   -58.0358 -58.0358 -58.0356 -58.0356 -58.0356 -58.0258 -58.0256 -57.9188
   -24.3561 -24.3561 -24.3561 -24.3513 -24.3513 -24.3513 -24.0944 -24.0944
   -24.0845 -23.9708 -23.9622 -23.9622 -23.9622 -23.9312 -23.9312 -23.9059
   -23.9058 -23.9058 -23.8504 -23.8504 -23.8106 -23.7852 -23.7851 -23.7851
   -23.7661 -23.7661 -23.7661 -23.7443 -23.7443 -23.7443 -23.7392 -23.7392
   -23.7392 -23.7271 -23.7270 -23.7270 -23.7090 -23.7090 -23.7090 -23.4424
   -23.4391 -23.4391 -23.4391 -23.4341 -23.4341 -23.4341 -23.4315 -23.4315
    17.8054  19.2344  19.2344  19.3607  19.3607  19.3607  19.3715  19.3715
    19.3715  20.8222  20.8222  20.8222  20.8435  20.8435  20.8435  21.0837
    21.0837  21.0837  21.2194  21.2194  21.2194  21.3694  21.5418  21.5418
    21.5961  21.5962  21.5962  21.8638  21.8638  22.0089  22.0913  22.0913
    22.0913  22.5239  22.5239  22.5920  23.1809  23.1809  23.1810  23.3185
    23.3185  23.3185  23.4709  23.4709  23.4709  23.6103  23.6103  23.6103
    24.5334  24.5334  24.5334  24.9235  24.9235  24.9235  25.2510  25.2510
    25.2510  25.2768  25.2768  25.2768  25.3182  25.3182  25.5055  25.5056
    25.5056  25.7324  25.7324  25.7324  25.8095  25.8095  25.8095  25.8095
    26.9524  27.0839  27.0839  27.1680  27.1680  27.1680  27.3066  27.3066
    27.3066  27.3726  27.3726  27.3726  28.1003  28.1003  28.1003  28.1414
    28.1414  28.1414  28.3816  28.3817  28.3817  36.4864  36.9569  36.9569
    36.9570  37.0111  37.0111  37.0526  37.1401  37.1401  37.1401  37.3482
    37.3482  37.3672  37.8539  38.4611  38.4611

          k = 0.0586 0.0586 0.1759 ( 12864 PWs)   bands (ev):

   -58.1926 -58.0849 -58.0592 -58.0592 -58.0406 -58.0405 -58.0371 -58.0355
   -58.0355 -58.0350 -58.0342 -58.0342 -58.0267 -58.0261 -58.0124 -57.9224
   -24.3436 -24.3436 -24.3419 -24.3376 -24.3293 -24.3293 -24.0999 -24.0840
   -24.0683 -24.0299 -24.0129 -24.0129 -24.0112 -24.0087 -23.9587 -23.9587
   -23.9056 -23.8610 -23.8427 -23.8408 -23.8228 -23.7846 -23.7846 -23.7712
   -23.7539 -23.7503 -23.7503 -23.7494 -23.7480 -23.7350 -23.7350 -23.7278
   -23.7278 -23.7195 -23.7195 -23.6702 -23.6644 -23.6644 -23.6534 -23.4670
   -23.4542 -23.4542 -23.4520 -23.4478 -23.4410 -23.4391 -23.4391 -23.4356
    17.9518  19.3065  19.3465  19.4317  19.4317  19.4635  19.4635  19.4826
    19.4916  20.7494  20.8234  20.8442  20.8886  20.8886  20.9522  20.9522
    20.9951  20.9951  21.1179  21.1242  21.1242  21.1508  21.1512  21.2911
    21.4840  21.6394  21.6394  21.6710  22.0460  22.0461  22.2606  22.2952
    22.4910  22.5246  22.5454  22.6846  22.8583  22.8583  22.9430  23.1238
    23.1238  23.1496  23.5958  23.5958  23.7760  23.7760  23.8223  23.9808
    24.1607  24.9186  24.9186  24.9394  24.9394  25.1615  25.1615  25.1823
    25.1823  25.1986  25.2819  25.3022  25.3022  25.3046  25.3210  25.3655
    25.4332  25.5022  25.5022  25.7372  25.7718  25.7720  25.8051  25.8060
    26.2521  26.5651  26.6688  26.7192  26.8602  27.0615  27.0616  27.0681
    27.3382  27.3382  27.4446  27.4446  27.9584  27.9584  28.1879  28.1879
    28.6576  28.6576  29.0939  29.1643  29.3768  35.5980  36.1948  36.4218
    36.9110  36.9515  37.0981  37.1302  37.1302  37.4014  37.4211  37.5002
    37.6437  37.6437  38.3002  39.0076  39.5033

          k = 0.0586 0.0586 0.2932 ( 12827 PWs)   bands (ev):

   -58.1831 -58.1089 -58.0572 -58.0572 -58.0438 -58.0438 -58.0358 -58.0350
   -58.0349 -58.0338 -58.0335 -58.0335 -58.0281 -58.0272 -57.9906 -57.9296
   -24.3144 -24.3143 -24.3138 -24.3106 -24.2911 -24.2911 -24.1007 -24.0965
   -24.0875 -24.0805 -24.0805 -24.0636 -24.0447 -24.0443 -24.0299 -24.0299
   -23.8981 -23.8811 -23.8773 -23.8527 -23.7813 -23.7813 -23.7720 -23.7698
   -23.7643 -23.7569 -23.7569 -23.7319 -23.7319 -23.7278 -23.7278 -23.6957
   -23.6830 -23.6619 -23.6619 -23.6165 -23.6100 -23.6099 -23.6010 -23.5077
   -23.4789 -23.4789 -23.4773 -23.4748 -23.4601 -23.4543 -23.4543 -23.4514
    18.2369  19.4498  19.5618  19.5822  19.5822  19.6330  19.6330  19.7169
    19.7213  20.2662  20.6755  20.7504  20.7504  20.8304  20.8478  20.8478
    20.8514  20.9195  20.9511  21.0405  21.0405  21.1057  21.1457  21.1457
    21.2166  21.3903  21.8889  21.8889  22.1531  22.1531  22.4787  22.4969
    22.4969  22.5299  22.6792  22.6792  22.7102  22.7336  22.7352  22.7555
    22.8199  23.3320  23.8141  23.9971  23.9971  24.0447  24.0447  24.2400
    24.2768  24.2768  24.4178  24.6525  24.6525  24.9672  25.0296  25.0296
    25.1405  25.2466  25.2467  25.3396  25.3407  25.4137  25.4137  25.4184
    25.4581  25.7028  25.7045  25.7139  25.7462  25.7900  25.7900  25.7967
    25.8007  26.0227  26.2537  26.3022  26.4653  26.9374  26.9675  26.9675
    27.3304  27.3304  27.3996  27.3996  27.8115  27.8115  28.3480  28.3480
    28.8399  28.8399  30.2280  30.2488  30.4408  34.6100  35.0234  35.4044
    36.7230  36.8303  37.0265  37.1118  37.6653  37.6653  38.1275  38.1282
    38.4183  38.4183  39.3458  40.0792  40.4342

          k = 0.0586 0.0586 0.4105 ( 12829 PWs)   bands (ev):

   -58.1694 -58.1316 -58.0544 -58.0544 -58.0474 -58.0474 -58.0343 -58.0343
   -58.0340 -58.0334 -58.0333 -58.0322 -58.0299 -58.0287 -57.9710 -57.9402
   -24.2729 -24.2710 -24.2705 -24.2705 -24.2390 -24.2390 -24.1616 -24.1580
   -24.1499 -24.1499 -24.1045 -24.1045 -24.0971 -24.0706 -24.0335 -24.0128
   -23.9494 -23.9282 -23.8538 -23.8343 -23.7966 -23.7864 -23.7765 -23.7765
   -23.7638 -23.7638 -23.7299 -23.7299 -23.7281 -23.7281 -23.6970 -23.6265
   -23.6193 -23.6059 -23.6059 -23.5674 -23.5617 -23.5587 -23.5587 -23.5531
   -23.5146 -23.5144 -23.5130 -23.5130 -23.4881 -23.4796 -23.4796 -23.4772
    18.6447  19.6622  19.7083  19.8061  19.8061  19.8615  19.8724  19.8724
    20.0379  20.0440  20.2804  20.4209  20.4209  20.5061  20.5061  20.5870
    20.7257  20.8428  20.8510  20.8776  20.9773  21.1083  21.2730  21.2730
    21.4181  21.4181  21.9330  21.9330  22.0940  22.0940  22.4559  22.4559
    22.4909  22.5473  22.6207  22.6482  22.7081  22.7081  23.0011  23.2772
    23.2807  23.5014  23.5864  23.5864  23.7782  23.9444  23.9444  24.3321
    24.3321  24.3976  24.3976  24.5487  24.6133  24.6385  24.7159  24.8358
    24.8358  24.9093  25.0308  25.0308  25.4214  25.4365  25.5939  25.6135
    25.6179  25.7574  25.7583  25.7852  25.7976  25.8459  25.9110  25.9110
    25.9700  26.0010  26.0880  26.2757  26.2757  26.7171  26.7315  26.7316
    27.0751  27.0751  27.4857  27.4857  27.6943  27.6943  28.5484  28.5484
    28.8584  28.8584  31.3221  31.5154  31.5484  33.5395  33.8502  34.1660
    36.6413  36.7365  36.9347  36.9491  38.5185  38.5185  39.0906  39.1130
    39.4051  39.4051  40.4139  40.8616  40.8616

          k = 0.0586 0.0586-0.5278 ( 12824 PWs)   bands (ev):

   -58.1520 -58.1520 -58.0511 -58.0511 -58.0510 -58.0510 -58.0338 -58.0337
   -58.0336 -58.0336 -58.0320 -58.0319 -58.0305 -58.0304 -57.9541 -57.9541
   -24.2208 -24.2207 -24.2204 -24.2204 -24.2147 -24.2147 -24.2147 -24.2147
   -24.1757 -24.1757 -24.1757 -24.1756 -24.0876 -24.0876 -23.9951 -23.9951
   -23.9738 -23.9738 -23.8248 -23.8248 -23.8107 -23.8107 -23.7705 -23.7705
   -23.7705 -23.7705 -23.7286 -23.7286 -23.7286 -23.7286 -23.6260 -23.6260
   -23.5654 -23.5654 -23.5625 -23.5625 -23.5556 -23.5556 -23.5555 -23.5555
   -23.5241 -23.5241 -23.5147 -23.5147 -23.5146 -23.5146 -23.5115 -23.5115
    19.1486  19.1486  19.9406  19.9406  20.0924  20.0924  20.0924  20.0924
    20.1698  20.1698  20.1698  20.1698  20.2167  20.2168  20.3996  20.3996
    20.4335  20.4335  20.8962  20.8962  20.9459  20.9459  21.5774  21.5774
    21.5774  21.5774  21.7573  21.7573  21.7573  21.7573  22.5351  22.5351
    22.5852  22.5852  22.9443  22.9443  22.9443  22.9443  23.2290  23.2290
    23.2663  23.2663  23.2663  23.2663  23.8941  23.8941  23.9056  23.9056
    24.2330  24.2330  24.6010  24.6010  24.6010  24.6010  24.7493  24.7493
    24.7494  24.7494  25.2312  25.2312  25.4365  25.4365  25.5157  25.5158
    25.5248  25.5248  25.7718  25.7719  25.7724  25.7724  25.8045  25.8046
    26.3637  26.3637  26.3637  26.3637  26.4279  26.4280  26.7141  26.7141
    26.7141  26.7141  27.5871  27.5871  27.5871  27.5871  28.7398  28.7398
    28.7398  28.7398  32.4327  32.4327  32.6883  32.6883  32.8413  32.8413
    36.6606  36.6606  36.9020  36.9021  39.6111  39.6111  39.6111  39.6111
    40.2368  40.2368  40.2869  40.2872  40.5428

          k = 0.0586 0.1759 0.1759 ( 12848 PWs)   bands (ev):

   -58.1879 -58.0831 -58.0831 -58.0581 -58.0475 -58.0398 -58.0398 -58.0352
   -58.0336 -58.0336 -58.0286 -58.0279 -58.0262 -58.0128 -58.0128 -57.9259
   -24.3405 -24.3298 -24.3298 -24.3170 -24.3169 -24.2983 -24.1108 -24.0779
   -24.0675 -24.0565 -24.0565 -24.0443 -24.0429 -24.0351 -23.9931 -23.9224
   -23.8950 -23.8950 -23.8432 -23.8412 -23.8412 -23.7939 -23.7750 -23.7750
   -23.7663 -23.7614 -23.7614 -23.7436 -23.7436 -23.7396 -23.7345 -23.7209
   -23.7039 -23.6829 -23.6722 -23.6721 -23.6323 -23.6114 -23.6114 -23.5009
   -23.4785 -23.4644 -23.4644 -23.4518 -23.4518 -23.4491 -23.4339 -23.4316
    18.0939  19.3948  19.4402  19.4756  19.5523  19.5523  19.5689  19.5792
    19.5792  20.6923  20.6923  20.8872  20.8872  20.9119  20.9483  20.9483
    20.9599  20.9675  21.0107  21.0107  21.1022  21.1450  21.1483  21.2853
    21.2853  21.5050  21.5262  21.7890  21.8852  22.3173  22.3780  22.3785
    22.3786  22.4050  22.5127  22.6619  22.6619  22.8395  22.8631  23.0275
    23.4484  23.4484  23.5192  23.5192  23.6533  23.8337  24.0402  24.0403
    24.4251  24.5446  24.5446  24.8583  24.8583  24.9800  25.1650  25.1651
    25.1776  25.1817  25.1987  25.1987  25.2153  25.3296  25.4170  25.4171
    25.5396  25.6883  25.6884  25.6912  25.7456  25.7457  25.7896  25.7924
    26.2994  26.3136  26.3136  26.4439  26.6956  26.7064  26.7064  26.7973
    26.7973  27.1175  27.4052  27.4910  27.5571  28.3145  28.9236  28.9236
    29.2361  29.2361  29.3934  29.5222  29.5222  34.7878  35.6606  36.6541
    36.9221  36.9281  37.0906  37.0906  37.5524  37.6128  37.6128  37.6468
    37.7599  38.1796  38.3887  38.7315  40.2740

          k = 0.0586 0.1759 0.2932 ( 12840 PWs)   bands (ev):

   -58.1787 -58.1065 -58.0797 -58.0561 -58.0547 -58.0430 -58.0383 -58.0346
   -58.0330 -58.0326 -58.0296 -58.0269 -58.0239 -58.0137 -57.9917 -57.9328
   -24.3210 -24.3030 -24.3025 -24.2929 -24.2814 -24.2520 -24.1205 -24.1191
   -24.1149 -24.0951 -24.0935 -24.0889 -24.0581 -24.0483 -24.0109 -23.9686
   -23.9043 -23.8954 -23.8369 -23.8346 -23.8296 -23.8247 -23.7966 -23.7824
   -23.7822 -23.7699 -23.7595 -23.7410 -23.7381 -23.7160 -23.7082 -23.6788
   -23.6757 -23.6520 -23.6364 -23.6197 -23.5905 -23.5624 -23.5616 -23.5496
   -23.5121 -23.4849 -23.4848 -23.4769 -23.4675 -23.4642 -23.4390 -23.4377
    18.3695  19.5385  19.5933  19.6501  19.6979  19.7414  19.7423  19.7824
    19.7969  20.2624  20.5313  20.6813  20.7890  20.7924  20.7946  20.8906
    20.9329  20.9507  20.9658  21.0023  21.0203  21.0322  21.1294  21.3350
    21.3703  21.5748  21.6013  21.6342  21.8465  22.1587  22.3319  22.4263
    22.5116  22.5769  22.6202  22.6552  22.6593  22.6978  22.7821  22.9723
    23.0375  23.6488  23.8018  23.8368  23.9692  23.9747  24.0621  24.1408
    24.1857  24.2037  24.3978  24.5601  24.6153  24.7956  24.9050  24.9131
    24.9991  25.0377  25.0537  25.2070  25.2557  25.3256  25.3983  25.4042
    25.5964  25.6739  25.6765  25.7830  25.7936  25.8304  25.8729  25.9138
    26.0642  26.1584  26.2474  26.2643  26.2811  26.3180  26.3953  26.6821
    26.8417  27.0870  27.1123  27.5019  27.5457  28.5476  28.6556  29.4856
    29.5398  29.9116  29.9308  30.4374  30.5213  33.9208  34.7477  35.7155
    37.0232  37.1082  37.1600  37.5041  37.5642  37.6389  37.9131  38.3993
    38.4184  38.6226  39.3127  39.5450  41.3109

          k = 0.0586 0.1759 0.4105 ( 12835 PWs)   bands (ev):

   -58.1653 -58.1285 -58.0748 -58.0619 -58.0534 -58.0465 -58.0364 -58.0339
   -58.0329 -58.0318 -58.0312 -58.0281 -58.0201 -58.0151 -57.9728 -57.9430
   -24.2864 -24.2641 -24.2617 -24.2584 -24.2331 -24.1926 -24.1820 -24.1660
   -24.1563 -24.1533 -24.1249 -24.1117 -24.1104 -24.0468 -24.0287 -23.9731
   -23.9459 -23.8815 -23.8750 -23.8247 -23.8231 -23.8103 -23.7980 -23.7935
   -23.7805 -23.7788 -23.7509 -23.7397 -23.7392 -23.6973 -23.6811 -23.6569
   -23.6171 -23.6096 -23.6006 -23.5903 -23.5717 -23.5535 -23.5494 -23.5189
   -23.5169 -23.5150 -23.5137 -23.5132 -23.4947 -23.4850 -23.4551 -23.4546
    18.7607  19.7431  19.7573  19.7784  19.9133  19.9489  19.9702  19.9748
    20.0852  20.0980  20.2844  20.3259  20.4970  20.5242  20.5978  20.6159
    20.6704  20.7609  20.9117  20.9832  21.1303  21.2100  21.2487  21.3139
    21.3726  21.6440  21.7627  21.7792  21.8000  21.9779  22.2921  22.3408
    22.5131  22.5224  22.5983  22.6647  22.7776  22.9216  23.1152  23.1276
    23.1620  23.2720  23.5472  23.8477  23.8560  23.9750  24.1846  24.2082
    24.2754  24.2877  24.3063  24.3483  24.3519  24.4184  24.6114  24.7099
    24.8367  24.8603  24.9939  25.1225  25.3126  25.3484  25.3869  25.5354
    25.5395  25.5734  25.5831  25.7801  25.8083  25.8122  25.8398  25.9404
    25.9523  25.9928  26.2102  26.2379  26.3529  26.4127  26.6153  26.6516
    26.7302  26.7787  26.9466  27.3131  27.7643  28.3571  28.8468  29.4065
    29.7783  30.1078  30.9589  31.5728  31.7421  32.9820  33.7206  34.4533
    36.9524  36.9609  37.5249  37.6482  37.7279  38.4127  38.5041  39.3303
    39.3938  39.7107  39.9446  40.3692  40.6073

          k = 0.0586 0.1759-0.5278 ( 12830 PWs)   bands (ev):

   -58.1484 -58.1484 -58.0688 -58.0687 -58.0501 -58.0501 -58.0341 -58.0341
   -58.0333 -58.0333 -58.0296 -58.0296 -58.0173 -58.0172 -57.9565 -57.9564
   -24.2389 -24.2389 -24.2151 -24.2151 -24.2144 -24.2144 -24.2107 -24.2107
   -24.1752 -24.1752 -24.1230 -24.1230 -24.1220 -24.1220 -23.9908 -23.9908
   -23.9298 -23.9298 -23.8424 -23.8424 -23.8124 -23.8124 -23.8031 -23.8030
   -23.7871 -23.7870 -23.7394 -23.7394 -23.6882 -23.6882 -23.6779 -23.6779
   -23.6021 -23.6021 -23.5610 -23.5610 -23.5542 -23.5541 -23.5486 -23.5486
   -23.5296 -23.5296 -23.5137 -23.5137 -23.4827 -23.4827 -23.4808 -23.4808
    19.2378  19.2378  20.0079  20.0079  20.0174  20.0174  20.1870  20.1870
    20.2389  20.2390  20.2659  20.2659  20.3030  20.3030  20.3830  20.3830
    20.4534  20.4534  20.9746  20.9746  21.0895  21.0895  21.4738  21.4738
    21.5142  21.5142  21.6373  21.6373  22.0078  22.0078  22.2933  22.2933
    22.5525  22.5526  22.5732  22.5732  22.9771  22.9771  23.2238  23.2238
    23.4947  23.4947  23.5429  23.5429  23.6566  23.6566  23.6782  23.6782
    24.3542  24.3543  24.4351  24.4351  24.6223  24.6223  24.7054  24.7054
    24.7875  24.7875  24.8090  24.8090  25.3296  25.3296  25.4598  25.4598
    25.4815  25.4815  25.7183  25.7183  25.7836  25.7837  25.8644  25.8644
    25.9879  25.9879  26.1977  26.1977  26.5070  26.5070  26.6421  26.6421
    26.7142  26.7142  27.0102  27.0102  28.0470  28.0470  29.1550  29.1550
    30.0241  30.0241  31.9851  31.9851  32.6485  32.6485  33.1002  33.1002
    36.9147  36.9147  37.5355  37.5355  38.7142  38.7142  39.4746  39.4746
    39.5985  39.5985  40.4350  40.5285  40.5294

          k = 0.0586 0.2932 0.2932 ( 12838 PWs)   bands (ev):

   -58.1699 -58.1017 -58.1017 -58.0657 -58.0542 -58.0415 -58.0414 -58.0340
   -58.0320 -58.0320 -58.0317 -58.0273 -58.0154 -57.9940 -57.9940 -57.9392
   -24.3113 -24.2793 -24.2792 -24.2627 -24.2626 -24.1985 -24.1453 -24.1453
   -24.1408 -24.1407 -24.1232 -24.1201 -24.0823 -24.0398 -23.9703 -23.9059
   -23.8990 -23.8990 -23.8859 -23.8859 -23.8292 -23.8104 -23.8076 -23.7937
   -23.7937 -23.7705 -23.7705 -23.7574 -23.7574 -23.7484 -23.6863 -23.6398
   -23.6265 -23.6264 -23.6145 -23.6071 -23.6023 -23.5634 -23.5527 -23.5187
   -23.5187 -23.4976 -23.4976 -23.4845 -23.4840 -23.4840 -23.4335 -23.4322
    18.6239  19.6647  19.6836  19.8477  19.8973  19.9142  19.9142  19.9426
    19.9426  20.2152  20.2152  20.6071  20.6071  20.6633  20.7690  20.8156
    20.9574  21.0272  21.0272  21.0840  21.1156  21.1156  21.2466  21.2466
    21.4490  21.4521  21.6049  21.6635  21.6679  22.0670  22.0671  22.1885
    22.5049  22.6553  22.6654  22.6694  22.6695  22.7151  22.7710  23.2545
    23.3064  23.3385  23.3385  24.0158  24.0159  24.0489  24.0489  24.1143
    24.1989  24.2710  24.2710  24.3415  24.3415  24.5872  24.6624  24.6624
    24.8816  24.9857  25.1166  25.1166  25.1983  25.1983  25.3208  25.3549
    25.3562  25.6000  25.6020  25.6205  25.7820  25.8013  25.8093  25.9674
    26.0023  26.0487  26.0487  26.1897  26.1897  26.3889  26.3889  26.5017
    26.5017  26.6383  27.1811  27.5378  27.8354  28.8997  29.5694  29.5694
    30.4270  30.4270  30.7603  30.7603  30.8063  33.1526  34.0692  35.9499
    36.8081  36.8620  37.5998  37.5999  37.9429  38.2360  38.3748  38.3748
    38.6777  38.9805  39.2675  40.3161  40.3527

          k = 0.0586 0.2932 0.4105 ( 12811 PWs)   bands (ev):

   -58.1573 -58.1225 -58.0948 -58.0764 -58.0515 -58.0449 -58.0393 -58.0342
   -58.0332 -58.0321 -58.0308 -58.0282 -58.0082 -57.9975 -57.9763 -57.9487
   -24.2865 -24.2461 -24.2449 -24.2364 -24.2223 -24.2003 -24.1719 -24.1614
   -24.1610 -24.1593 -24.1554 -24.1330 -24.1267 -24.0120 -23.9790 -23.9336
   -23.9251 -23.8873 -23.8715 -23.8314 -23.8247 -23.8243 -23.8242 -23.8177
   -23.8158 -23.8048 -23.7784 -23.7571 -23.7544 -23.7103 -23.6742 -23.6669
   -23.6366 -23.5999 -23.5941 -23.5815 -23.5771 -23.5688 -23.5365 -23.5172
   -23.5156 -23.5130 -23.5096 -23.4963 -23.4828 -23.4818 -23.4387 -23.4381
    18.9774  19.7876  19.8234  19.8708  20.0848  20.1004  20.1051  20.1450
    20.1540  20.1895  20.1947  20.3551  20.4648  20.5530  20.5897  20.6697
    20.7209  20.8852  21.0512  21.1443  21.2229  21.2280  21.3171  21.3283
    21.4975  21.5113  21.5901  21.6300  21.7307  21.9474  22.0173  22.0821
    22.5183  22.6357  22.6825  22.7471  22.7649  22.8386  22.8900  22.9164
    22.9748  23.4288  23.6073  23.6287  23.6971  23.7708  23.8076  24.2343
    24.2480  24.3086  24.3099  24.4031  24.4293  24.4376  24.4465  24.6616
    24.7846  24.8160  24.9279  24.9921  25.0692  25.1595  25.2221  25.2638
    25.4424  25.4868  25.4935  25.5272  25.7222  25.7952  25.8381  25.8586
    25.8920  25.9682  26.0825  26.0884  26.0910  26.1462  26.1937  26.3742
    26.7984  26.9068  27.1595  27.4454  28.2376  29.1512  29.3341  30.1634
    30.5047  31.1196  31.3166  31.3711  32.1235  32.3204  33.2372  34.8994
    37.0946  37.3840  37.5753  37.7452  38.3708  38.4883  38.5733  39.0121
    39.2021  39.3397  39.3826  39.7800  40.1213

          k = 0.0586 0.2932-0.5278 ( 12828 PWs)   bands (ev):

   -58.1413 -58.1413 -58.0863 -58.0862 -58.0483 -58.0483 -58.0368 -58.0368
   -58.0325 -58.0325 -58.0295 -58.0294 -58.0022 -58.0022 -57.9612 -57.9611
   -24.2485 -24.2485 -24.2054 -24.2054 -24.2051 -24.2051 -24.2040 -24.2040
   -24.1754 -24.1753 -24.1622 -24.1622 -24.0585 -24.0585 -23.9761 -23.9761
   -23.8761 -23.8761 -23.8578 -23.8577 -23.8531 -23.8531 -23.8131 -23.8130
   -23.7999 -23.7999 -23.7568 -23.7568 -23.7481 -23.7481 -23.6530 -23.6530
   -23.6502 -23.6502 -23.5505 -23.5504 -23.5441 -23.5441 -23.5423 -23.5423
   -23.5395 -23.5395 -23.5139 -23.5139 -23.4554 -23.4554 -23.4549 -23.4549
    19.3936  19.3936  19.9435  19.9435  20.0990  20.0990  20.2822  20.2823
    20.3411  20.3411  20.4082  20.4082  20.4213  20.4213  20.4702  20.4702
    20.5048  20.5049  21.1474  21.1475  21.2722  21.2722  21.4375  21.4376
    21.4464  21.4465  21.4881  21.4882  22.0229  22.0229  22.1033  22.1033
    22.3860  22.3860  22.5645  22.5645  22.9597  22.9597  23.0863  23.0863
    23.3007  23.3007  23.3110  23.3110  23.5180  23.5180  23.9359  23.9359
    24.2590  24.2590  24.3355  24.3355  24.5501  24.5501  24.6959  24.6959
    24.7170  24.7170  24.7971  24.7971  25.0725  25.0725  25.3533  25.3534
    25.3728  25.3728  25.6195  25.6195  25.6265  25.6265  25.8253  25.8253
    25.9215  25.9215  25.9706  25.9706  26.0611  26.0611  26.2801  26.2801
    27.0255  27.0255  27.2303  27.2303  28.6946  28.6946  29.7780  29.7780
    31.3709  31.3709  31.4309  31.4309  32.3221  32.3221  33.5266  33.5266
    37.6065  37.6065  37.8618  37.8618  38.3230  38.3231  38.4247  38.4247
    39.5809  39.5809  40.3090  40.3090  40.5079

          k = 0.0586 0.4105 0.4105 ( 12806 PWs)   bands (ev):

   -58.1457 -58.1138 -58.1138 -58.0902 -58.0489 -58.0426 -58.0425 -58.0370
   -58.0324 -58.0310 -58.0310 -58.0289 -57.9977 -57.9817 -57.9817 -57.9571
   -24.2717 -24.2224 -24.2224 -24.2082 -24.2082 -24.2053 -24.2053 -24.1809
   -24.1809 -24.1763 -24.1753 -24.1493 -24.0627 -23.9866 -23.9149 -23.9149
   -23.9042 -23.9042 -23.8836 -23.8735 -23.8628 -23.8357 -23.8357 -23.8329
   -23.8104 -23.7777 -23.7777 -23.7672 -23.7650 -23.7650 -23.7478 -23.6514
   -23.6394 -23.5964 -23.5963 -23.5654 -23.5543 -23.5487 -23.5321 -23.5251
   -23.5226 -23.5226 -23.5137 -23.5137 -23.4552 -23.4552 -23.4332 -23.4323
    19.2639  19.8215  19.8630  19.8630  20.0202  20.1965  20.3271  20.3271
    20.3409  20.3409  20.3480  20.3480  20.4483  20.5202  20.5898  20.5966
    20.7148  21.2325  21.2325  21.2394  21.2394  21.3157  21.3157  21.3240
    21.4149  21.4170  21.5047  21.5421  21.7278  21.7278  21.9100  22.1731
    22.3230  22.5608  22.7299  22.7536  22.7899  22.8310  22.8495  22.8495
    23.2165  23.2165  23.2502  23.2502  23.2880  23.2880  23.8178  23.9721
    24.2432  24.3391  24.4803  24.4804  24.5676  24.5676  24.5889  24.6173
    24.7651  24.7652  24.8622  24.9933  25.0481  25.0481  25.0728  25.0728
    25.1452  25.3570  25.3603  25.3980  25.5379  25.7124  25.7304  25.7304
    25.8263  25.8843  25.9493  25.9493  25.9813  26.1185  26.1210  26.1210
    27.1272  27.1272  27.2672  27.4615  28.8081  29.9022  29.9804  29.9804
    30.9834  30.9834  31.5898  32.2754  32.5192  32.5192  32.5701  34.9361
    36.7443  36.7953  38.0801  38.0801  38.4955  38.4955  38.5532  39.0949
    39.3889  39.3922  39.3922  40.0550  40.4530

          k = 0.0586 0.4105-0.5278 ( 12802 PWs)   bands (ev):

   -58.1310 -58.1310 -58.1029 -58.1029 -58.0459 -58.0458 -58.0399 -58.0398
   -58.0316 -58.0316 -58.0299 -58.0298 -57.9888 -57.9888 -57.9682 -57.9681
   -24.2439 -24.2439 -24.1983 -24.1983 -24.1976 -24.1975 -24.1975 -24.1975
   -24.1936 -24.1936 -24.1778 -24.1778 -23.9851 -23.9851 -23.9538 -23.9537
   -23.8911 -23.8910 -23.8644 -23.8643 -23.8395 -23.8395 -23.8258 -23.8258
   -23.8197 -23.8197 -23.7966 -23.7966 -23.7748 -23.7748 -23.7070 -23.7070
   -23.6158 -23.6158 -23.5612 -23.5612 -23.5375 -23.5374 -23.5356 -23.5356
   -23.5331 -23.5331 -23.5173 -23.5173 -23.4385 -23.4385 -23.4384 -23.4384
    19.5747  19.5747  19.8567  19.8567  20.1828  20.1828  20.2860  20.2861
    20.4728  20.4728  20.4761  20.4761  20.4994  20.4994  20.5436  20.5436
    20.8248  20.8248  21.3333  21.3333  21.4135  21.4136  21.4179  21.4180
    21.4212  21.4212  21.4931  21.4931  21.6755  21.6755  21.7892  21.7892
    22.6767  22.6767  22.7611  22.7611  22.8728  22.8728  22.8871  22.8871
    22.9555  22.9555  22.9722  22.9722  23.2672  23.2672  23.7240  23.7240
    24.3569  24.3569  24.3596  24.3596  24.7539  24.7540  24.7747  24.7747
    24.8346  24.8346  24.8353  24.8353  24.8376  24.8376  25.2017  25.2017
    25.2093  25.2093  25.2362  25.2362  25.5052  25.5052  25.5966  25.5966
    25.8727  25.8727  25.9687  25.9687  25.9767  25.9767  26.1194  26.1194
    27.2537  27.2537  27.3544  27.3544  29.4048  29.4048  30.4731  30.4731
    30.8031  30.8031  31.8018  31.8018  32.6789  32.6790  33.8945  33.8945
    37.1217  37.1217  37.2210  37.2210  38.5540  38.5540  39.4418  39.4418
    39.5605  39.5605  40.0493  40.0493  40.4771

          k = 0.0586-0.5278-0.5278 ( 12764 PWs)   bands (ev):

   -58.1180 -58.1180 -58.1180 -58.1180 -58.0430 -58.0430 -58.0430 -58.0429
   -58.0306 -58.0306 -58.0306 -58.0306 -57.9774 -57.9774 -57.9774 -57.9774
   -24.2264 -24.2264 -24.2264 -24.2264 -24.1946 -24.1946 -24.1946 -24.1945
   -24.1839 -24.1839 -24.1839 -24.1839 -23.9250 -23.9250 -23.9250 -23.9249
   -23.9063 -23.9063 -23.9063 -23.9063 -23.8581 -23.8581 -23.8581 -23.8581
   -23.7887 -23.7887 -23.7887 -23.7887 -23.7628 -23.7628 -23.7628 -23.7628
   -23.5859 -23.5859 -23.5859 -23.5858 -23.5316 -23.5316 -23.5316 -23.5316
   -23.5255 -23.5255 -23.5255 -23.5254 -23.4327 -23.4327 -23.4327 -23.4327
    19.7365  19.7365  19.7365  19.7365  20.2493  20.2493  20.2493  20.2494
    20.5202  20.5202  20.5202  20.5202  20.5440  20.5440  20.5440  20.5440
    21.2292  21.2293  21.2293  21.2293  21.4247  21.4247  21.4247  21.4247
    21.4501  21.4501  21.4501  21.4501  21.6095  21.6095  21.6095  21.6095
    22.7908  22.7908  22.7909  22.7909  22.8252  22.8252  22.8252  22.8252
    22.9259  22.9259  22.9259  22.9260  23.2176  23.2177  23.2177  23.2177
    24.5170  24.5170  24.5170  24.5170  24.7878  24.7878  24.7879  24.7879
    24.8759  24.8759  24.8759  24.8760  25.0169  25.0169  25.0169  25.0169
    25.0200  25.0200  25.0200  25.0200  25.4601  25.4601  25.4601  25.4602
    25.9202  25.9202  25.9202  25.9203  26.0248  26.0248  26.0248  26.0248
    27.3653  27.3653  27.3653  27.3653  30.1197  30.1197  30.1197  30.1197
    31.1662  31.1662  31.1662  31.1662  33.6824  33.6824  33.6824  33.6824
    36.7468  36.7468  36.7468  36.7468  39.3912  39.3912  39.3912  39.3912
    40.1857  40.1857  40.1857  40.1857  40.2872

          k = 0.1759 0.1759 0.1759 ( 12875 PWs)   bands (ev):

   -58.1833 -58.0814 -58.0814 -58.0813 -58.0465 -58.0465 -58.0465 -58.0302
   -58.0282 -58.0282 -58.0282 -58.0253 -58.0132 -58.0132 -58.0132 -57.9292
   -24.3265 -24.3265 -24.3265 -24.2883 -24.2883 -24.2883 -24.1002 -24.1000
   -24.1000 -24.0842 -24.0842 -24.0841 -24.0113 -24.0011 -24.0011 -23.9318
   -23.9318 -23.9318 -23.8529 -23.8529 -23.8529 -23.7804 -23.7804 -23.7804
   -23.7650 -23.7650 -23.7350 -23.7350 -23.7350 -23.7277 -23.7277 -23.7277
   -23.6765 -23.6764 -23.6764 -23.6629 -23.5846 -23.5846 -23.5845 -23.5352
   -23.4849 -23.4849 -23.4849 -23.4474 -23.4474 -23.4474 -23.4416 -23.4416
    18.2327  19.5075  19.5075  19.5990  19.5990  19.5990  19.6790  19.6790
    19.6790  20.6731  20.6731  20.6731  20.7922  20.9091  20.9091  20.9091
    21.0889  21.0889  21.0889  21.1365  21.1365  21.1365  21.1670  21.1670
    21.1670  21.2840  21.2840  22.1349  22.1349  22.1549  22.1549  22.1549
    22.3960  22.3967  22.3967  22.6667  22.6667  22.6667  23.0190  23.2085
    23.2085  23.2085  23.6400  23.6400  23.6400  24.1362  24.1363  24.1363
    24.3398  24.3398  24.3398  24.8878  24.8878  24.8878  25.0355  25.0355
    25.0355  25.1934  25.1934  25.1934  25.2314  25.2314  25.6502  25.6502
    25.6502  25.6963  25.6963  25.6963  25.7460  25.7460  25.7512  25.7512
    25.8678  25.8716  25.8716  25.8716  26.7163  26.7163  26.7163  26.8957
    26.8957  27.0541  27.0541  27.0541  28.3945  28.3945  28.3945  29.4114
    29.4114  29.4114  30.0993  30.0993  30.0993  33.9541  36.5285  36.5285
    36.8802  36.8802  36.8802  37.0322  37.0322  37.2239  37.3124  38.3685
    38.3685  38.3685  38.8812  39.7563  39.7563

          k = 0.1759 0.1759 0.2932 ( 12845 PWs)   bands (ev):

   -58.1743 -58.1041 -58.0780 -58.0780 -58.0536 -58.0536 -58.0447 -58.0330
   -58.0276 -58.0249 -58.0237 -58.0237 -58.0140 -58.0140 -57.9928 -57.9359
   -24.3078 -24.3078 -24.2990 -24.2688 -24.2452 -24.2452 -24.1351 -24.1295
   -24.1295 -24.1181 -24.1121 -24.0789 -24.0761 -23.9905 -23.9905 -23.9739
   -23.9635 -23.9094 -23.8633 -23.8548 -23.8548 -23.8066 -23.7997 -23.7997
   -23.7870 -23.7782 -23.7399 -23.7139 -23.7139 -23.6909 -23.6851 -23.6851
   -23.6809 -23.6809 -23.6215 -23.6206 -23.5861 -23.5485 -23.5484 -23.5414
   -23.5128 -23.5128 -23.4979 -23.4739 -23.4612 -23.4512 -23.4512 -23.4422
    18.5012  19.6409  19.7161  19.7161  19.7234  19.8356  19.8469  19.8469
    19.8821  20.2829  20.5683  20.5683  20.6574  20.7545  20.9085  20.9211
    20.9211  21.0128  21.0134  21.0134  21.0801  21.1226  21.2175  21.3005
    21.3005  21.4142  21.4142  21.8464  21.9794  21.9794  22.2926  22.2957
    22.3835  22.4644  22.5362  22.5578  22.5921  22.5921  22.8778  22.8778
    23.2569  23.4781  23.7424  23.7424  23.8138  23.9791  23.9791  24.1489
    24.2544  24.2544  24.5299  24.5414  24.7507  24.7507  24.8032  24.8671
    24.8671  25.0420  25.1374  25.2530  25.2530  25.3128  25.3259  25.3259
    25.3349  25.3611  25.6685  25.6703  25.7054  25.7436  25.7725  25.8655
    25.8655  26.1663  26.1663  26.2003  26.2376  26.5054  26.5398  26.7528
    26.7528  26.9688  27.1101  27.1101  27.9263  27.9263  29.3588  29.7167
    29.7167  30.4859  30.4859  30.6497  31.0378  33.1143  35.3965  36.0274
    36.7172  36.8074  37.0761  37.0761  37.7313  37.8063  37.8593  38.3414
    38.8159  39.3022  39.3022  40.4210  40.6846

          k = 0.1759 0.1759 0.4105 ( 12823 PWs)   bands (ev):

   -58.1613 -58.1255 -58.0732 -58.0732 -58.0606 -58.0606 -58.0422 -58.0361
   -58.0267 -58.0252 -58.0201 -58.0201 -58.0154 -58.0154 -57.9745 -57.9458
   -24.2752 -24.2752 -24.2587 -24.2415 -24.1902 -24.1902 -24.1814 -24.1814
   -24.1719 -24.1455 -24.1300 -24.1282 -24.0580 -24.0580 -24.0482 -23.9619
   -23.9321 -23.9233 -23.8476 -23.8476 -23.8416 -23.8379 -23.8183 -23.8183
   -23.7904 -23.7786 -23.7552 -23.7025 -23.7025 -23.6864 -23.6864 -23.6476
   -23.6351 -23.6351 -23.6229 -23.5808 -23.5709 -23.5476 -23.5476 -23.5182
   -23.5138 -23.5137 -23.5128 -23.5042 -23.4898 -23.4639 -23.4639 -23.4532
    18.8794  19.8213  19.8376  19.8954  19.8954  20.0223  20.0740  20.0740
    20.1370  20.1638  20.3638  20.3638  20.4022  20.5340  20.6383  20.6383
    20.7234  20.9184  20.9306  21.0142  21.1140  21.1948  21.1948  21.5190
    21.5622  21.5622  21.7269  21.7269  21.7302  21.7302  22.2326  22.3107
    22.3441  22.3701  22.5873  22.5873  22.8208  22.8208  22.9373  22.9771
    23.1437  23.1438  23.5335  23.8365  23.8556  24.0065  24.0065  24.1000
    24.1142  24.1859  24.3712  24.3712  24.3864  24.3864  24.6972  24.6972
    24.7754  24.8311  24.9922  25.0339  25.0339  25.2695  25.3785  25.4822
    25.5520  25.5747  25.7061  25.7061  25.7167  25.7375  25.8266  25.9105
    25.9511  25.9511  26.0188  26.1659  26.4926  26.4926  26.5017  26.8634
    26.8634  26.9130  27.0085  27.0085  27.4932  27.4932  30.0774  30.0774
    30.3359  30.5742  30.5742  31.9832  32.0690  32.2324  34.2662  34.7414
    36.6530  36.7249  37.7132  37.7132  38.3342  38.5391  38.5732  38.6706
    38.9593  39.9317  39.9318  40.3644  40.3645

          k = 0.1759 0.1759-0.5278 ( 12776 PWs)   bands (ev):

   -58.1448 -58.1448 -58.0674 -58.0673 -58.0672 -58.0672 -58.0393 -58.0392
   -58.0259 -58.0258 -58.0174 -58.0174 -58.0173 -58.0173 -57.9587 -57.9587
   -24.2317 -24.2317 -24.2317 -24.2317 -24.2082 -24.2082 -24.2070 -24.2069
   -24.1338 -24.1338 -24.1264 -24.1264 -24.1264 -24.1264 -24.0088 -24.0088
   -23.8866 -23.8866 -23.8817 -23.8817 -23.8347 -23.8347 -23.8347 -23.8347
   -23.7694 -23.7694 -23.7171 -23.7171 -23.6934 -23.6934 -23.6934 -23.6934
   -23.5887 -23.5887 -23.5886 -23.5886 -23.5629 -23.5629 -23.5461 -23.5460
   -23.5266 -23.5266 -23.4849 -23.4849 -23.4849 -23.4849 -23.4742 -23.4742
    19.3350  19.3350  20.0935  20.0935  20.1213  20.1213  20.1213  20.1213
    20.3452  20.3453  20.3453  20.3453  20.3715  20.3715  20.3716  20.3716
    20.5479  20.5479  20.9498  20.9498  21.2511  21.2511  21.4417  21.4418
    21.4418  21.4418  21.8000  21.8001  21.8001  21.8001  22.2341  22.2341
    22.3592  22.3592  22.6566  22.6567  22.6567  22.6567  23.3302  23.3302
    23.3302  23.3303  23.4271  23.4271  23.4671  23.4671  23.8449  23.8449
    24.3176  24.3176  24.4543  24.4544  24.5348  24.5348  24.5349  24.5349
    24.7364  24.7364  24.7364  24.7364  25.4137  25.4137  25.4729  25.4730
    25.4991  25.4991  25.6706  25.6706  25.7280  25.7280  25.9174  25.9174
    25.9174  25.9174  25.9428  25.9428  26.7485  26.7485  26.7891  26.7891
    26.7892  26.7892  27.1155  27.1155  27.1155  27.1155  30.4004  30.4004
    30.4004  30.4005  31.3014  31.3014  33.1520  33.1520  33.3656  33.3656
    36.6621  36.6621  38.3853  38.3853  38.7101  38.7101  38.7101  38.7101
    39.4933  39.4933  39.7720  39.7720  40.0874

          k = 0.1759 0.2932 0.2932 ( 12827 PWs)   bands (ev):

   -58.1658 -58.0994 -58.0994 -58.0747 -58.0643 -58.0514 -58.0514 -58.0367
   -58.0237 -58.0234 -58.0234 -58.0155 -58.0147 -57.9950 -57.9949 -57.9421
   -24.2977 -24.2818 -24.2818 -24.2325 -24.2325 -24.1956 -24.1545 -24.1511
   -24.1511 -24.1510 -24.1296 -24.0916 -24.0735 -24.0297 -23.9820 -23.9306
   -23.9240 -23.9240 -23.9107 -23.9107 -23.8719 -23.8308 -23.8308 -23.8292
   -23.7536 -23.7352 -23.7352 -23.7238 -23.7238 -23.6895 -23.6878 -23.6631
   -23.6449 -23.6407 -23.6270 -23.6269 -23.5896 -23.5472 -23.5291 -23.5163
   -23.5163 -23.5119 -23.5119 -23.4756 -23.4756 -23.4731 -23.4466 -23.4426
    18.7532  19.7928  19.7988  19.9053  19.9492  19.9492  20.0032  20.0367
    20.0367  20.2763  20.2763  20.5720  20.5720  20.7314  20.7314  21.0065
    21.0065  21.0106  21.0745  21.1106  21.1906  21.1940  21.1940  21.2604
    21.2604  21.2846  21.5361  21.8188  21.9246  22.0162  22.0162  22.1696
    22.3288  22.4675  22.4675  22.4971  22.5037  22.5244  22.7279  23.0593
    23.0593  23.2118  23.5527  23.6081  23.6082  24.1150  24.1150  24.1595
    24.2483  24.2483  24.4117  24.4947  24.5558  24.5558  24.6989  24.8303
    24.9980  24.9980  25.0143  25.0143  25.0459  25.1683  25.2179  25.2179
    25.2886  25.6137  25.6209  25.6244  25.6396  25.7207  25.7577  25.7577
    25.7705  26.1929  26.1929  26.2242  26.3137  26.4538  26.4538  26.6438
    26.6439  26.9423  26.9615  27.2122  27.3294  28.8168  28.8169  30.1091
    31.0108  31.0108  31.2977  31.3231  31.3231  32.3130  35.0797  36.3105
    36.8304  36.9757  37.0242  37.0242  37.1791  37.4446  38.2911  39.2936
    39.2936  39.6403  40.3138  40.3379  40.3399

          k = 0.1759 0.2932 0.4105 ( 12814 PWs)   bands (ev):

   -58.1535 -58.1196 -58.0927 -58.0747 -58.0702 -58.0581 -58.0484 -58.0408
   -58.0231 -58.0230 -58.0201 -58.0159 -58.0085 -57.9983 -57.9779 -57.9512
   -24.2738 -24.2538 -24.2440 -24.2151 -24.1960 -24.1862 -24.1826 -24.1745
   -24.1603 -24.1467 -24.1423 -24.1348 -24.0797 -24.0464 -23.9941 -23.9626
   -23.9547 -23.8999 -23.8843 -23.8767 -23.8707 -23.8567 -23.8526 -23.8520
   -23.7858 -23.7506 -23.7356 -23.7115 -23.7063 -23.6946 -23.6828 -23.6683
   -23.6368 -23.6096 -23.6057 -23.5875 -23.5779 -23.5621 -23.5404 -23.5250
   -23.5112 -23.5098 -23.4994 -23.4841 -23.4822 -23.4819 -23.4505 -23.4466
    19.1014  19.9146  19.9163  19.9843  20.1108  20.1955  20.1984  20.1990
    20.2551  20.2573  20.2644  20.4693  20.4732  20.5114  20.5913  20.8305
    20.8571  20.9001  21.0139  21.1788  21.1927  21.2138  21.2739  21.4309
    21.4527  21.5487  21.6430  21.6870  21.7014  21.8129  22.0029  22.0587
    22.3111  22.3668  22.6034  22.6265  22.6564  22.6721  22.6824  22.7273
    22.7594  23.0782  23.3726  23.3864  23.5994  23.6471  23.8488  23.8884
    24.2962  24.3483  24.4507  24.4548  24.5281  24.5649  24.5795  24.6464
    24.8530  24.8763  24.9514  25.0232  25.0266  25.1654  25.2896  25.3967
    25.4710  25.5022  25.5107  25.6635  25.7202  25.7313  25.8227  25.8311
    25.8371  25.8411  25.8868  26.1726  26.2589  26.3473  26.6153  26.7032
    26.7478  26.8056  26.9702  27.1692  27.2960  28.2878  29.7241  30.5683
    31.2893  31.4165  31.4858  31.7378  32.2675  32.3886  34.2232  35.2024
    36.9772  37.0584  37.0796  37.5496  37.6979  38.3873  39.0285  39.0328
    39.3110  39.3909  39.5535  39.8923  40.3652

          k = 0.1759 0.2932-0.5278 ( 12834 PWs)   bands (ev):

   -58.1379 -58.1379 -58.0843 -58.0843 -58.0645 -58.0645 -58.0448 -58.0447
   -58.0229 -58.0229 -58.0176 -58.0176 -58.0028 -58.0028 -57.9632 -57.9632
   -24.2386 -24.2386 -24.2189 -24.2189 -24.1964 -24.1964 -24.1953 -24.1952
   -24.1583 -24.1583 -24.1338 -24.1338 -24.0663 -24.0662 -24.0085 -24.0085
   -23.9140 -23.9140 -23.8810 -23.8810 -23.8691 -23.8691 -23.8358 -23.8358
   -23.7780 -23.7780 -23.7455 -23.7455 -23.7023 -23.7023 -23.6507 -23.6507
   -23.6330 -23.6330 -23.5703 -23.5703 -23.5567 -23.5567 -23.5402 -23.5402
   -23.5348 -23.5348 -23.4938 -23.4938 -23.4632 -23.4632 -23.4598 -23.4598
    19.5061  19.5061  20.0641  20.0641  20.2106  20.2107  20.2988  20.2988
    20.4011  20.4011  20.4252  20.4252  20.5260  20.5261  20.5482  20.5482
    20.6026  20.6026  21.0633  21.0633  21.4065  21.4065  21.4171  21.4171
    21.4262  21.4262  21.5585  21.5585  21.9239  21.9239  22.0037  22.0037
    22.3184  22.3184  22.3687  22.3687  22.6892  22.6892  23.0201  23.0201
    23.0886  23.0886  23.1004  23.1004  23.2117  23.2117  23.7979  23.7979
    24.2548  24.2548  24.5239  24.5239  24.6248  24.6248  24.7093  24.7093
    24.7584  24.7584  24.7729  24.7729  25.3420  25.3420  25.3956  25.3957
    25.4093  25.4093  25.5831  25.5832  25.6991  25.6991  25.7235  25.7235
    25.8715  25.8715  25.9954  25.9954  26.3618  26.3618  26.4978  26.4978
    26.8834  26.8834  27.0036  27.0036  27.7692  27.7692  30.6203  30.6203
    30.9978  30.9978  31.7243  31.7243  33.2523  33.2523  33.8065  33.8065
    36.9719  36.9720  37.8708  37.8708  38.4390  38.4390  38.7128  38.7128
    39.3877  39.3878  39.5666  39.5666  39.9512

          k = 0.1759 0.4105 0.4105 ( 12824 PWs)   bands (ev):

   -58.1422 -58.1112 -58.1111 -58.0882 -58.0658 -58.0546 -58.0546 -58.0456
   -58.0215 -58.0203 -58.0202 -58.0168 -57.9984 -57.9830 -57.9830 -57.9593
   -24.2586 -24.2238 -24.2238 -24.1974 -24.1974 -24.1893 -24.1818 -24.1818
   -24.1762 -24.1692 -24.1580 -24.1098 -24.0693 -24.0247 -23.9562 -23.9481
   -23.9481 -23.9233 -23.9233 -23.8977 -23.8931 -23.8931 -23.8926 -23.8342
   -23.7751 -23.7385 -23.7325 -23.7325 -23.7219 -23.7219 -23.7031 -23.6381
   -23.6321 -23.5922 -23.5922 -23.5790 -23.5775 -23.5475 -23.5367 -23.5367
   -23.5220 -23.5090 -23.5090 -23.5072 -23.4622 -23.4622 -23.4455 -23.4434
    19.3935  19.9590  19.9829  19.9829  20.1418  20.3164  20.3783  20.3783
    20.4429  20.4429  20.4683  20.4683  20.4908  20.5252  20.5280  20.7573
    20.9011  21.1912  21.1912  21.2323  21.2323  21.2986  21.3067  21.3165
    21.4070  21.4071  21.5683  21.6861  21.7085  21.7085  21.8855  22.1207
    22.1669  22.3206  22.5091  22.5469  22.5493  22.5493  22.5851  22.6675
    22.9079  22.9079  22.9485  22.9485  23.1251  23.1251  23.4003  23.7715
    24.2852  24.5551  24.6167  24.6167  24.6472  24.7519  24.7920  24.7920
    24.9200  25.0072  25.0470  25.0470  25.1145  25.1145  25.1398  25.1399
    25.3619  25.3898  25.4000  25.5365  25.5431  25.7291  25.7291  25.7331
    25.7868  25.7868  25.8544  25.8967  26.2294  26.2634  26.2736  26.2736
    26.9407  26.9407  27.0474  27.2070  27.8659  29.1098  29.1098  30.7215
    31.1349  32.1016  32.1016  32.6693  32.8185  32.8185  33.6760  35.2851
    36.7842  36.8295  37.7102  37.7102  37.9246  38.1107  38.1313  38.1313
    39.6302  39.6511  40.3902  40.3903  40.5818

          k = 0.1759 0.4105-0.5278 ( 12792 PWs)   bands (ev):

   -58.1279 -58.1279 -58.1005 -58.1005 -58.0606 -58.0605 -58.0504 -58.0503
   -58.0207 -58.0207 -58.0182 -58.0182 -57.9899 -57.9899 -57.9700 -57.9700
   -24.2320 -24.2320 -24.2037 -24.2037 -24.1893 -24.1893 -24.1877 -24.1877
   -24.1784 -24.1784 -24.1453 -24.1453 -23.9974 -23.9974 -23.9906 -23.9905
   -23.9310 -23.9310 -23.9237 -23.9237 -23.9034 -23.9034 -23.8489 -23.8489
   -23.7833 -23.7833 -23.7305 -23.7305 -23.7117 -23.7117 -23.6808 -23.6808
   -23.6125 -23.6124 -23.5541 -23.5541 -23.5534 -23.5534 -23.5426 -23.5425
   -23.5386 -23.5386 -23.5072 -23.5072 -23.4495 -23.4495 -23.4483 -23.4483
    19.7053  19.7053  19.9932  19.9932  20.3076  20.3076  20.4131  20.4131
    20.4798  20.4798  20.5335  20.5335  20.6130  20.6130  20.6797  20.6797
    20.8552  20.8552  21.2637  21.2637  21.4078  21.4078  21.4161  21.4161
    21.4729  21.4729  21.5143  21.5143  21.6705  21.6705  21.7666  21.7666
    22.3971  22.3972  22.4874  22.4874  22.6590  22.6590  22.6901  22.6901
    22.7231  22.7231  22.7795  22.7795  22.9118  22.9118  23.2958  23.2958
    24.6353  24.6353  24.7010  24.7010  24.8166  24.8166  24.8625  24.8626
    24.8868  24.8868  24.9128  24.9128  25.1488  25.1488  25.2410  25.2410
    25.2476  25.2476  25.4819  25.4819  25.5236  25.5236  25.7487  25.7487
    25.7564  25.7564  25.8350  25.8350  26.0333  26.0333  26.2542  26.2542
    27.0447  27.0447  27.1246  27.1246  28.4856  28.4856  29.9277  29.9277
    31.6800  31.6800  32.9239  32.9239  33.0285  33.0285  34.2098  34.2098
    37.1402  37.1402  37.2987  37.2987  37.7907  37.7908  38.7353  38.7353
    39.2216  39.2216  40.3359  40.3359  40.3869

          k = 0.1759-0.5278-0.5278 ( 12808 PWs)   bands (ev):

   -58.1152 -58.1152 -58.1152 -58.1152 -58.0557 -58.0557 -58.0557 -58.0557
   -58.0192 -58.0192 -58.0192 -58.0191 -57.9789 -57.9789 -57.9789 -57.9788
   -24.2141 -24.2141 -24.2141 -24.2141 -24.1919 -24.1919 -24.1919 -24.1919
   -24.1608 -24.1608 -24.1608 -24.1608 -23.9612 -23.9612 -23.9612 -23.9612
   -23.9270 -23.9269 -23.9269 -23.9269 -23.9235 -23.9235 -23.9235 -23.9235
   -23.7313 -23.7313 -23.7313 -23.7313 -23.7208 -23.7208 -23.7208 -23.7208
   -23.5796 -23.5796 -23.5796 -23.5795 -23.5432 -23.5432 -23.5432 -23.5432
   -23.5245 -23.5245 -23.5245 -23.5245 -23.4444 -23.4444 -23.4443 -23.4443
    19.8777  19.8777  19.8777  19.8777  20.3781  20.3781  20.3781  20.3781
    20.5848  20.5848  20.5849  20.5849  20.6571  20.6571  20.6571  20.6571
    21.2508  21.2508  21.2508  21.2509  21.4045  21.4045  21.4045  21.4045
    21.4673  21.4674  21.4674  21.4674  21.5862  21.5862  21.5862  21.5862
    22.5393  22.5393  22.5393  22.5393  22.6011  22.6011  22.6011  22.6011
    22.6430  22.6430  22.6431  22.6431  22.8468  22.8468  22.8468  22.8468
    24.8606  24.8606  24.8606  24.8606  24.9086  24.9086  24.9086  24.9087
    25.0653  25.0653  25.0653  25.0654  25.0986  25.0986  25.0986  25.0986
    25.1962  25.1962  25.1962  25.1962  25.4462  25.4462  25.4462  25.4462
    25.7970  25.7970  25.7970  25.7971  26.1033  26.1033  26.1034  26.1034
    27.1374  27.1374  27.1375  27.1375  29.2136  29.2136  29.2136  29.2136
    32.3529  32.3529  32.3529  32.3529  34.0377  34.0377  34.0377  34.0377
    36.7725  36.7725  36.7725  36.7725  38.6539  38.6539  38.6539  38.6539
    39.2685  39.2685  39.2685  39.2685  40.9576

          k = 0.2932 0.2932 0.2932 ( 12815 PWs)   bands (ev):

   -58.1577 -58.0949 -58.0949 -58.0949 -58.0616 -58.0616 -58.0615 -58.0421
   -58.0208 -58.0158 -58.0158 -58.0158 -57.9969 -57.9969 -57.9969 -57.9478
   -24.2709 -24.2709 -24.2709 -24.1903 -24.1903 -24.1903 -24.1656 -24.1656
   -24.1656 -24.1637 -24.1075 -24.1075 -24.0548 -24.0548 -23.9677 -23.9677
   -23.9677 -23.9311 -23.9311 -23.9311 -23.8841 -23.8665 -23.8665 -23.8665
   -23.6945 -23.6945 -23.6945 -23.6940 -23.6906 -23.6906 -23.6906 -23.6819
   -23.6819 -23.6302 -23.6302 -23.6302 -23.5677 -23.5407 -23.5407 -23.5407
   -23.5008 -23.5008 -23.5008 -23.4722 -23.4722 -23.4722 -23.4630 -23.4630
    18.9991  20.0185  20.0185  20.0379  20.0379  20.0379  20.1913  20.1913
    20.1913  20.3483  20.3483  20.3483  20.5378  20.9138  20.9138  20.9138
    21.0606  21.0606  21.0606  21.1398  21.1398  21.1398  21.1663  21.1663
    21.4435  21.4435  21.4435  21.9205  21.9205  21.9205  22.1357  22.1357
    22.2077  22.2077  22.2650  22.2650  22.2651  22.3159  22.7290  22.7290
    22.7290  23.1197  23.1197  23.1197  23.8651  23.8651  23.8651  23.8966
    24.2858  24.3105  24.3105  24.3105  24.7346  24.7346  24.7346  24.8902
    24.8902  24.8902  25.1602  25.1602  25.1961  25.1961  25.1961  25.4396
    25.4396  25.4396  25.6264  25.6264  25.6305  25.6306  25.6306  25.6833
    25.6833  26.2472  26.2472  26.2472  26.4455  26.4455  26.4455  26.5786
    26.5786  26.7683  26.7683  26.7683  28.1592  28.1592  28.1592  31.4322
    31.4322  31.4322  31.5087  32.0774  32.0774  32.0774  36.1116  36.1116
    36.7777  36.7777  36.7777  36.9707  36.9707  37.2308  37.5058  40.1011
    40.1011  40.1011  40.3208  40.3208  40.3208

          k = 0.2932 0.2932 0.4105 ( 12826 PWs)   bands (ev):

   -58.1461 -58.1140 -58.0885 -58.0885 -58.0714 -58.0714 -58.0577 -58.0476
   -58.0187 -58.0163 -58.0093 -58.0093 -57.9999 -57.9999 -57.9810 -57.9562
   -24.2490 -24.2490 -24.2318 -24.1900 -24.1900 -24.1839 -24.1707 -24.1671
   -24.1387 -24.1387 -24.1362 -24.1220 -24.0755 -24.0223 -24.0223 -24.0110
   -23.9858 -23.9351 -23.9351 -23.9131 -23.8992 -23.8984 -23.8984 -23.8357
   -23.7584 -23.7381 -23.6990 -23.6945 -23.6702 -23.6702 -23.6464 -23.6464
   -23.6382 -23.6382 -23.6162 -23.5777 -23.5706 -23.5706 -23.5511 -23.5377
   -23.5098 -23.4929 -23.4889 -23.4889 -23.4791 -23.4736 -23.4736 -23.4598
    19.3333  20.0625  20.1602  20.1602  20.1837  20.3193  20.3583  20.3583
    20.3755  20.3930  20.3930  20.3976  20.5385  20.6424  20.8299  20.8299
    20.9689  21.0515  21.0844  21.0934  21.1936  21.1936  21.3771  21.3771
    21.4116  21.6251  21.6251  21.6729  21.6729  21.8535  21.9891  21.9984
    22.0503  22.0921  22.3718  22.3808  22.3809  22.4485  22.4485  22.4944
    22.6323  22.6323  22.9155  22.9689  23.2549  23.3052  23.3053  23.7550
    24.2870  24.5247  24.5728  24.5728  24.7987  24.7987  24.8237  24.8237
    24.9784  25.0686  25.0686  25.1180  25.1247  25.1443  25.2814  25.3183
    25.5119  25.5383  25.6353  25.6362  25.6458  25.6458  25.6855  25.6855
    25.7885  25.8111  26.1075  26.3531  26.5081  26.5081  26.5335  26.5335
    26.6254  26.7163  26.7664  26.7664  27.5586  27.5586  29.0174  30.7010
    31.9110  31.9110  32.4299  32.4299  32.8347  33.0020  35.0478  35.7096
    36.6361  36.7227  37.0624  37.0624  37.7701  37.8449  37.9254  39.0583
    39.0583  39.3103  39.9180  40.2173  40.3584

          k = 0.2932 0.2932-0.5278 ( 12846 PWs)   bands (ev):

   -58.1313 -58.1313 -58.0806 -58.0806 -58.0805 -58.0805 -58.0529 -58.0529
   -58.0172 -58.0172 -58.0041 -58.0041 -58.0040 -58.0040 -57.9674 -57.9674
   -24.2202 -24.2202 -24.2202 -24.2201 -24.1818 -24.1818 -24.1772 -24.1771
   -24.1568 -24.1568 -24.0812 -24.0812 -24.0811 -24.0811 -24.0345 -24.0345
   -23.9626 -23.9626 -23.9226 -23.9226 -23.9226 -23.9226 -23.8282 -23.8282
   -23.7869 -23.7868 -23.6998 -23.6998 -23.6515 -23.6515 -23.6514 -23.6514
   -23.6061 -23.6061 -23.6060 -23.6060 -23.5583 -23.5583 -23.5409 -23.5409
   -23.5315 -23.5315 -23.4795 -23.4795 -23.4795 -23.4795 -23.4652 -23.4652
    19.7086  19.7086  20.2827  20.2827  20.2827  20.2827  20.3947  20.3947
    20.5189  20.5189  20.6185  20.6185  20.6185  20.6185  20.6598  20.6599
    20.7582  20.7582  21.0585  21.0586  21.4034  21.4035  21.4035  21.4035
    21.5484  21.5484  21.6549  21.6549  21.6549  21.6549  21.9592  21.9592
    22.0432  22.0432  22.3400  22.3400  22.3400  22.3400  22.7318  22.7318
    22.7565  22.7565  22.7677  22.7678  22.7678  22.7678  23.2807  23.2807
    24.7085  24.7085  24.7586  24.7586  24.8037  24.8037  24.8037  24.8037
    24.8419  24.8419  24.8419  24.8419  25.3437  25.3437  25.3918  25.3919
    25.5163  25.5163  25.6134  25.6135  25.6384  25.6385  25.7017  25.7017
    25.7017  25.7018  26.0295  26.0295  26.6685  26.6685  26.6685  26.6685
    26.7258  26.7258  26.9947  26.9947  26.9947  26.9947  29.8703  29.8703
    32.3094  32.3094  32.3094  32.3094  34.0039  34.0039  34.2781  34.2781
    36.6852  36.6853  37.9030  37.9030  37.9030  37.9030  38.5687  38.5687
    38.8515  38.8515  38.9493  38.9493  40.4577

          k = 0.2932 0.4105 0.4105 ( 12825 PWs)   bands (ev):

   -58.1353 -58.1060 -58.1060 -58.0842 -58.0826 -58.0667 -58.0667 -58.0545
   -58.0152 -58.0106 -58.0106 -58.0025 -57.9999 -57.9857 -57.9857 -57.9637
   -24.2330 -24.2137 -24.2137 -24.1883 -24.1845 -24.1845 -24.1627 -24.1461
   -24.1450 -24.1450 -24.1293 -24.0821 -24.0699 -24.0598 -24.0258 -23.9888
   -23.9888 -23.9600 -23.9576 -23.9576 -23.9466 -23.9466 -23.9390 -23.8213
   -23.7862 -23.6906 -23.6906 -23.6710 -23.6710 -23.6699 -23.6422 -23.6346
   -23.6114 -23.6058 -23.5933 -23.5869 -23.5869 -23.5562 -23.5562 -23.5461
   -23.5082 -23.5071 -23.5071 -23.4954 -23.4747 -23.4747 -23.4700 -23.4651
    19.6369  20.1981  20.1981  20.2242  20.3738  20.4848  20.4848  20.4976
    20.5389  20.5733  20.6028  20.6028  20.6137  20.7094  20.7094  20.9923
    21.1198  21.1533  21.1847  21.1847  21.2251  21.2251  21.2529  21.2776
    21.5019  21.5019  21.6202  21.6918  21.6918  21.8298  21.8329  21.8415
    22.0251  22.1500  22.1508  22.1508  22.1605  22.1642  22.3078  22.3486
    22.4924  22.4924  22.5525  22.5525  22.7694  22.7694  22.8624  23.2375
    24.7369  24.7409  24.7409  24.7634  24.8751  24.9965  25.0313  25.0767
    25.0958  25.0958  25.1312  25.1312  25.1698  25.1698  25.2906  25.4295
    25.5120  25.5217  25.5217  25.5316  25.6105  25.6347  25.6347  25.7163
    25.8446  25.8606  25.8606  25.9289  26.3673  26.3673  26.3832  26.6631
    26.6631  26.6707  26.8106  26.9209  27.0687  28.3509  28.3509  29.9286
    32.4802  33.2561  33.2562  33.3251  33.3251  33.3451  34.8883  35.9161
    36.7711  36.9858  37.0684  37.0684  37.1113  37.4967  38.2431  38.2431
    38.4098  38.9406  39.6429  39.8089  39.8091

          k = 0.2932 0.4105-0.5278 ( 12814 PWs)   bands (ev):

   -58.1218 -58.1218 -58.0959 -58.0958 -58.0752 -58.0752 -58.0610 -58.0610
   -58.0125 -58.0125 -58.0060 -58.0060 -57.9920 -57.9920 -57.9736 -57.9736
   -24.2093 -24.2093 -24.1965 -24.1965 -24.1704 -24.1704 -24.1682 -24.1682
   -24.1534 -24.1534 -24.1022 -24.1022 -24.0353 -24.0353 -24.0203 -24.0202
   -23.9932 -23.9932 -23.9710 -23.9710 -23.9643 -23.9643 -23.8892 -23.8892
   -23.7375 -23.7375 -23.6694 -23.6694 -23.6525 -23.6525 -23.6461 -23.6461
   -23.6064 -23.6063 -23.5808 -23.5808 -23.5491 -23.5490 -23.5475 -23.5475
   -23.5427 -23.5427 -23.5022 -23.5022 -23.4708 -23.4708 -23.4672 -23.4672
    19.9496  19.9496  20.2534  20.2534  20.5399  20.5399  20.5438  20.5438
    20.6559  20.6559  20.6774  20.6774  20.8062  20.8062  20.8566  20.8566
    20.9158  20.9158  21.2184  21.2184  21.4084  21.4085  21.4242  21.4242
    21.4423  21.4423  21.5929  21.5929  21.6380  21.6380  21.7313  21.7313
    22.0370  22.0370  22.1410  22.1410  22.3040  22.3040  22.3325  22.3325
    22.3423  22.3423  22.4378  22.4379  22.4384  22.4384  22.7921  22.7921
    24.9149  24.9149  24.9509  24.9509  24.9774  24.9774  24.9991  24.9991
    25.0780  25.0780  25.2106  25.2106  25.2983  25.2984  25.3427  25.3427
    25.4425  25.4426  25.5304  25.5304  25.5359  25.5359  25.6220  25.6220
    25.6810  25.6810  26.0450  26.0450  26.3381  26.3381  26.3476  26.3476
    26.7067  26.7067  26.7590  26.7590  27.7004  27.7004  29.1460  29.1460
    32.9939  32.9939  33.6284  33.6284  34.1196  34.1196  34.7534  34.7534
    37.1308  37.1308  37.1911  37.1911  37.4681  37.4681  37.9844  37.9844
    38.4894  38.4894  39.0974  39.0974  39.5396

          k = 0.2932-0.5278-0.5278 ( 12816 PWs)   bands (ev):

   -58.1098 -58.1098 -58.1098 -58.1098 -58.0686 -58.0686 -58.0686 -58.0685
   -58.0088 -58.0088 -58.0088 -58.0088 -57.9819 -57.9818 -57.9818 -57.9818
   -24.1897 -24.1897 -24.1897 -24.1897 -24.1758 -24.1758 -24.1758 -24.1757
   -24.1273 -24.1273 -24.1273 -24.1273 -24.0107 -24.0107 -24.0107 -24.0106
   -23.9929 -23.9929 -23.9929 -23.9929 -23.9548 -23.9548 -23.9548 -23.9548
   -23.6902 -23.6902 -23.6902 -23.6902 -23.6561 -23.6561 -23.6561 -23.6561
   -23.5692 -23.5692 -23.5692 -23.5691 -23.5608 -23.5608 -23.5608 -23.5608
   -23.5279 -23.5279 -23.5279 -23.5279 -23.4675 -23.4675 -23.4674 -23.4674
    20.1502  20.1502  20.1502  20.1502  20.6268  20.6268  20.6268  20.6268
    20.7322  20.7322  20.7322  20.7322  20.8575  20.8575  20.8575  20.8575
    21.2907  21.2907  21.2907  21.2907  21.3997  21.3997  21.3997  21.3997
    21.4653  21.4653  21.4653  21.4654  21.5451  21.5451  21.5451  21.5451
    22.1270  22.1270  22.1270  22.1270  22.1715  22.1715  22.1715  22.1715
    22.2974  22.2974  22.2975  22.2975  22.3791  22.3791  22.3791  22.3791
    25.0061  25.0061  25.0061  25.0061  25.1416  25.1416  25.1416  25.1417
    25.2689  25.2689  25.2689  25.2689  25.2710  25.2710  25.2710  25.2710
    25.4166  25.4166  25.4166  25.4166  25.6498  25.6498  25.6498  25.6498
    25.7587  25.7587  25.7587  25.7587  26.1283  26.1283  26.1283  26.1283
    26.7594  26.7594  26.7594  26.7594  28.4238  28.4238  28.4238  28.4238
    33.6578  33.6578  33.6578  33.6578  34.6688  34.6688  34.6688  34.6688
    36.8285  36.8285  36.8285  36.8285  38.0706  38.0706  38.0706  38.0707
    38.3184  38.3184  38.3184  38.3184  39.6072

          k = 0.4105 0.4105 0.4105 ( 12805 PWs)   bands (ev):

   -58.1255 -58.0985 -58.0985 -58.0985 -58.0784 -58.0784 -58.0784 -58.0632
   -58.0098 -58.0023 -58.0023 -58.0023 -57.9898 -57.9898 -57.9898 -57.9703
   -24.1955 -24.1955 -24.1955 -24.1740 -24.1740 -24.1740 -24.1435 -24.1122
   -24.1122 -24.1001 -24.1001 -24.1001 -24.0904 -24.0904 -24.0178 -24.0178
   -24.0178 -24.0018 -24.0018 -24.0018 -23.9914 -23.9914 -23.9914 -23.8782
   -23.7380 -23.6497 -23.6496 -23.6496 -23.6286 -23.6286 -23.6285 -23.6071
   -23.6071 -23.5866 -23.5866 -23.5866 -23.5815 -23.5815 -23.5815 -23.5509
   -23.5058 -23.5058 -23.5058 -23.4968 -23.4968 -23.4897 -23.4897 -23.4897
    19.9543  20.4434  20.4434  20.4434  20.5947  20.5947  20.5947  20.6905
    20.6905  20.7589  20.8023  20.8023  20.8023  20.9933  20.9933  20.9933
    21.2241  21.2241  21.2342  21.2342  21.2342  21.2465  21.2465  21.2465
    21.5885  21.5885  21.5885  21.6715  21.6715  21.6715  21.7768  21.7859
    21.7859  21.8350  21.8350  21.8350  21.9557  21.9557  22.1145  22.1145
    22.1145  22.1269  22.1269  22.1269  22.3381  22.3381  22.3382  22.7312
    24.9076  24.9076  24.9076  25.1859  25.1859  25.1859  25.1861  25.1861
    25.2062  25.2062  25.2062  25.2453  25.3396  25.3396  25.3396  25.4681
    25.4681  25.5201  25.5201  25.5201  25.5516  25.5516  25.5516  25.7120
    25.7120  26.2184  26.2184  26.3864  26.3864  26.3864  26.3896  26.3896
    26.3896  26.4360  26.4360  26.4360  27.6635  27.6635  27.6635  29.1698
    33.9055  33.9055  33.9055  34.1888  34.1888  34.1888  36.1096  36.1096
    36.7398  36.7398  36.7674  36.7674  36.7674  37.3155  37.5232  38.3244
    38.3244  38.3244  38.6611  38.6611  38.6611

          k = 0.4105 0.4105-0.5278 ( 12820 PWs)   bands (ev):

   -58.1130 -58.1130 -58.0893 -58.0892 -58.0891 -58.0891 -58.0713 -58.0713
   -58.0056 -58.0055 -57.9954 -57.9954 -57.9953 -57.9953 -57.9791 -57.9790
   -24.1780 -24.1780 -24.1779 -24.1779 -24.1481 -24.1481 -24.1474 -24.1474
   -24.1215 -24.1215 -24.0691 -24.0691 -24.0510 -24.0510 -24.0509 -24.0509
   -24.0432 -24.0432 -24.0192 -24.0192 -24.0192 -24.0192 -23.9400 -23.9399
   -23.6922 -23.6922 -23.6192 -23.6192 -23.6130 -23.6130 -23.6129 -23.6129
   -23.5993 -23.5993 -23.5993 -23.5993 -23.5627 -23.5627 -23.5520 -23.5520
   -23.5377 -23.5376 -23.5011 -23.5011 -23.5011 -23.5011 -23.4902 -23.4902
    20.2616  20.2616  20.6023  20.6023  20.6023  20.6023  20.8343  20.8343
    20.8941  20.8941  20.9836  20.9837  20.9837  20.9837  21.0186  21.0186
    21.0331  21.0331  21.2248  21.2249  21.4229  21.4229  21.4230  21.4230
    21.4989  21.4989  21.4989  21.4989  21.6165  21.6165  21.6928  21.6928
    21.7271  21.7271  21.8935  21.8935  21.9077  21.9077  21.9077  21.9077
    21.9747  21.9747  21.9747  21.9747  22.0516  22.0516  22.3124  22.3124
    25.0546  25.0546  25.0801  25.0801  25.0802  25.0802  25.3212  25.3213
    25.3327  25.3327  25.3327  25.3328  25.3674  25.3675  25.4950  25.4950
    25.4991  25.4991  25.5113  25.5113  25.5113  25.5113  25.7583  25.7583
    25.7920  25.7920  26.0075  26.0075  26.3686  26.3686  26.3686  26.3686
    26.3874  26.3874  27.0132  27.0132  27.0133  27.0133  28.4174  28.4174
    34.3528  34.3528  34.3528  34.3528  35.1256  35.1256  35.3688  35.3688
    36.7322  36.7323  37.3000  37.3000  37.3000  37.3000  37.6763  37.6763
    37.8192  37.8192  37.9254  37.9254  38.8079

          k = 0.4105-0.5278-0.5278 ( 12808 PWs)   bands (ev):

   -58.1020 -58.1020 -58.1020 -58.1019 -58.0809 -58.0809 -58.0809 -58.0808
   -57.9998 -57.9998 -57.9998 -57.9998 -57.9863 -57.9863 -57.9863 -57.9863
   -24.1541 -24.1541 -24.1541 -24.1541 -24.1473 -24.1473 -24.1473 -24.1473
   -24.0860 -24.0860 -24.0860 -24.0860 -24.0616 -24.0616 -24.0616 -24.0616
   -24.0540 -24.0540 -24.0540 -24.0540 -23.9955 -23.9955 -23.9955 -23.9955
   -23.6502 -23.6502 -23.6502 -23.6502 -23.5969 -23.5969 -23.5969 -23.5969
   -23.5846 -23.5846 -23.5846 -23.5846 -23.5568 -23.5568 -23.5568 -23.5568
   -23.5348 -23.5348 -23.5348 -23.5348 -23.5012 -23.5012 -23.5012 -23.5012
    20.5294  20.5294  20.5295  20.5295  20.9361  20.9361  20.9361  20.9361
    20.9774  20.9774  20.9774  20.9774  21.1397  21.1397  21.1398  21.1398
    21.3421  21.3422  21.3422  21.3422  21.4151  21.4151  21.4151  21.4151
    21.4400  21.4400  21.4400  21.4400  21.4958  21.4958  21.4958  21.4958
    21.6534  21.6534  21.6534  21.6534  21.7557  21.7557  21.7557  21.7558
    21.8619  21.8619  21.8619  21.8620  21.9177  21.9177  21.9177  21.9177
    25.1415  25.1415  25.1415  25.1416  25.2262  25.2263  25.2263  25.2263
    25.3696  25.3696  25.3696  25.3697  25.4808  25.4808  25.4808  25.4808
    25.5425  25.5426  25.5426  25.5426  25.6305  25.6305  25.6305  25.6305
    26.0681  26.0681  26.0681  26.0681  26.3241  26.3241  26.3241  26.3241
    26.3849  26.3849  26.3849  26.3849  27.7103  27.7103  27.7103  27.7103
    35.0416  35.0416  35.0416  35.0416  35.4789  35.4789  35.4789  35.4789
    36.8909  36.8909  36.8909  36.8909  37.3505  37.3505  37.3505  37.3505
    37.6409  37.6409  37.6409  37.6410  38.2060

          k =-0.5278-0.5278-0.5278 ( 12856 PWs)   bands (ev):

   -58.0923 -58.0923 -58.0923 -58.0922 -58.0921 -58.0921 -58.0921 -58.0921
   -57.9924 -57.9924 -57.9924 -57.9923 -57.9923 -57.9923 -57.9923 -57.9923
   -24.1086 -24.1086 -24.1086 -24.1086 -24.1086 -24.1085 -24.1085 -24.1085
   -24.1085 -24.1085 -24.1085 -24.1085 -24.1085 -24.1085 -24.1085 -24.1085
   -24.0408 -24.0407 -24.0407 -24.0407 -24.0407 -24.0407 -24.0407 -24.0406
   -23.6148 -23.6148 -23.6148 -23.6148 -23.6147 -23.6147 -23.6147 -23.6147
   -23.5448 -23.5448 -23.5448 -23.5448 -23.5448 -23.5447 -23.5447 -23.5447
   -23.5447 -23.5447 -23.5447 -23.5447 -23.5447 -23.5447 -23.5447 -23.5447
    20.9330  20.9330  20.9330  20.9330  20.9330  20.9330  20.9330  20.9330
    21.3956  21.3956  21.3956  21.3956  21.3956  21.3956  21.3956  21.3956
    21.3956  21.3956  21.3956  21.3956  21.3956  21.3956  21.3956  21.3956
    21.4492  21.4492  21.4492  21.4492  21.4492  21.4492  21.4492  21.4492
    21.4492  21.4492  21.4492  21.4492  21.4492  21.4493  21.4493  21.4493
    21.5052  21.5052  21.5052  21.5052  21.5052  21.5052  21.5052  21.5052
    25.3050  25.3050  25.3050  25.3050  25.3050  25.3050  25.3051  25.3051
    25.3051  25.3051  25.3051  25.3051  25.3051  25.3051  25.3051  25.3051
    25.9027  25.9027  25.9027  25.9027  25.9027  25.9028  25.9028  25.9028
    25.9028  25.9028  25.9028  25.9028  25.9028  25.9028  25.9028  25.9028
    27.0369  27.0369  27.0369  27.0369  27.0370  27.0370  27.0370  27.0370
    36.3910  36.3910  36.3910  36.3910  36.3910  36.3910  36.3910  36.3910
    36.3910  36.3910  36.3910  36.3910  36.3910  36.3910  36.3910  36.3910
    37.4320  37.4320  37.4320  37.4320  37.4320

     the Fermi energy is    26.6901 ev

!    total energy              =   -8191.46091279 Ry

     total all-electron energy =   -161471.887766 Ry
     estimated scf accuracy    <       0.00000031 Ry
     smearing contrib. (-TS)   =       0.07208937 Ry
     internal energy E=F+TS    =   -8191.53300216 Ry

     The total energy is F=E-TS. E is the sum of the following terms:
     one-electron contribution =    -813.01723899 Ry
     hartree contribution      =     687.51257581 Ry
     xc contribution           =    -497.44785376 Ry
     ewald contribution        =   -3484.71389899 Ry
     one-center paw contrib.   =   -4083.86658622 Ry

     convergence has been achieved in  10 iterations

     Forces acting on atoms (cartesian axes, Ry/au):

     atom    1 type  1   force =     0.00000000    0.00000000    0.00000000
     atom    2 type  1   force =     0.00000068    0.00000068    0.00000068
     atom    3 type  1   force =     0.00000000    0.00000000    0.00000000
     atom    4 type  1   force =     0.00000068    0.00000068   -0.00000068
     atom    5 type  1   force =     0.00000000    0.00000000    0.00000000
     atom    6 type  1   force =     0.00000068   -0.00000068    0.00000068
     atom    7 type  1   force =     0.00000000    0.00000000    0.00000000
     atom    8 type  1   force =     0.00000068   -0.00000068   -0.00000068
     atom    9 type  1   force =     0.00000000    0.00000000    0.00000000
     atom   10 type  1   force =    -0.00000068    0.00000068    0.00000068
     atom   11 type  1   force =     0.00000000    0.00000000    0.00000000
     atom   12 type  1   force =    -0.00000068    0.00000068   -0.00000068
     atom   13 type  1   force =     0.00000000    0.00000000    0.00000000
     atom   14 type  1   force =    -0.00000068   -0.00000068    0.00000068
     atom   15 type  1   force =     0.00000000    0.00000000    0.00000000
     atom   16 type  1   force =    -0.00000068   -0.00000068   -0.00000068

     Total force =     0.000003     Total SCF correction =     0.000464
     SCF correction compared to forces is large: reduce conv_thr to get better values


     Computing stress (Cartesian axis) and pressure

          total   stress  (Ry/bohr**3)                   (kbar)     P=      909.75
   0.00618437   0.00000000   0.00000000          909.75        0.00        0.00
   0.00000000   0.00618437   0.00000000            0.00      909.75        0.00
   0.00000000   0.00000000   0.00618437            0.00        0.00      909.75


     Writing output data file /scratch/wWlTeMLBXEYbWIil.save/
 
     init_run     :      2.27s CPU      2.43s WALL (       1 calls)
     electrons    :    102.56s CPU    105.77s WALL (       1 calls)
     forces       :      1.22s CPU      1.24s WALL (       1 calls)
     stress       :      1.97s CPU      1.98s WALL (       1 calls)

     Called by init_run:
     wfcinit      :      1.89s CPU      1.96s WALL (       1 calls)
     potinit      :      0.16s CPU      0.20s WALL (       1 calls)
     hinit0       :      0.05s CPU      0.05s WALL (       1 calls)

     Called by electrons:
     c_bands      :     92.27s CPU     94.99s WALL (      11 calls)
     sum_band     :      9.22s CPU      9.53s WALL (      11 calls)
     v_of_rho     :      0.11s CPU      0.12s WALL (      11 calls)
     newd         :      0.16s CPU      0.23s WALL (      11 calls)
     PAW_pot      :      0.68s CPU      0.75s WALL (      11 calls)
     mix_rho      :      0.02s CPU      0.03s WALL (      11 calls)

     Called by c_bands:
     init_us_2    :      0.33s CPU      0.35s WALL (     875 calls)
     cegterg      :     90.92s CPU     93.58s WALL (     385 calls)

     Called by *egterg:
     cdiaghg      :     14.66s CPU     14.77s WALL (    1186 calls)
     h_psi        :     45.45s CPU     46.88s WALL (    1256 calls)
     s_psi        :      1.69s CPU      1.71s WALL (    1256 calls)
     g_psi        :      0.06s CPU      0.06s WALL (     836 calls)

     Called by h_psi:
     h_psi:calbec :      5.00s CPU      5.06s WALL (    1256 calls)
     vloc_psi     :     38.36s CPU     39.69s WALL (    1256 calls)
     add_vuspsi   :      1.96s CPU      2.00s WALL (    1256 calls)

     General routines
     calbec       :      8.04s CPU      8.13s WALL (    1816 calls)
     fft          :      0.16s CPU      0.17s WALL (     167 calls)
     ffts         :      0.03s CPU      0.04s WALL (      22 calls)
     fftw         :     43.66s CPU     45.16s WALL (  386195 calls)
     interpolate  :      0.04s CPU      0.04s WALL (      11 calls)
 
     Parallel routines
     fft_scatt_xy :      2.11s CPU      2.19s WALL (  386384 calls)
     fft_scatt_yz :     38.17s CPU     39.49s WALL (  386384 calls)
 
     PWSCF        :   1m53.20s CPU   1m57.27s WALL

 
   This run was terminated on:  23:19:14  29Nov2021            

=------------------------------------------------------------------------------=
   JOB DONE.
=------------------------------------------------------------------------------=
