
     Program PWSCF v.6.7MaX starts on 29Nov2021 at 23:19:19 

     This program is part of the open-source Quantum ESPRESSO suite
     for quantum simulation of materials; please cite
         "P. Giannozzi et al., J. Phys.:Condens. Matter 21 395502 (2009);
         "P. Giannozzi et al., J. Phys.:Condens. Matter 29 465901 (2017);
          URL http://www.quantum-espresso.org", 
     in publications or presentations arising from this work. More details at
     http://www.quantum-espresso.org/quote

     Parallel version (MPI & OpenMP), running on      72 processor cores
     Number of MPI processes:                72
     Threads/MPI process:                     1

     MPI processes distributed on     1 nodes
     R & G space division:  proc/nbgrp/npool/nimage =      72
     Reading input from bcc_5.in
Warning: card &CELL ignored
Warning: card CELL_DYNAMICS = 'BFGS', ignored
Warning: card CELL_FACTOR = 2.0, ignored
Warning: card PRESS = 0.0, ignored
Warning: card / ignored

     Current dimensions of program PWSCF are:
     Max number of different atomic species (ntypx) = 10
     Max number of k-points (npk) =  40000
     Max angular momentum in pseudopotentials (lmaxx) =  3
     file Pd.pbe-spn-kjpaw_psl.1.0.0.UPF: wavefunction(s)  4S 5S 4D renormalized

     Subspace diagonalization in iterative solution of the eigenvalue problem:
     one sub-group per band group will be used
     ELPA distributed-memory algorithm (size of sub-group:  8*  8 procs)

     Found symmetry operation: I + (  0.2500  0.2500  0.2500)
     This is a supercell, fractional translations are disabled
     Message from routine setup:
     using ibrav=0 with symmetry is DISCOURAGED, use correct ibrav instead
 
     Parallelization info
     --------------------
     sticks:   dense  smooth     PW     G-vecs:    dense   smooth      PW
     Min          63      42     11                 3245     1734     251
     Max          64      43     12                 3250     1742     258
     Sum        4597    3025    845               233817   125183   18349
 


     bravais-lattice index     =            0
     lattice parameter (alat)  =      11.4293  a.u.
     unit-cell volume          =    1552.7017 (a.u.)^3
     number of atoms/cell      =           16
     number of atomic types    =            1
     number of electrons       =       288.00
     number of Kohn-Sham states=          173
     kinetic-energy cutoff     =      71.0000  Ry
     charge density cutoff     =     430.0000  Ry
     scf convergence threshold =      1.0E-06
     mixing beta               =       0.1000
     number of iterations used =           10  TF        mixing
     Exchange-correlation= SLA  PW   PBX  PBC
                           (   1   4   3   4   0   0   0)

     celldm(1)=  11.429280  celldm(2)=   0.000000  celldm(3)=   0.000000
     celldm(4)=   0.000000  celldm(5)=   0.000000  celldm(6)=   0.000000

     crystal axes: (cart. coord. in units of alat)
               a(1) = (   1.013158   0.000000   0.000000 )  
               a(2) = (   0.000000   1.013158   0.000000 )  
               a(3) = (   0.000000   0.000000   1.013158 )  

     reciprocal axes: (cart. coord. in units 2 pi/alat)
               b(1) = (  0.987013  0.000000  0.000000 )  
               b(2) = (  0.000000  0.987013  0.000000 )  
               b(3) = (  0.000000  0.000000  0.987013 )  


     PseudoPot. # 1 for Pd read from file:
     /rds/homes/b/bxp912/pp/Pd.pbe-spn-kjpaw_psl.1.0.0.UPF
     MD5 check sum: 790f2ebce206edfd9790dcb9844eca51
     Pseudo is Projector augmented-wave + core cor, Zval = 18.0
     Generated using &quot;atomic&quot; code by A. Dal Corso  v.6.3
     Shape of augmentation charge: PSQ
     Using radial grid of 1235 points,  6 beta functions with: 
                l(1) =   0
                l(2) =   0
                l(3) =   1
                l(4) =   1
                l(5) =   2
                l(6) =   2
     Q(r) pseudized with 0 coefficients 


     atomic species   valence    mass     pseudopotential
        Pd            18.00   106.42000     Pd( 1.00)

     48 Sym. Ops., with inversion, found



   Cartesian axes

     site n.     atom                  positions (alat units)
         1           Pd  tau(   1) = (   0.0000000   0.0000000   0.0000000  )
         2           Pd  tau(   2) = (   0.2532895   0.2532895   0.2532895  )
         3           Pd  tau(   3) = (   0.0000000   0.0000000   0.5065789  )
         4           Pd  tau(   4) = (   0.2532895   0.2532895   0.7598684  )
         5           Pd  tau(   5) = (   0.0000000   0.5065789   0.0000000  )
         6           Pd  tau(   6) = (   0.2532895   0.7598684   0.2532895  )
         7           Pd  tau(   7) = (   0.0000000   0.5065789   0.5065789  )
         8           Pd  tau(   8) = (   0.2532895   0.7598684   0.7598684  )
         9           Pd  tau(   9) = (   0.5065789   0.0000000   0.0000000  )
        10           Pd  tau(  10) = (   0.7598684   0.2532895   0.2532895  )
        11           Pd  tau(  11) = (   0.5065789   0.0000000   0.5065789  )
        12           Pd  tau(  12) = (   0.7598684   0.2532895   0.7598684  )
        13           Pd  tau(  13) = (   0.5065789   0.5065789   0.0000000  )
        14           Pd  tau(  14) = (   0.7598684   0.7598684   0.2532895  )
        15           Pd  tau(  15) = (   0.5065789   0.5065789   0.5065789  )
        16           Pd  tau(  16) = (   0.7598684   0.7598684   0.7598684  )

     number of k points=    35  Marzari-Vanderbilt smearing, width (Ry)=  0.0400
                       cart. coord. in units 2pi/alat
        k(    1) = (   0.0548341   0.0548341   0.0548341), wk =   0.0219479
        k(    2) = (   0.0548341   0.0548341   0.1645022), wk =   0.0658436
        k(    3) = (   0.0548341   0.0548341   0.2741703), wk =   0.0658436
        k(    4) = (   0.0548341   0.0548341   0.3838384), wk =   0.0658436
        k(    5) = (   0.0548341   0.0548341  -0.4935065), wk =   0.0329218
        k(    6) = (   0.0548341   0.1645022   0.1645022), wk =   0.0658436
        k(    7) = (   0.0548341   0.1645022   0.2741703), wk =   0.1316872
        k(    8) = (   0.0548341   0.1645022   0.3838384), wk =   0.1316872
        k(    9) = (   0.0548341   0.1645022  -0.4935065), wk =   0.0658436
        k(   10) = (   0.0548341   0.2741703   0.2741703), wk =   0.0658436
        k(   11) = (   0.0548341   0.2741703   0.3838384), wk =   0.1316872
        k(   12) = (   0.0548341   0.2741703  -0.4935065), wk =   0.0658436
        k(   13) = (   0.0548341   0.3838384   0.3838384), wk =   0.0658436
        k(   14) = (   0.0548341   0.3838384  -0.4935065), wk =   0.0658436
        k(   15) = (   0.0548341  -0.4935065  -0.4935065), wk =   0.0164609
        k(   16) = (   0.1645022   0.1645022   0.1645022), wk =   0.0219479
        k(   17) = (   0.1645022   0.1645022   0.2741703), wk =   0.0658436
        k(   18) = (   0.1645022   0.1645022   0.3838384), wk =   0.0658436
        k(   19) = (   0.1645022   0.1645022  -0.4935065), wk =   0.0329218
        k(   20) = (   0.1645022   0.2741703   0.2741703), wk =   0.0658436
        k(   21) = (   0.1645022   0.2741703   0.3838384), wk =   0.1316872
        k(   22) = (   0.1645022   0.2741703  -0.4935065), wk =   0.0658436
        k(   23) = (   0.1645022   0.3838384   0.3838384), wk =   0.0658436
        k(   24) = (   0.1645022   0.3838384  -0.4935065), wk =   0.0658436
        k(   25) = (   0.1645022  -0.4935065  -0.4935065), wk =   0.0164609
        k(   26) = (   0.2741703   0.2741703   0.2741703), wk =   0.0219479
        k(   27) = (   0.2741703   0.2741703   0.3838384), wk =   0.0658436
        k(   28) = (   0.2741703   0.2741703  -0.4935065), wk =   0.0329218
        k(   29) = (   0.2741703   0.3838384   0.3838384), wk =   0.0658436
        k(   30) = (   0.2741703   0.3838384  -0.4935065), wk =   0.0658436
        k(   31) = (   0.2741703  -0.4935065  -0.4935065), wk =   0.0164609
        k(   32) = (   0.3838384   0.3838384   0.3838384), wk =   0.0219479
        k(   33) = (   0.3838384   0.3838384  -0.4935065), wk =   0.0329218
        k(   34) = (   0.3838384  -0.4935065  -0.4935065), wk =   0.0164609
        k(   35) = (  -0.4935065  -0.4935065  -0.4935065), wk =   0.0027435

     Dense  grid:   233817 G-vectors     FFT dimensions: (  80,  80,  80)

     Smooth grid:   125183 G-vectors     FFT dimensions: (  64,  64,  64)

     Estimated max dynamical RAM per process >      37.24 MB

     Estimated total dynamical RAM >       2.62 GB

     Check: negative core charge=   -0.000002

     Initial potential from superposition of free atoms

     starting charge  287.99388, renormalised to  288.00000
     Starting wfcs are  160 randomized atomic wfcs +   13 random wfcs
     Checking if some PAW data can be deallocated... 

     total cpu time spent up to now is        5.5 secs

     Self-consistent Calculation

     iteration #  1     ecut=    71.00 Ry     beta= 0.10
     Davidson diagonalization with overlap
     ethr =  1.00E-02,  avg # of iterations =  3.1

     Threshold (ethr) on eigenvalues was too large:
     Diagonalizing with lowered threshold

     Davidson diagonalization with overlap
     ethr =  8.64E-05,  avg # of iterations =  3.7

     total cpu time spent up to now is       26.6 secs

     total energy              =   -8192.38542580 Ry
     estimated scf accuracy    <       0.23040417 Ry

     iteration #  2     ecut=    71.00 Ry     beta= 0.10
     Davidson diagonalization with overlap
     ethr =  8.00E-05,  avg # of iterations =  1.0

     total cpu time spent up to now is       34.3 secs

     total energy              =   -8192.31660656 Ry
     estimated scf accuracy    <       0.17099038 Ry

     iteration #  3     ecut=    71.00 Ry     beta= 0.10
     Davidson diagonalization with overlap
     ethr =  5.94E-05,  avg # of iterations =  2.0

     total cpu time spent up to now is       43.4 secs

     total energy              =   -8192.34035039 Ry
     estimated scf accuracy    <       0.01045010 Ry

     iteration #  4     ecut=    71.00 Ry     beta= 0.10
     Davidson diagonalization with overlap
     ethr =  3.63E-06,  avg # of iterations =  2.8

     total cpu time spent up to now is       54.0 secs

     total energy              =   -8192.34092922 Ry
     estimated scf accuracy    <       0.00390568 Ry

     iteration #  5     ecut=    71.00 Ry     beta= 0.10
     Davidson diagonalization with overlap
     ethr =  1.36E-06,  avg # of iterations =  1.1

     total cpu time spent up to now is       62.4 secs

     total energy              =   -8192.34066451 Ry
     estimated scf accuracy    <       0.00395232 Ry

     iteration #  6     ecut=    71.00 Ry     beta= 0.10
     Davidson diagonalization with overlap
     ethr =  1.36E-06,  avg # of iterations =  1.0

     total cpu time spent up to now is       68.9 secs

     total energy              =   -8192.33923228 Ry
     estimated scf accuracy    <       0.00326329 Ry

     iteration #  7     ecut=    71.00 Ry     beta= 0.10
     Davidson diagonalization with overlap
     ethr =  1.13E-06,  avg # of iterations =  2.0

     total cpu time spent up to now is       80.8 secs

     total energy              =   -8192.33982350 Ry
     estimated scf accuracy    <       0.00044515 Ry

     iteration #  8     ecut=    71.00 Ry     beta= 0.10
     Davidson diagonalization with overlap
     ethr =  1.55E-07,  avg # of iterations =  2.0

     total cpu time spent up to now is       88.1 secs

     total energy              =   -8192.33990241 Ry
     estimated scf accuracy    <       0.00021767 Ry

     iteration #  9     ecut=    71.00 Ry     beta= 0.10
     Davidson diagonalization with overlap
     ethr =  7.56E-08,  avg # of iterations =  2.0

     total cpu time spent up to now is       97.5 secs

     total energy              =   -8192.33960349 Ry
     estimated scf accuracy    <       0.00089066 Ry

     iteration # 10     ecut=    71.00 Ry     beta= 0.10
     Davidson diagonalization with overlap
     ethr =  7.56E-08,  avg # of iterations =  2.0

     total cpu time spent up to now is      106.4 secs

     total energy              =   -8192.33989016 Ry
     estimated scf accuracy    <       0.00003036 Ry

     iteration # 11     ecut=    71.00 Ry     beta= 0.10
     Davidson diagonalization with overlap
     ethr =  1.05E-08,  avg # of iterations =  4.0

     total cpu time spent up to now is      120.7 secs

     total energy              =   -8192.33981037 Ry
     estimated scf accuracy    <       0.00014646 Ry

     iteration # 12     ecut=    71.00 Ry     beta= 0.10
     Davidson diagonalization with overlap
     ethr =  1.05E-08,  avg # of iterations =  3.0

     total cpu time spent up to now is      135.9 secs

     total energy              =   -8192.33985195 Ry
     estimated scf accuracy    <       0.00000442 Ry

     iteration # 13     ecut=    71.00 Ry     beta= 0.10
     Davidson diagonalization with overlap
     ethr =  1.53E-09,  avg # of iterations =  2.0

     total cpu time spent up to now is      144.2 secs

     total energy              =   -8192.33984934 Ry
     estimated scf accuracy    <       0.00001013 Ry

     iteration # 14     ecut=    71.00 Ry     beta= 0.10
     Davidson diagonalization with overlap
     ethr =  1.53E-09,  avg # of iterations =  2.0

     total cpu time spent up to now is      153.8 secs

     End of self-consistent calculation

          k = 0.0548 0.0548 0.0548 ( 15672 PWs)   bands (ev):

   -63.6056 -63.5485 -63.5485 -63.5484 -63.5398 -63.5398 -63.5397 -63.5389
   -63.5389 -63.5388 -63.5382 -63.5382 -63.5382 -63.5354 -63.5353 -63.4887
   -29.5350 -29.5350 -29.5350 -29.5325 -29.5325 -29.5325 -29.4146 -29.4146
   -29.4096 -29.3412 -29.3375 -29.3375 -29.3375 -29.3214 -29.3214 -29.3084
   -29.3084 -29.3084 -29.2811 -29.2811 -29.2616 -29.2564 -29.2564 -29.2564
   -29.2463 -29.2462 -29.2462 -29.2372 -29.2372 -29.2372 -29.2345 -29.2345
   -29.2345 -29.2269 -29.2269 -29.2269 -29.2172 -29.2172 -29.2172 -29.0814
   -29.0777 -29.0777 -29.0777 -29.0760 -29.0760 -29.0751 -29.0751 -29.0751
    13.2995  15.0892  15.0893  15.0893  15.1003  15.1003  15.1003  15.1395
    15.1395  16.2283  16.2284  16.2284  16.2555  16.2555  16.2555  16.2713
    16.2713  16.2713  16.4104  16.4104  16.4104  16.6128  16.7401  16.7401
    16.9409  16.9409  16.9409  16.9747  16.9747  17.0783  17.3040  17.3040
    17.3040  17.4951  17.4951  17.5447  17.9992  17.9992  17.9992  18.1056
    18.1056  18.1056  18.2159  18.2159  18.2159  18.3187  18.3187  18.3187
    18.9927  18.9927  18.9927  19.2780  19.2780  19.2780  19.4960  19.4960
    19.4960  19.5134  19.5134  19.5134  19.5812  19.5812  19.7029  19.7029
    19.7029  19.8431  19.8431  19.8431  19.8931  19.8931  19.8931  19.8931
    20.7199  20.8097  20.8097  21.0091  21.0091  21.0091  21.0334  21.0334
    21.0334  21.0926  21.0926  21.0926  21.6946  21.6946  21.6946  22.0021
    22.0022  22.0022  22.2588  22.2588  22.2588  28.7745  28.7746  28.7746
    28.9277  28.9583  28.9583  28.9583  29.5820  29.8050  29.8050  29.9461
    29.9461  29.9656  30.0989  30.8372  30.8372

          k = 0.0548 0.0548 0.1645 ( 15704 PWs)   bands (ev):

   -63.6036 -63.5588 -63.5481 -63.5480 -63.5409 -63.5409 -63.5395 -63.5386
   -63.5382 -63.5382 -63.5382 -63.5381 -63.5357 -63.5355 -63.5284 -63.4902
   -29.5288 -29.5288 -29.5278 -29.5255 -29.5214 -29.5214 -29.4168 -29.4094
   -29.4013 -29.3709 -29.3640 -29.3640 -29.3619 -29.3613 -29.3359 -29.3359
   -29.3092 -29.2870 -29.2858 -29.2759 -29.2751 -29.2563 -29.2562 -29.2419
   -29.2415 -29.2401 -29.2401 -29.2385 -29.2323 -29.2323 -29.2313 -29.2273
   -29.2272 -29.2217 -29.2217 -29.1980 -29.1935 -29.1935 -29.1889 -29.0933
   -29.0854 -29.0854 -29.0841 -29.0819 -29.0809 -29.0780 -29.0777 -29.0777
    13.4209  15.1391  15.1391  15.1720  15.1720  15.1818  15.1914  15.1957
    15.2194  15.8837  16.1852  16.1852  16.2546  16.2700  16.3050  16.3051
    16.3525  16.3525  16.3646  16.3646  16.4219  16.4545  16.5608  16.5835
    16.6956  16.8341  16.9436  16.9436  17.2461  17.2461  17.2686  17.2901
    17.4724  17.4969  17.6113  17.6137  17.7631  17.7631  17.8203  17.9619
    17.9619  18.0032  18.3170  18.3170  18.4463  18.4463  18.4765  18.5918
    18.7180  19.2703  19.2703  19.3142  19.3142  19.4437  19.4437  19.4588
    19.4588  19.5014  19.5185  19.5339  19.5496  19.5496  19.5662  19.6131
    19.6605  19.6975  19.6975  19.8463  19.8672  19.8674  19.8903  19.8908
    20.3390  20.5218  20.5255  20.5677  20.6578  20.7989  20.9000  20.9000
    21.0645  21.0645  21.0912  21.0912  21.7714  21.7715  21.7853  21.7853
    22.4646  22.4646  22.5518  22.7724  22.9806  28.1406  28.7587  28.7648
    28.9474  28.9655  28.9655  29.2242  29.3381  29.4721  29.4721  29.7927
    30.2399  30.2468  30.6262  31.2602  31.8438

          k = 0.0548 0.0548 0.2742 ( 15685 PWs)   bands (ev):

   -63.5997 -63.5688 -63.5473 -63.5473 -63.5422 -63.5422 -63.5390 -63.5382
   -63.5380 -63.5380 -63.5379 -63.5378 -63.5362 -63.5358 -63.5192 -63.4933
   -29.5144 -29.5144 -29.5135 -29.5119 -29.5025 -29.5025 -29.4162 -29.4042
   -29.3995 -29.3989 -29.3983 -29.3983 -29.3888 -29.3814 -29.3721 -29.3721
   -29.3141 -29.3029 -29.2977 -29.2837 -29.2548 -29.2548 -29.2496 -29.2458
   -29.2433 -29.2433 -29.2406 -29.2306 -29.2306 -29.2275 -29.2275 -29.2046
   -29.1983 -29.1918 -29.1918 -29.1704 -29.1653 -29.1653 -29.1621 -29.1132
   -29.0979 -29.0979 -29.0966 -29.0953 -29.0907 -29.0859 -29.0856 -29.0855
    13.6587  15.2474  15.2474  15.3016  15.3016  15.3071  15.3595  15.3656
    15.3721  15.4256  16.0490  16.0491  16.1966  16.1966  16.2491  16.2561
    16.2717  16.2952  16.3092  16.4184  16.4184  16.4315  16.4937  16.4968
    16.4969  16.6294  17.0882  17.0882  17.2801  17.2801  17.4657  17.5032
    17.5052  17.5053  17.6214  17.6239  17.6349  17.6349  17.6654  17.6795
    17.7155  18.1941  18.4608  18.6137  18.6137  18.6487  18.6487  18.7843
    18.8463  18.8463  18.9133  19.1152  19.1152  19.3457  19.3513  19.3514
    19.4679  19.5049  19.5049  19.5612  19.5700  19.6256  19.6256  19.6754
    19.6798  19.8196  19.8206  19.8485  19.8521  19.8848  19.8876  19.8978
    19.8978  20.0724  20.2368  20.2563  20.3853  20.7091  20.7678  20.7678
    20.9920  20.9920  21.1269  21.1269  21.6174  21.6174  21.9151  21.9151
    22.5350  22.5350  23.5714  23.6331  23.8385  27.2939  27.7302  28.3347
    28.7345  28.9342  28.9496  29.3656  29.5244  29.5244  30.2516  30.2516
    30.7894  30.7949  31.6080  32.2028  32.8009

          k = 0.0548 0.0548 0.3838 ( 15701 PWs)   bands (ev):

   -63.5940 -63.5783 -63.5463 -63.5462 -63.5436 -63.5435 -63.5384 -63.5378
   -63.5378 -63.5377 -63.5377 -63.5376 -63.5369 -63.5364 -63.5109 -63.4978
   -29.4930 -29.4929 -29.4929 -29.4921 -29.4765 -29.4765 -29.4370 -29.4349
   -29.4331 -29.4331 -29.4130 -29.4096 -29.4096 -29.3962 -29.3835 -29.3725
   -29.3404 -29.3291 -29.2857 -29.2761 -29.2604 -29.2553 -29.2525 -29.2525
   -29.2466 -29.2466 -29.2293 -29.2293 -29.2279 -29.2279 -29.2049 -29.1703
   -29.1669 -29.1629 -29.1629 -29.1454 -29.1392 -29.1390 -29.1390 -29.1377
   -29.1153 -29.1153 -29.1150 -29.1149 -29.1049 -29.0990 -29.0985 -29.0985
    14.0020  14.9218  15.4085  15.4085  15.4718  15.4831  15.4831  15.5832
    15.6058  15.6075  15.8382  15.8382  15.9477  15.9553  15.9553  16.0812
    16.1350  16.2116  16.2662  16.2853  16.3449  16.4323  16.5917  16.5917
    16.7000  16.7000  17.0845  17.0845  17.2111  17.2111  17.4775  17.4875
    17.4875  17.5194  17.5779  17.6034  17.6764  17.6765  17.8520  18.0338
    18.0399  18.2275  18.3386  18.3386  18.5227  18.6010  18.6010  18.8602
    18.8602  18.9042  18.9043  19.0189  19.0649  19.1223  19.1330  19.2180
    19.2180  19.2727  19.3520  19.3520  19.6196  19.6295  19.7568  19.7597
    19.7665  19.8598  19.8773  19.8856  19.8859  19.9238  19.9804  19.9804
    20.0367  20.0430  20.1148  20.2424  20.2424  20.5565  20.5701  20.5701
    20.8073  20.8073  21.2194  21.2194  21.4718  21.4718  22.1038  22.1038
    22.4654  22.4654  24.5346  24.7091  24.7566  26.3890  26.7114  27.1531
    28.7167  28.7942  28.9363  29.1076  30.3871  30.3872  31.2335  31.2335
    31.5406  31.5623  32.6681  32.6977  32.6977

          k = 0.0548 0.0548-0.4935 ( 15724 PWs)   bands (ev):

   -63.5868 -63.5868 -63.5450 -63.5450 -63.5449 -63.5449 -63.5377 -63.5377
   -63.5377 -63.5377 -63.5376 -63.5376 -63.5370 -63.5370 -63.5037 -63.5037
   -29.4668 -29.4668 -29.4665 -29.4665 -29.4652 -29.4652 -29.4652 -29.4652
   -29.4452 -29.4452 -29.4451 -29.4451 -29.4064 -29.4064 -29.3638 -29.3638
   -29.3525 -29.3525 -29.2729 -29.2729 -29.2660 -29.2660 -29.2497 -29.2497
   -29.2497 -29.2497 -29.2284 -29.2284 -29.2284 -29.2284 -29.1705 -29.1705
   -29.1401 -29.1401 -29.1388 -29.1388 -29.1372 -29.1371 -29.1371 -29.1371
   -29.1234 -29.1234 -29.1165 -29.1165 -29.1164 -29.1164 -29.1164 -29.1164
    14.4327  14.4327  15.6120  15.6120  15.6120  15.6120  15.6867  15.6868
    15.7066  15.7066  15.7066  15.7066  15.8301  15.8301  15.8815  15.8815
    15.9023  15.9024  16.2927  16.2927  16.3269  16.3269  16.8185  16.8185
    16.8185  16.8185  16.9531  16.9531  16.9531  16.9531  17.5126  17.5127
    17.5513  17.5513  17.8590  17.8590  17.8590  17.8591  18.0233  18.0233
    18.0929  18.0929  18.0929  18.0930  18.5115  18.5115  18.5165  18.5165
    18.8425  18.8425  19.0533  19.0533  19.0533  19.0533  19.1548  19.1548
    19.1548  19.1548  19.5076  19.5076  19.6549  19.6549  19.6873  19.6873
    19.6932  19.6932  19.8686  19.8686  19.8867  19.8867  19.8917  19.8917
    20.3024  20.3024  20.3024  20.3024  20.3544  20.3544  20.5521  20.5521
    20.5521  20.5521  21.3373  21.3373  21.3373  21.3373  22.3030  22.3030
    22.3030  22.3030  25.4597  25.4597  25.7174  25.7175  25.9201  25.9201
    28.7273  28.7273  28.9812  28.9812  31.4691  31.4691  31.4691  31.4691
    32.3631  32.3631  32.3631  32.3631  32.4540

          k = 0.0548 0.1645 0.1645 ( 15689 PWs)   bands (ev):

   -63.6017 -63.5581 -63.5580 -63.5477 -63.5437 -63.5406 -63.5406 -63.5380
   -63.5380 -63.5380 -63.5362 -63.5358 -63.5355 -63.5286 -63.5286 -63.4917
   -29.5277 -29.5219 -29.5219 -29.5153 -29.5153 -29.5058 -29.4219 -29.4060
   -29.3899 -29.3881 -29.3870 -29.3869 -29.3800 -29.3736 -29.3536 -29.3175
   -29.3039 -29.3039 -29.2850 -29.2850 -29.2781 -29.2603 -29.2501 -29.2501
   -29.2482 -29.2451 -29.2451 -29.2362 -29.2362 -29.2301 -29.2265 -29.2250
   -29.2090 -29.2032 -29.1989 -29.1989 -29.1773 -29.1666 -29.1666 -29.1101
   -29.0978 -29.0905 -29.0905 -29.0850 -29.0840 -29.0840 -29.0759 -29.0751
    13.5396  15.1616  15.2310  15.2310  15.2596  15.2599  15.2599  15.2606
    15.2889  15.8678  15.8679  16.1733  16.3023  16.3023  16.3149  16.3224
    16.3478  16.3478  16.3692  16.3811  16.3811  16.4558  16.4643  16.6384
    16.6384  16.7186  16.8676  16.9259  17.1214  17.3110  17.3465  17.4109
    17.4625  17.4625  17.4897  17.6205  17.6205  17.7281  17.7575  17.8912
    18.2035  18.2035  18.2776  18.2776  18.3688  18.4913  18.6392  18.6392
    18.9539  18.9957  18.9957  19.2619  19.2619  19.3155  19.4546  19.4549
    19.4549  19.4660  19.4660  19.4837  19.4868  19.5894  19.6409  19.6409
    19.7189  19.8185  19.8283  19.8283  19.8496  19.8496  19.8797  19.8817
    20.2686  20.3275  20.3275  20.5424  20.5452  20.5625  20.5625  20.6490
    20.6490  20.8334  21.1243  21.1485  21.2621  21.8783  22.5187  22.5187
    22.6714  22.6714  23.0814  23.0843  23.0843  27.3869  28.2089  28.7738
    28.9566  28.9566  29.4729  29.4730  29.5348  29.6920  29.8020  30.0619
    30.2088  30.3957  30.5126  31.0738  32.5321

          k = 0.0548 0.1645 0.2742 ( 15691 PWs)   bands (ev):

   -63.5979 -63.5678 -63.5567 -63.5469 -63.5467 -63.5419 -63.5401 -63.5379
   -63.5377 -63.5376 -63.5368 -63.5357 -63.5338 -63.5290 -63.5197 -63.4947
   -29.5184 -29.5085 -29.5085 -29.5033 -29.4976 -29.4827 -29.4261 -29.4187
   -29.4138 -29.4057 -29.4046 -29.4029 -29.3959 -29.3816 -29.3715 -29.3411
   -29.3127 -29.3092 -29.2819 -29.2780 -29.2755 -29.2689 -29.2615 -29.2562
   -29.2545 -29.2491 -29.2432 -29.2345 -29.2318 -29.2194 -29.2185 -29.2009
   -29.1964 -29.1834 -29.1794 -29.1722 -29.1558 -29.1418 -29.1409 -29.1340
   -29.1147 -29.1011 -29.1007 -29.0965 -29.0944 -29.0905 -29.0789 -29.0778
    13.7714  15.2367  15.3365  15.3706  15.3850  15.3976  15.4067  15.4257
    15.4391  15.4495  15.8007  16.0807  16.1904  16.2210  16.2244  16.2499
    16.3014  16.3227  16.3460  16.3842  16.4033  16.4109  16.4836  16.6207
    16.6381  16.7909  16.8407  16.9085  17.0648  17.2541  17.3596  17.4460
    17.4915  17.5587  17.5665  17.5774  17.5998  17.6337  17.7082  17.8534
    17.8751  18.4021  18.4905  18.4990  18.6002  18.6042  18.6623  18.7187
    18.7302  18.7891  18.9007  19.0484  19.0830  19.1910  19.2888  19.3025
    19.3519  19.3659  19.3677  19.4736  19.5052  19.5527  19.6290  19.6356
    19.7548  19.8005  19.8022  19.8755  19.8829  19.9379  19.9551  19.9844
    20.0972  20.1620  20.2312  20.2526  20.2831  20.3110  20.3484  20.5538
    20.6580  20.8128  20.9238  21.1047  21.2495  22.0770  22.2483  22.8859
    23.0431  23.3273  23.4597  23.7253  23.8788  26.6240  27.4083  28.5760
    28.9474  28.9937  29.4305  29.4846  29.5298  30.1434  30.1505  30.2639
    30.9315  31.0265  31.1199  31.7934  33.1427

          k = 0.0548 0.1645 0.3838 ( 15699 PWs)   bands (ev):

   -63.5923 -63.5770 -63.5548 -63.5496 -63.5459 -63.5432 -63.5393 -63.5377
   -63.5376 -63.5375 -63.5372 -63.5361 -63.5321 -63.5297 -63.5117 -63.4990
   -29.5015 -29.4888 -29.4885 -29.4859 -29.4737 -29.4530 -29.4501 -29.4397
   -29.4348 -29.4345 -29.4271 -29.4169 -29.4134 -29.3808 -29.3803 -29.3518
   -29.3385 -29.3046 -29.2959 -29.2771 -29.2702 -29.2669 -29.2639 -29.2601
   -29.2532 -29.2520 -29.2335 -29.2325 -29.2325 -29.2127 -29.2039 -29.1891
   -29.1658 -29.1633 -29.1581 -29.1556 -29.1477 -29.1359 -29.1348 -29.1198
   -29.1178 -29.1157 -29.1157 -29.1147 -29.1083 -29.1013 -29.0876 -29.0859
    14.1043  14.9814  15.3575  15.4920  15.5281  15.5614  15.5784  15.6462
    15.6479  15.6504  15.6706  15.8976  15.9705  16.0138  16.0221  16.0595
    16.1509  16.1636  16.3115  16.3635  16.4509  16.5445  16.5735  16.5851
    16.6668  16.8686  16.9720  16.9832  16.9898  17.1397  17.3332  17.3750
    17.5027  17.5152  17.5691  17.6265  17.7026  17.8198  17.9080  17.9278
    18.0256  18.0499  18.3020  18.4796  18.5248  18.6499  18.7492  18.7909
    18.8212  18.8219  18.8317  18.8720  18.8747  18.9194  19.0637  19.1681
    19.2212  19.2351  19.3258  19.4151  19.5674  19.5714  19.5968  19.7122
    19.7273  19.7305  19.7369  19.8741  19.8965  19.8971  19.9451  19.9968
    20.0100  20.0302  20.1933  20.2328  20.2989  20.3441  20.4840  20.5474
    20.5674  20.6777  20.7165  20.9721  21.4429  21.9686  22.3376  22.8717
    23.1500  23.5403  24.1630  24.7404  24.8898  25.8298  26.5360  27.3756
    28.9560  29.1509  29.5270  29.6448  29.8303  30.4046  30.8482  31.2526
    31.7464  31.8278  31.9930  32.1652  32.6088

          k = 0.0548 0.1645-0.4935 ( 15688 PWs)   bands (ev):

   -63.5853 -63.5853 -63.5524 -63.5523 -63.5446 -63.5446 -63.5385 -63.5385
   -63.5376 -63.5376 -63.5366 -63.5366 -63.5308 -63.5308 -63.5047 -63.5047
   -29.4782 -29.4782 -29.4644 -29.4644 -29.4637 -29.4637 -29.4633 -29.4633
   -29.4450 -29.4450 -29.4241 -29.4241 -29.4183 -29.4183 -29.3614 -29.3614
   -29.3294 -29.3294 -29.2811 -29.2811 -29.2709 -29.2709 -29.2617 -29.2617
   -29.2570 -29.2570 -29.2330 -29.2330 -29.2078 -29.2078 -29.1968 -29.1968
   -29.1609 -29.1609 -29.1382 -29.1382 -29.1350 -29.1350 -29.1341 -29.1341
   -29.1263 -29.1263 -29.1162 -29.1162 -29.1014 -29.1014 -29.0994 -29.0993
    14.5181  14.5181  15.5103  15.5103  15.6863  15.6864  15.7308  15.7309
    15.7795  15.7795  15.7898  15.7898  15.8769  15.8769  15.8979  15.8979
    15.9213  15.9213  16.3495  16.3495  16.4314  16.4314  16.7406  16.7406
    16.7749  16.7749  16.8691  16.8692  17.1407  17.1407  17.3369  17.3369
    17.5288  17.5288  17.5848  17.5849  17.8713  17.8714  18.0450  18.0450
    18.2480  18.2480  18.2520  18.2520  18.3370  18.3370  18.3427  18.3427
    18.9210  18.9210  18.9384  18.9384  19.0684  19.0684  19.1249  19.1249
    19.1871  19.1871  19.1945  19.1945  19.5789  19.5789  19.6506  19.6506
    19.6649  19.6649  19.8501  19.8501  19.8776  19.8776  19.9346  19.9346
    20.0321  20.0321  20.1801  20.1801  20.4045  20.4045  20.5553  20.5553
    20.5649  20.5649  20.7607  20.7607  21.6917  21.6917  22.6188  22.6188
    23.3987  23.3987  25.0040  25.0040  25.6351  25.6352  26.1228  26.1228
    29.0104  29.0104  29.6301  29.6302  30.6307  30.6307  31.4903  31.4903
    31.6876  31.6877  32.3821  32.3821  32.6299

          k = 0.0548 0.2742 0.2742 ( 15701 PWs)   bands (ev):

   -63.5942 -63.5659 -63.5659 -63.5512 -63.5462 -63.5413 -63.5413 -63.5377
   -63.5376 -63.5374 -63.5373 -63.5358 -63.5302 -63.5207 -63.5207 -63.4974
   -29.5141 -29.4969 -29.4969 -29.4884 -29.4884 -29.4558 -29.4356 -29.4331
   -29.4330 -29.4274 -29.4199 -29.4168 -29.3989 -29.3864 -29.3505 -29.3101
   -29.3080 -29.3079 -29.3065 -29.3064 -29.2717 -29.2688 -29.2677 -29.2597
   -29.2597 -29.2474 -29.2473 -29.2416 -29.2416 -29.2362 -29.2073 -29.1774
   -29.1759 -29.1759 -29.1652 -29.1624 -29.1622 -29.1424 -29.1355 -29.1193
   -29.1193 -29.1075 -29.1075 -29.1032 -29.1005 -29.1005 -29.0758 -29.0753
    13.9899  15.2659  15.4687  15.4687  15.4761  15.5034  15.5034  15.5292
    15.5385  15.5385  15.5853  16.0774  16.0995  16.1333  16.1334  16.2124
    16.2597  16.4042  16.4042  16.4506  16.4704  16.4704  16.5890  16.5890
    16.6907  16.7815  16.8394  16.8488  16.9295  17.1785  17.1785  17.2566
    17.4888  17.5507  17.5744  17.6261  17.6261  17.6288  17.6927  18.0734
    18.0954  18.1249  18.1249  18.6398  18.6398  18.6751  18.6751  18.7103
    18.7639  18.8216  18.8216  18.8640  18.8640  19.0477  19.0763  19.0763
    19.2839  19.3537  19.4120  19.4121  19.4666  19.4666  19.5735  19.6070
    19.6245  19.7507  19.7520  19.7757  19.8749  19.8884  19.9025  20.0371
    20.0443  20.0768  20.0768  20.1819  20.1819  20.3227  20.3227  20.4057
    20.4057  20.5234  20.8780  21.1276  21.4898  22.3643  22.9726  22.9726
    23.7383  23.7384  23.9952  23.9952  24.2139  25.9287  26.7661  28.7819
    28.7833  29.3515  29.5507  29.5507  30.1719  30.2981  30.2981  30.5673
    30.8544  31.4803  31.5417  32.1005  32.2647

          k = 0.0548 0.2742 0.3838 ( 15703 PWs)   bands (ev):

   -63.5890 -63.5745 -63.5631 -63.5556 -63.5452 -63.5426 -63.5405 -63.5386
   -63.5375 -63.5372 -63.5369 -63.5361 -63.5270 -63.5223 -63.5132 -63.5015
   -29.5024 -29.4803 -29.4802 -29.4753 -29.4685 -29.4603 -29.4432 -29.4420
   -29.4414 -29.4390 -29.4376 -29.4231 -29.4212 -29.3722 -29.3464 -29.3323
   -29.3270 -29.3018 -29.3007 -29.2807 -29.2749 -29.2736 -29.2701 -29.2693
   -29.2670 -29.2649 -29.2505 -29.2408 -29.2390 -29.2164 -29.1971 -29.1956
   -29.1813 -29.1598 -29.1550 -29.1530 -29.1471 -29.1451 -29.1286 -29.1175
   -29.1173 -29.1162 -29.1149 -29.1072 -29.1011 -29.1002 -29.0788 -29.0780
    14.2993  15.0795  15.3250  15.4516  15.6156  15.6424  15.6852  15.6991
    15.7216  15.7294  15.7998  15.9686  15.9742  16.0052  16.0168  16.1007
    16.1100  16.3269  16.4163  16.4856  16.5531  16.5574  16.6037  16.6252
    16.7289  16.8012  16.8541  16.8834  16.9297  17.0948  17.1383  17.1808
    17.4998  17.5884  17.6650  17.6714  17.6729  17.7325  17.7562  17.7696
    17.8332  18.1989  18.2959  18.3336  18.3853  18.4438  18.4531  18.7914
    18.7944  18.8459  18.8507  18.9165  18.9368  18.9373  18.9486  19.0967
    19.1859  19.2353  19.2832  19.3266  19.3746  19.4362  19.4870  19.5150
    19.6650  19.6727  19.6773  19.7234  19.8549  19.8846  19.9148  19.9464
    19.9566  20.0121  20.0981  20.1019  20.1114  20.1442  20.1956  20.3076
    20.6141  20.6893  20.8637  21.0631  21.8207  22.5919  22.7247  23.4614
    23.7241  24.3124  24.4994  24.5958  25.2025  25.2146  26.0435  27.7401
    29.0631  29.6075  29.8077  29.9523  30.3727  30.4487  30.7322  30.9845
    31.2987  31.3948  31.4685  32.1276  32.3435

          k = 0.0548 0.2742-0.4935 ( 15672 PWs)   bands (ev):

   -63.5823 -63.5823 -63.5596 -63.5596 -63.5439 -63.5439 -63.5396 -63.5396
   -63.5373 -63.5373 -63.5365 -63.5365 -63.5244 -63.5244 -63.5068 -63.5068
   -29.4839 -29.4839 -29.4601 -29.4601 -29.4598 -29.4598 -29.4598 -29.4598
   -29.4453 -29.4453 -29.4441 -29.4441 -29.3860 -29.3860 -29.3539 -29.3539
   -29.3016 -29.3016 -29.2915 -29.2915 -29.2884 -29.2884 -29.2687 -29.2687
   -29.2595 -29.2595 -29.2403 -29.2402 -29.2318 -29.2318 -29.1884 -29.1884
   -29.1869 -29.1869 -29.1334 -29.1334 -29.1329 -29.1329 -29.1308 -29.1308
   -29.1299 -29.1299 -29.1166 -29.1166 -29.0874 -29.0874 -29.0864 -29.0864
    14.6747  14.6747  15.3957  15.3957  15.7849  15.7849  15.8095  15.8095
    15.8500  15.8500  15.8977  15.8977  15.9021  15.9021  15.9401  15.9402
    16.0564  16.0564  16.4782  16.4782  16.5706  16.5706  16.7193  16.7193
    16.7216  16.7217  16.7637  16.7637  17.1398  17.1398  17.2371  17.2371
    17.4234  17.4234  17.5339  17.5339  17.8402  17.8402  17.9163  17.9163
    18.0619  18.0619  18.0711  18.0712  18.2343  18.2343  18.5393  18.5393
    18.8024  18.8024  18.8681  18.8681  19.0485  19.0485  19.1212  19.1212
    19.1366  19.1366  19.1887  19.1887  19.3954  19.3954  19.5797  19.5797
    19.5929  19.5929  19.7723  19.7723  19.7834  19.7834  19.9068  19.9068
    19.9753  19.9753  20.0402  20.0402  20.0778  20.0778  20.2389  20.2389
    20.7718  20.7718  20.9141  20.9141  22.2002  22.2002  23.1065  23.1065
    24.4772  24.4772  24.5697  24.5697  25.2787  25.2787  26.4684  26.4685
    29.7302  29.7302  29.8585  29.8585  30.5122  30.5122  30.5602  30.5603
    31.5375  31.5375  32.4235  32.4235  32.5802

          k = 0.0548 0.3838 0.3838 ( 15668 PWs)   bands (ev):

   -63.5842 -63.5710 -63.5710 -63.5613 -63.5442 -63.5418 -63.5417 -63.5396
   -63.5372 -63.5369 -63.5369 -63.5362 -63.5225 -63.5156 -63.5156 -63.5051
   -29.4958 -29.4689 -29.4689 -29.4639 -29.4639 -29.4617 -29.4617 -29.4539
   -29.4481 -29.4465 -29.4452 -29.4327 -29.3880 -29.3593 -29.3228 -29.3228
   -29.3091 -29.3090 -29.3003 -29.3001 -29.2966 -29.2787 -29.2787 -29.2777
   -29.2635 -29.2496 -29.2496 -29.2446 -29.2445 -29.2444 -29.2319 -29.1861
   -29.1831 -29.1608 -29.1607 -29.1412 -29.1364 -29.1350 -29.1278 -29.1227
   -29.1210 -29.1210 -29.1161 -29.1160 -29.0868 -29.0868 -29.0757 -29.0754
    14.5666  15.1807  15.1807  15.2975  15.7202  15.7894  15.8200  15.8200
    15.8509  15.8509  15.9371  15.9371  15.9917  15.9933  16.0242  16.0451
    16.1105  16.5615  16.5615  16.5939  16.5939  16.6208  16.6208  16.6282
    16.6789  16.7291  16.7735  16.7872  16.9256  16.9257  17.0562  17.2950
    17.3741  17.5267  17.6231  17.6531  17.6674  17.7063  17.7265  17.7265
    18.0218  18.0218  18.0550  18.0550  18.0608  18.0609  18.4423  18.5641
    18.7913  18.8719  18.9684  18.9684  19.0441  19.0441  19.0502  19.0666
    19.1481  19.1481  19.2601  19.3249  19.3686  19.3686  19.3859  19.3859
    19.4495  19.5843  19.5869  19.6357  19.7249  19.8375  19.8592  19.8592
    19.9065  19.9480  19.9961  19.9961  20.0189  20.1209  20.1209  20.1216
    20.8426  20.8426  20.9382  21.0737  22.2783  23.1854  23.2534  23.2534
    24.1177  24.1177  24.5772  25.4319  25.4402  25.5492  25.5493  27.7900
    28.8172  29.0782  30.1786  30.1786  30.5361  30.5361  30.7469  31.3028
    31.3848  31.3849  31.5189  32.2287  32.5380

          k = 0.0548 0.3838-0.4935 ( 15672 PWs)   bands (ev):

   -63.5781 -63.5781 -63.5665 -63.5665 -63.5430 -63.5430 -63.5407 -63.5407
   -63.5370 -63.5370 -63.5365 -63.5365 -63.5187 -63.5187 -63.5098 -63.5098
   -29.4825 -29.4825 -29.4616 -29.4616 -29.4569 -29.4569 -29.4565 -29.4565
   -29.4545 -29.4545 -29.4467 -29.4467 -29.3494 -29.3494 -29.3425 -29.3425
   -29.3107 -29.3107 -29.2917 -29.2917 -29.2806 -29.2806 -29.2725 -29.2725
   -29.2703 -29.2703 -29.2577 -29.2577 -29.2479 -29.2479 -29.2146 -29.2146
   -29.1709 -29.1709 -29.1427 -29.1427 -29.1277 -29.1277 -29.1274 -29.1274
   -29.1268 -29.1268 -29.1185 -29.1185 -29.0785 -29.0785 -29.0783 -29.0783
    14.8739  14.8739  15.2549  15.2549  15.8333  15.8333  15.8766  15.8766
    15.9239  15.9239  15.9530  15.9531  15.9632  15.9633  15.9943  15.9943
    16.2984  16.2984  16.6249  16.6249  16.6921  16.6921  16.7038  16.7038
    16.7121  16.7121  16.7528  16.7528  16.9258  16.9259  16.9691  16.9691
    17.6034  17.6034  17.6993  17.6993  17.7436  17.7436  17.7574  17.7574
    17.7868  17.7868  17.8220  17.8220  18.0215  18.0215  18.4103  18.4103
    18.8476  18.8476  18.8843  18.8843  19.1805  19.1805  19.1815  19.1815
    19.2221  19.2221  19.2224  19.2224  19.2230  19.2230  19.4766  19.4766
    19.4824  19.4824  19.4899  19.4899  19.7065  19.7065  19.7676  19.7676
    19.9399  19.9399  20.0093  20.0093  20.0149  20.0149  20.1203  20.1203
    20.9295  20.9295  20.9997  20.9997  22.7657  22.7658  23.6641  23.6641
    23.9210  23.9210  24.7882  24.7883  25.7352  25.7353  26.7986  26.7986
    29.2060  29.2060  29.4561  29.4562  30.6823  30.6823  31.5168  31.5168
    31.6090  31.6091  32.2302  32.2303  32.4818

          k = 0.0548-0.4935-0.4935 ( 15660 PWs)   bands (ev):

   -63.5728 -63.5728 -63.5727 -63.5727 -63.5419 -63.5419 -63.5419 -63.5419
   -63.5368 -63.5368 -63.5367 -63.5367 -63.5138 -63.5138 -63.5138 -63.5138
   -29.4748 -29.4748 -29.4748 -29.4748 -29.4554 -29.4553 -29.4553 -29.4553
   -29.4499 -29.4499 -29.4499 -29.4499 -29.3279 -29.3279 -29.3279 -29.3279
   -29.3102 -29.3102 -29.3101 -29.3101 -29.2889 -29.2889 -29.2889 -29.2889
   -29.2540 -29.2540 -29.2540 -29.2540 -29.2433 -29.2433 -29.2433 -29.2433
   -29.1556 -29.1556 -29.1555 -29.1555 -29.1258 -29.1258 -29.1258 -29.1258
   -29.1223 -29.1223 -29.1223 -29.1223 -29.0757 -29.0757 -29.0757 -29.0757
    15.0778  15.0779  15.0779  15.0779  15.8680  15.8680  15.8680  15.8680
    15.9717  15.9717  15.9717  15.9717  16.0030  16.0030  16.0030  16.0030
    16.5980  16.5980  16.5980  16.5980  16.7057  16.7057  16.7057  16.7057
    16.7276  16.7276  16.7276  16.7277  16.8377  16.8377  16.8377  16.8377
    17.6590  17.6591  17.6591  17.6591  17.7111  17.7111  17.7112  17.7112
    17.7708  17.7708  17.7708  17.7708  18.0371  18.0371  18.0371  18.0371
    18.9964  18.9964  18.9964  18.9964  19.1654  19.1654  19.1654  19.1654
    19.2540  19.2540  19.2540  19.2540  19.3500  19.3500  19.3500  19.3501
    19.3508  19.3508  19.3508  19.3508  19.6759  19.6759  19.6759  19.6759
    19.9736  19.9736  19.9736  19.9736  20.0505  20.0505  20.0505  20.0505
    21.0067  21.0067  21.0067  21.0067  23.3466  23.3467  23.3467  23.3467
    24.2370  24.2371  24.2371  24.2371  26.6471  26.6471  26.6471  26.6471
    28.9061  28.9061  28.9061  28.9061  31.5354  31.5354  31.5354  31.5354
    32.2388  32.2388  32.2388  32.2389  32.3766

          k = 0.1645 0.1645 0.1645 ( 15675 PWs)   bands (ev):

   -63.5998 -63.5574 -63.5574 -63.5573 -63.5434 -63.5434 -63.5433 -63.5371
   -63.5357 -63.5357 -63.5357 -63.5350 -63.5288 -63.5288 -63.5287 -63.4931
   -29.5207 -29.5207 -29.5207 -29.5007 -29.5007 -29.5007 -29.4166 -29.4166
   -29.4066 -29.4010 -29.4010 -29.4010 -29.3720 -29.3567 -29.3567 -29.3229
   -29.3228 -29.3228 -29.2903 -29.2903 -29.2903 -29.2546 -29.2546 -29.2546
   -29.2393 -29.2393 -29.2298 -29.2297 -29.2297 -29.2279 -29.2279 -29.2279
   -29.2005 -29.2005 -29.2005 -29.1888 -29.1531 -29.1531 -29.1531 -29.1272
   -29.1010 -29.1010 -29.1010 -29.0817 -29.0817 -29.0817 -29.0810 -29.0810
    13.6561  15.2563  15.2563  15.2563  15.3411  15.3411  15.3431  15.3432
    15.3432  15.8724  15.8725  15.8725  16.1927  16.3190  16.3190  16.3190
    16.4378  16.4378  16.4378  16.4531  16.4531  16.4531  16.5607  16.5607
    16.5817  16.5817  16.5817  17.1830  17.1830  17.2971  17.2971  17.2971
    17.3492  17.4066  17.4066  17.6023  17.6023  17.6023  17.8596  18.0309
    18.0309  18.0309  18.3769  18.3769  18.3769  18.7092  18.7092  18.7092
    18.8892  18.8892  18.8892  19.2444  19.2445  19.2445  19.3546  19.3546
    19.3546  19.4695  19.4696  19.4696  19.5230  19.5230  19.8216  19.8216
    19.8216  19.8501  19.8501  19.8539  19.8539  19.8737  19.8738  19.8738
    19.9587  19.9588  19.9588  19.9653  20.5756  20.5757  20.5757  20.6826
    20.6826  20.8103  20.8103  20.8103  22.0172  22.0173  22.0173  22.8146
    22.8146  22.8146  23.5944  23.5944  23.5944  26.6228  28.7614  28.7615
    28.7615  29.0465  29.0465  29.4332  29.8174  29.8174  29.9707  30.2195
    30.2196  30.2196  31.0032  32.0661  32.0661

          k = 0.1645 0.1645 0.2742 ( 15702 PWs)   bands (ev):

   -63.5961 -63.5669 -63.5561 -63.5560 -63.5463 -63.5462 -63.5427 -63.5382
   -63.5355 -63.5348 -63.5338 -63.5337 -63.5292 -63.5292 -63.5202 -63.4960
   -29.5117 -29.5117 -29.5067 -29.4912 -29.4794 -29.4794 -29.4247 -29.4246
   -29.4240 -29.4239 -29.4163 -29.4057 -29.3944 -29.3528 -29.3524 -29.3524
   -29.3389 -29.3192 -29.2911 -29.2911 -29.2886 -29.2664 -29.2641 -29.2641
   -29.2566 -29.2463 -29.2332 -29.2208 -29.2208 -29.2044 -29.2043 -29.2028
   -29.2028 -29.2024 -29.1725 -29.1682 -29.1523 -29.1346 -29.1346 -29.1312
   -29.1154 -29.1154 -29.1076 -29.0950 -29.0910 -29.0839 -29.0839 -29.0811
    13.8831  15.3320  15.3321  15.4381  15.4444  15.4775  15.4775  15.4863
    15.4947  15.4977  15.8385  15.8385  16.0952  16.2957  16.3134  16.3134
    16.3154  16.3668  16.3969  16.3970  16.4430  16.4483  16.5077  16.6118
    16.6118  16.7213  16.7214  16.9751  17.1453  17.1453  17.3323  17.3752
    17.4003  17.4516  17.4689  17.4859  17.5467  17.5467  17.7879  17.7879
    18.0350  18.2300  18.4511  18.4511  18.5205  18.6182  18.6182  18.7417
    18.7991  18.7991  18.9884  18.9959  19.1878  19.1878  19.2191  19.2409
    19.2409  19.3942  19.4263  19.5073  19.5073  19.5429  19.5596  19.5596
    19.5924  19.6039  19.7973  19.7982  19.8269  19.8490  19.8692  19.9584
    19.9584  20.1672  20.1672  20.1942  20.2147  20.4131  20.4335  20.6163
    20.6163  20.7330  20.8386  20.8387  21.5994  21.5994  22.7959  23.0686
    23.0686  23.8843  23.8843  23.8945  24.3378  25.8826  28.0402  28.7442
    28.8134  28.9917  28.9918  29.0051  30.1887  30.2508  30.3479  30.3697
    30.9825  31.1384  31.1384  32.5554  33.1407

          k = 0.1645 0.1645 0.3838 ( 15704 PWs)   bands (ev):

   -63.5907 -63.5758 -63.5542 -63.5541 -63.5491 -63.5491 -63.5417 -63.5394
   -63.5352 -63.5348 -63.5322 -63.5321 -63.5299 -63.5299 -63.5124 -63.5002
   -29.4959 -29.4959 -29.4863 -29.4777 -29.4519 -29.4519 -29.4498 -29.4498
   -29.4431 -29.4295 -29.4292 -29.4259 -29.3902 -29.3862 -29.3862 -29.3461
   -29.3312 -29.3199 -29.2876 -29.2876 -29.2827 -29.2823 -29.2731 -29.2731
   -29.2526 -29.2478 -29.2391 -29.2147 -29.2147 -29.2057 -29.2057 -29.1827
   -29.1787 -29.1787 -29.1687 -29.1488 -29.1470 -29.1334 -29.1334 -29.1179
   -29.1166 -29.1166 -29.1142 -29.1124 -29.1055 -29.0906 -29.0906 -29.0866
    14.2075  15.0486  15.4499  15.4499  15.5963  15.6564  15.6564  15.6906
    15.6932  15.7055  15.7373  15.7373  16.0032  16.0288  16.0969  16.0969
    16.1854  16.2829  16.3181  16.3757  16.4614  16.5327  16.5327  16.7397
    16.8093  16.8093  16.9371  16.9371  16.9519  16.9520  17.2894  17.3424
    17.3935  17.3954  17.5741  17.5741  17.7184  17.7184  17.7623  17.8240
    18.0065  18.0065  18.2397  18.4962  18.5073  18.6221  18.6222  18.6660
    18.7241  18.7444  18.8932  18.8932  18.8992  18.8992  19.1236  19.1236
    19.2111  19.2210  19.3324  19.3520  19.3520  19.5192  19.5915  19.6910
    19.7167  19.7316  19.8279  19.8280  19.8335  19.8456  19.9077  19.9817
    20.0084  20.0084  20.0706  20.1550  20.3973  20.3973  20.4078  20.6948
    20.7215  20.7215  20.7623  20.7623  21.2392  21.2392  23.3802  23.3803
    23.5846  23.8882  23.8882  25.0785  25.1357  25.1866  27.0540  27.5959
    28.7366  28.8412  29.6610  29.6611  30.3214  30.6826  30.9801  31.0741
    31.2692  31.8536  31.8537  32.1879  32.1879

          k = 0.1645 0.1645-0.4935 ( 15708 PWs)   bands (ev):

   -63.5838 -63.5838 -63.5518 -63.5518 -63.5518 -63.5517 -63.5406 -63.5406
   -63.5350 -63.5350 -63.5309 -63.5309 -63.5308 -63.5308 -63.5057 -63.5057
   -29.4747 -29.4747 -29.4747 -29.4747 -29.4611 -29.4611 -29.4603 -29.4603
   -29.4301 -29.4301 -29.4203 -29.4203 -29.4203 -29.4203 -29.3700 -29.3700
   -29.3076 -29.3076 -29.3007 -29.3007 -29.2812 -29.2812 -29.2812 -29.2812
   -29.2446 -29.2446 -29.2168 -29.2167 -29.2097 -29.2097 -29.2097 -29.2097
   -29.1547 -29.1547 -29.1547 -29.1547 -29.1390 -29.1390 -29.1318 -29.1318
   -29.1243 -29.1243 -29.1017 -29.1017 -29.1017 -29.1017 -29.0972 -29.0972
    14.6072  14.6073  15.5942  15.5942  15.5942  15.5942  15.7930  15.7930
    15.8686  15.8686  15.8687  15.8687  15.8761  15.8762  15.9482  15.9482
    15.9865  15.9865  16.3352  16.3352  16.5520  16.5520  16.7185  16.7185
    16.7185  16.7185  16.9929  16.9929  16.9929  16.9929  17.2895  17.2895
    17.3943  17.3943  17.6377  17.6377  17.6377  17.6377  18.1032  18.1032
    18.1032  18.1032  18.1729  18.1729  18.1742  18.1742  18.4708  18.4708
    18.8463  18.8463  18.9872  18.9872  19.0082  19.0082  19.0082  19.0082
    19.1471  19.1471  19.1471  19.1471  19.6203  19.6203  19.6595  19.6595
    19.6990  19.6991  19.8176  19.8176  19.8402  19.8402  19.9769  19.9769
    19.9769  19.9769  19.9912  19.9912  20.5808  20.5808  20.6064  20.6064
    20.6064  20.6064  20.9342  20.9342  20.9342  20.9342  23.6827  23.6827
    23.6827  23.6827  24.3686  24.3687  26.0985  26.0985  26.3276  26.3276
    28.7600  28.7601  30.4571  30.4572  30.6587  30.6587  30.6587  30.6587
    31.7215  31.7216  31.9420  31.9420  32.4018

          k = 0.1645 0.2742 0.2742 ( 15675 PWs)   bands (ev):

   -63.5925 -63.5650 -63.5649 -63.5548 -63.5507 -63.5455 -63.5454 -63.5397
   -63.5342 -63.5337 -63.5337 -63.5302 -63.5296 -63.5212 -63.5211 -63.4986
   -29.5072 -29.4986 -29.4986 -29.4731 -29.4731 -29.4544 -29.4359 -29.4359
   -29.4347 -29.4347 -29.4299 -29.4026 -29.4025 -29.3722 -29.3482 -29.3307
   -29.3195 -29.3195 -29.3192 -29.3192 -29.2991 -29.2787 -29.2783 -29.2783
   -29.2341 -29.2301 -29.2301 -29.2246 -29.2246 -29.2082 -29.2055 -29.1890
   -29.1844 -29.1795 -29.1753 -29.1753 -29.1535 -29.1331 -29.1249 -29.1175
   -29.1175 -29.1159 -29.1159 -29.0970 -29.0960 -29.0960 -29.0817 -29.0811
    14.0993  15.3665  15.5136  15.5136  15.5285  15.5285  15.5590  15.6086
    15.6216  15.6216  15.6296  15.8692  16.0349  16.2317  16.2317  16.3630
    16.3892  16.3892  16.4069  16.4426  16.5389  16.5389  16.5708  16.5799
    16.5800  16.5964  16.7888  17.0313  17.0410  17.1511  17.1512  17.2448
    17.3627  17.4113  17.4563  17.4563  17.4670  17.4699  17.6778  17.9235
    17.9235  18.0602  18.2519  18.3429  18.3429  18.7282  18.7282  18.7515
    18.7894  18.7894  18.9132  18.9846  19.0168  19.0168  19.1257  19.2211
    19.3324  19.3324  19.3324  19.3324  19.3946  19.4428  19.4797  19.4797
    19.5611  19.7603  19.7655  19.7775  19.7805  19.8336  19.8665  19.8665
    19.8685  20.1887  20.1887  20.2071  20.2792  20.3731  20.3732  20.5035
    20.5035  20.7285  20.7782  20.9054  21.0958  22.3128  22.3128  23.3846
    24.1895  24.1895  24.5418  24.5418  24.5851  25.1741  27.6950  28.7781
    28.9968  28.9968  29.0524  29.4992  29.5949  29.6756  30.7783  31.1839
    31.1840  31.7042  32.1245  32.2965  32.2965

          k = 0.1645 0.2742 0.3838 ( 15702 PWs)   bands (ev):

   -63.5874 -63.5734 -63.5623 -63.5549 -63.5529 -63.5481 -63.5443 -63.5413
   -63.5339 -63.5336 -63.5322 -63.5302 -63.5272 -63.5227 -63.5139 -63.5026
   -29.4960 -29.4851 -29.4796 -29.4648 -29.4581 -29.4504 -29.4503 -29.4448
   -29.4418 -29.4376 -29.4282 -29.4242 -29.3973 -29.3887 -29.3543 -29.3460
   -29.3356 -29.3140 -29.3068 -29.3010 -29.2967 -29.2925 -29.2890 -29.2834
   -29.2561 -29.2336 -29.2290 -29.2179 -29.2118 -29.2087 -29.2032 -29.1973
   -29.1805 -29.1644 -29.1625 -29.1542 -29.1503 -29.1402 -29.1303 -29.1221
   -29.1148 -29.1137 -29.1104 -29.1016 -29.1008 -29.0999 -29.0839 -29.0831
    14.4041  15.1611  15.4275  15.5349  15.6213  15.6984  15.7604  15.7674
    15.7907  15.7926  15.8369  15.8397  15.9908  16.0575  16.0995  16.2307
    16.2413  16.3310  16.3902  16.5052  16.5192  16.5464  16.5844  16.7290
    16.7357  16.8171  16.8723  16.8837  16.9111  16.9972  17.1280  17.1648
    17.3524  17.3903  17.5427  17.5560  17.5837  17.6269  17.6341  17.6598
    17.6670  17.9476  18.1532  18.1644  18.2887  18.3138  18.4746  18.4993
    18.8318  18.9014  18.9559  18.9614  19.0003  19.0258  19.0419  19.0604
    19.2326  19.2762  19.3037  19.3464  19.3514  19.4494  19.5331  19.6330
    19.6615  19.6839  19.6895  19.8056  19.8340  19.8447  19.9067  19.9190
    19.9205  19.9282  19.9772  20.1875  20.2218  20.2927  20.4813  20.5494
    20.5791  20.6815  20.7348  20.8735  21.0666  21.8656  23.0385  23.7672
    24.4442  24.4725  24.5380  24.9144  25.3092  25.4052  26.9454  27.9658
    29.0274  29.0760  29.2975  29.7039  29.9564  30.6895  31.0305  31.2725
    31.3758  31.4677  31.6406  31.8953  32.2401

          k = 0.1645 0.2742-0.4935 ( 15678 PWs)   bands (ev):

   -63.5810 -63.5810 -63.5589 -63.5589 -63.5507 -63.5507 -63.5428 -63.5428
   -63.5337 -63.5337 -63.5310 -63.5310 -63.5247 -63.5247 -63.5077 -63.5077
   -29.4789 -29.4789 -29.4682 -29.4682 -29.4555 -29.4555 -29.4550 -29.4550
   -29.4421 -29.4421 -29.4243 -29.4243 -29.3902 -29.3902 -29.3693 -29.3693
   -29.3165 -29.3165 -29.3046 -29.3046 -29.2970 -29.2970 -29.2817 -29.2817
   -29.2470 -29.2470 -29.2322 -29.2322 -29.2127 -29.2127 -29.1880 -29.1880
   -29.1777 -29.1777 -29.1460 -29.1460 -29.1362 -29.1362 -29.1296 -29.1296
   -29.1285 -29.1285 -29.1062 -29.1062 -29.0906 -29.0906 -29.0897 -29.0897
    14.7710  14.7710  15.4936  15.4936  15.7406  15.7406  15.8684  15.8684
    15.9228  15.9228  15.9378  15.9378  16.0016  16.0016  16.0301  16.0301
    16.0863  16.0864  16.4190  16.4191  16.6812  16.6812  16.6941  16.6941
    16.7049  16.7049  16.8186  16.8186  17.0934  17.0934  17.1251  17.1251
    17.3587  17.3587  17.4210  17.4210  17.6517  17.6517  17.8431  17.8432
    17.8849  17.8849  17.9267  17.9267  17.9872  17.9872  18.4660  18.4660
    18.7704  18.7704  19.0007  19.0007  19.0994  19.0994  19.1308  19.1308
    19.1686  19.1686  19.1783  19.1783  19.5727  19.5727  19.6089  19.6089
    19.6349  19.6349  19.7581  19.7581  19.8245  19.8245  19.8375  19.8375
    19.9418  19.9418  20.0300  20.0300  20.3432  20.3432  20.3981  20.3981
    20.6751  20.6751  20.7576  20.7576  21.4448  21.4448  23.7613  23.7614
    24.1478  24.1478  24.8357  24.8358  26.1261  26.1261  26.6799  26.6800
    29.1133  29.1134  29.8950  29.8950  30.6750  30.6750  30.7219  30.7219
    31.4235  31.4236  31.8463  31.8463  32.1175

          k = 0.1645 0.3838 0.3838 ( 15667 PWs)   bands (ev):

   -63.5828 -63.5699 -63.5699 -63.5605 -63.5512 -63.5468 -63.5467 -63.5432
   -63.5331 -63.5324 -63.5323 -63.5307 -63.5229 -63.5162 -63.5162 -63.5060
   -29.4891 -29.4701 -29.4701 -29.4600 -29.4600 -29.4537 -29.4485 -29.4484
   -29.4479 -29.4457 -29.4367 -29.4127 -29.3916 -29.3774 -29.3385 -29.3385
   -29.3368 -29.3189 -29.3188 -29.3106 -29.3105 -29.3076 -29.3076 -29.2810
   -29.2457 -29.2288 -29.2288 -29.2275 -29.2215 -29.2215 -29.2122 -29.1816
   -29.1772 -29.1577 -29.1577 -29.1502 -29.1476 -29.1335 -29.1287 -29.1287
   -29.1219 -29.1135 -29.1132 -29.1132 -29.0904 -29.0904 -29.0816 -29.0812
    14.6729  15.2790  15.2791  15.4074  15.8089  15.8385  15.8385  15.8780
    15.9050  15.9352  15.9352  16.0057  16.0323  16.0324  16.0562  16.1631
    16.2688  16.5246  16.5246  16.5903  16.5903  16.6080  16.6152  16.6479
    16.6931  16.6931  16.8283  16.8836  16.9122  16.9122  17.0398  17.2267
    17.2880  17.3560  17.4340  17.4436  17.5039  17.5039  17.5646  17.6028
    17.8108  17.8108  17.8374  17.8374  17.9091  17.9091  18.1159  18.4468
    18.7910  19.0241  19.0825  19.0825  19.0953  19.1596  19.1905  19.1905
    19.3005  19.3394  19.3684  19.3684  19.4161  19.4161  19.4210  19.4210
    19.6079  19.6097  19.6143  19.7225  19.7322  19.8431  19.8600  19.8600
    19.8825  19.8825  19.9280  19.9595  20.2304  20.2332  20.2332  20.2353
    20.7145  20.7145  20.7882  20.8991  21.5154  22.5166  22.5166  23.8230
    24.2288  25.0955  25.0955  25.7337  25.7744  25.7744  26.4205  28.0530
    28.8299  29.1642  29.7937  29.7938  30.1476  30.2476  30.2477  30.3807
    31.7694  31.8781  32.3332  32.3332  32.4874

          k = 0.1645 0.3838-0.4935 ( 15678 PWs)   bands (ev):

   -63.5768 -63.5768 -63.5656 -63.5656 -63.5491 -63.5491 -63.5451 -63.5451
   -63.5327 -63.5326 -63.5314 -63.5314 -63.5192 -63.5192 -63.5106 -63.5106
   -29.4767 -29.4767 -29.4606 -29.4606 -29.4563 -29.4563 -29.4527 -29.4527
   -29.4469 -29.4469 -29.4303 -29.4303 -29.3601 -29.3601 -29.3559 -29.3559
   -29.3262 -29.3262 -29.3252 -29.3252 -29.3129 -29.3129 -29.2821 -29.2821
   -29.2548 -29.2548 -29.2246 -29.2246 -29.2162 -29.2162 -29.2023 -29.2023
   -29.1683 -29.1683 -29.1380 -29.1380 -29.1380 -29.1380 -29.1298 -29.1298
   -29.1297 -29.1297 -29.1130 -29.1130 -29.0838 -29.0838 -29.0835 -29.0835
    14.9793  14.9794  15.3643  15.3643  15.8988  15.8988  15.9254  15.9255
    15.9705  15.9705  16.0076  16.0076  16.0375  16.0375  16.1131  16.1131
    16.3202  16.3202  16.5728  16.5728  16.6950  16.6951  16.7156  16.7157
    16.7383  16.7383  16.7656  16.7656  16.9195  16.9195  16.9533  16.9533
    17.4033  17.4033  17.4998  17.4998  17.5713  17.5714  17.5873  17.5873
    17.6181  17.6181  17.6970  17.6971  17.7528  17.7528  18.0962  18.0962
    19.0798  19.0798  19.1017  19.1017  19.2216  19.2216  19.2462  19.2462
    19.2611  19.2611  19.2743  19.2743  19.4484  19.4484  19.5040  19.5040
    19.5098  19.5098  19.6894  19.6894  19.7072  19.7072  19.8600  19.8600
    19.8784  19.8784  19.9150  19.9150  20.0585  20.0585  20.2212  20.2212
    20.7865  20.7865  20.8418  20.8418  22.0077  22.0078  23.1720  23.1721
    24.6962  24.6962  25.7731  25.7732  25.9993  25.9993  27.0338  27.0338
    29.2464  29.2464  29.5422  29.5422  29.9588  29.9588  30.8277  30.8277
    31.4359  31.4359  32.4037  32.4038  32.4706

          k = 0.1645-0.4935-0.4935 ( 15652 PWs)   bands (ev):

   -63.5717 -63.5717 -63.5716 -63.5716 -63.5473 -63.5473 -63.5472 -63.5472
   -63.5319 -63.5319 -63.5319 -63.5319 -63.5145 -63.5145 -63.5144 -63.5144
   -29.4685 -29.4685 -29.4685 -29.4685 -29.4546 -29.4546 -29.4546 -29.4546
   -29.4383 -29.4383 -29.4383 -29.4383 -29.3451 -29.3451 -29.3451 -29.3450
   -29.3237 -29.3237 -29.3236 -29.3236 -29.3191 -29.3191 -29.3191 -29.3191
   -29.2281 -29.2281 -29.2281 -29.2281 -29.2198 -29.2198 -29.2198 -29.2198
   -29.1515 -29.1515 -29.1515 -29.1515 -29.1324 -29.1324 -29.1324 -29.1324
   -29.1212 -29.1212 -29.1212 -29.1212 -29.0814 -29.0814 -29.0814 -29.0814
    15.1896  15.1897  15.1897  15.1897  15.9631  15.9631  15.9631  15.9631
    16.0027  16.0028  16.0028  16.0028  16.0991  16.0991  16.0991  16.0991
    16.6132  16.6132  16.6132  16.6132  16.6894  16.6894  16.6894  16.6894
    16.7455  16.7455  16.7455  16.7455  16.8213  16.8213  16.8213  16.8213
    17.4421  17.4421  17.4421  17.4421  17.5343  17.5343  17.5343  17.5343
    17.5973  17.5973  17.5973  17.5973  17.7646  17.7646  17.7646  17.7646
    19.2414  19.2414  19.2414  19.2414  19.2826  19.2826  19.2827  19.2827
    19.3854  19.3854  19.3854  19.3854  19.4050  19.4050  19.4050  19.4050
    19.4619  19.4619  19.4619  19.4619  19.6647  19.6647  19.6647  19.6647
    19.8881  19.8882  19.8882  19.8882  20.1106  20.1106  20.1106  20.1107
    20.8506  20.8506  20.8506  20.8506  22.5880  22.5880  22.5880  22.5880
    25.2594  25.2594  25.2594  25.2594  26.9182  26.9182  26.9182  26.9183
    28.9473  28.9473  28.9473  28.9473  30.8401  30.8401  30.8401  30.8401
    31.3622  31.3622  31.3622  31.3622  33.0272

          k = 0.2742 0.2742 0.2742 ( 15687 PWs)   bands (ev):

   -63.5892 -63.5632 -63.5632 -63.5631 -63.5496 -63.5496 -63.5495 -63.5419
   -63.5329 -63.5304 -63.5304 -63.5304 -63.5221 -63.5221 -63.5220 -63.5011
   -29.4937 -29.4937 -29.4937 -29.4521 -29.4521 -29.4521 -29.4431 -29.4431
   -29.4431 -29.4397 -29.4187 -29.4187 -29.3847 -29.3847 -29.3414 -29.3413
   -29.3413 -29.3290 -29.3290 -29.3290 -29.3070 -29.2961 -29.2961 -29.2961
   -29.2096 -29.2096 -29.2096 -29.2078 -29.2077 -29.2077 -29.2060 -29.1985
   -29.1985 -29.1764 -29.1764 -29.1764 -29.1434 -29.1304 -29.1304 -29.1304
   -29.1104 -29.1104 -29.1103 -29.0944 -29.0944 -29.0944 -29.0914 -29.0914
    14.3099  15.5597  15.5597  15.5597  15.6161  15.6161  15.6161  15.7165
    15.7165  15.7496  15.7496  15.7496  16.0135  16.3930  16.3930  16.3930
    16.4302  16.4302  16.4303  16.4631  16.4631  16.4631  16.4889  16.4889
    16.7195  16.7196  16.7196  17.0941  17.0941  17.0941  17.2235  17.2235
    17.2513  17.2574  17.2574  17.2779  17.2779  17.2779  17.6833  17.6833
    17.6833  17.9844  17.9844  17.9844  18.4801  18.4801  18.4801  18.5032
    18.8248  18.8666  18.8666  18.8666  19.1452  19.1452  19.1452  19.2592
    19.2592  19.2592  19.4663  19.4663  19.4663  19.4718  19.4718  19.6392
    19.6393  19.6393  19.7699  19.7699  19.7800  19.7800  19.7800  19.8095
    19.8095  20.2414  20.2414  20.2414  20.3674  20.3674  20.3674  20.4636
    20.4636  20.5905  20.5905  20.5905  21.7564  21.7564  21.7564  24.4730
    24.5251  24.5251  24.5251  25.2016  25.2016  25.2016  28.6355  28.6355
    28.7774  28.7775  28.7775  29.4310  29.5535  29.5535  29.9152  32.1670
    32.1670  32.1670  32.1799  32.1800  32.1800

          k = 0.2742 0.2742 0.3838 ( 15682 PWs)   bands (ev):

   -63.5844 -63.5711 -63.5606 -63.5606 -63.5537 -63.5536 -63.5481 -63.5441
   -63.5320 -63.5307 -63.5276 -63.5276 -63.5235 -63.5234 -63.5153 -63.5047
   -29.4835 -29.4835 -29.4740 -29.4552 -29.4552 -29.4492 -29.4452 -29.4430
   -29.4320 -29.4265 -29.4265 -29.4185 -29.4024 -29.3686 -29.3686 -29.3639
   -29.3569 -29.3305 -29.3305 -29.3178 -29.3119 -29.3119 -29.3072 -29.2822
   -29.2378 -29.2322 -29.2103 -29.2054 -29.1969 -29.1969 -29.1855 -29.1855
   -29.1802 -29.1801 -29.1658 -29.1496 -29.1462 -29.1462 -29.1355 -29.1293
   -29.1130 -29.1067 -29.1041 -29.1041 -29.0993 -29.0954 -29.0953 -29.0897
    14.6036  15.3028  15.6232  15.6232  15.6767  15.6767  15.8276  15.8429
    15.9054  15.9133  15.9133  15.9301  16.0164  16.1904  16.2759  16.2759
    16.3711  16.4114  16.4202  16.4410  16.5302  16.5302  16.6809  16.6810
    16.6925  16.8600  16.8601  16.8951  16.8951  17.0031  17.1218  17.1348
    17.1357  17.1965  17.2967  17.3576  17.3577  17.4779  17.4779  17.4809
    17.6234  17.6235  17.8172  17.8610  18.0005  18.0436  18.0437  18.4348
    18.7902  19.0230  19.0476  19.0476  19.1926  19.1926  19.2130  19.2130
    19.3448  19.3829  19.3829  19.4101  19.4182  19.4411  19.5287  19.5781
    19.6912  19.7100  19.7774  19.7819  19.7907  19.7907  19.8121  19.8121
    19.9003  19.9014  20.1320  20.2906  20.4280  20.4280  20.4539  20.4539
    20.4957  20.5594  20.5891  20.5891  21.2701  21.2701  22.4366  23.7946
    24.9244  24.9245  25.4559  25.4560  25.7570  25.9591  27.7002  28.3574
    28.7934  28.9180  29.1111  29.1111  30.0662  30.2315  30.2750  31.1205
    31.1205  31.4595  31.9024  32.2806  32.4652

          k = 0.2742 0.2742-0.4935 ( 15672 PWs)   bands (ev):

   -63.5783 -63.5783 -63.5574 -63.5574 -63.5573 -63.5573 -63.5462 -63.5462
   -63.5312 -63.5312 -63.5253 -63.5253 -63.5253 -63.5252 -63.5095 -63.5095
   -29.4697 -29.4697 -29.4697 -29.4697 -29.4487 -29.4487 -29.4461 -29.4461
   -29.4412 -29.4412 -29.3980 -29.3980 -29.3980 -29.3980 -29.3816 -29.3816
   -29.3410 -29.3410 -29.3240 -29.3240 -29.3240 -29.3240 -29.2721 -29.2721
   -29.2571 -29.2571 -29.2093 -29.2093 -29.1871 -29.1870 -29.1870 -29.1870
   -29.1646 -29.1646 -29.1646 -29.1646 -29.1370 -29.1370 -29.1308 -29.1308
   -29.1262 -29.1262 -29.0988 -29.0988 -29.0988 -29.0988 -29.0923 -29.0923
    14.9495  14.9496  15.6743  15.6743  15.6743  15.6743  16.0000  16.0000
    16.0033  16.0034  16.0968  16.0968  16.0968  16.0968  16.1363  16.1363
    16.1669  16.1669  16.4209  16.4209  16.6883  16.6883  16.6883  16.6883
    16.7858  16.7858  16.8902  16.8902  16.8902  16.8902  17.0852  17.0852
    17.1669  17.1669  17.4012  17.4012  17.4012  17.4012  17.5887  17.5887
    17.6374  17.6374  17.6375  17.6375  17.6892  17.6893  18.0849  18.0849
    19.1017  19.1017  19.1901  19.1901  19.1979  19.1979  19.1979  19.1980
    19.2310  19.2310  19.2310  19.2310  19.5752  19.5752  19.6074  19.6074
    19.7117  19.7117  19.7792  19.7792  19.7813  19.7813  19.8265  19.8266
    19.8266  19.8266  20.0567  20.0567  20.5213  20.5213  20.5213  20.5213
    20.5663  20.5663  20.8295  20.8295  20.8295  20.8295  23.1180  23.1180
    25.2891  25.2892  25.2892  25.2892  26.8019  26.8020  27.0484  27.0485
    28.8419  28.8419  29.9778  29.9778  29.9778  29.9778  30.8205  30.8205
    31.0309  31.0309  31.2263  31.2263  32.4420

          k = 0.2742 0.3838 0.3838 ( 15674 PWs)   bands (ev):

   -63.5800 -63.5678 -63.5678 -63.5589 -63.5582 -63.5518 -63.5517 -63.5469
   -63.5304 -63.5283 -63.5282 -63.5246 -63.5236 -63.5174 -63.5174 -63.5080
   -29.4762 -29.4656 -29.4656 -29.4542 -29.4534 -29.4534 -29.4392 -29.4362
   -29.4301 -29.4301 -29.4229 -29.3991 -29.3985 -29.3876 -29.3717 -29.3577
   -29.3577 -29.3421 -29.3365 -29.3364 -29.3345 -29.3345 -29.3324 -29.2689
   -29.2570 -29.2082 -29.2081 -29.1959 -29.1959 -29.1933 -29.1815 -29.1788
   -29.1678 -29.1647 -29.1546 -29.1542 -29.1542 -29.1392 -29.1392 -29.1335
   -29.1144 -29.1120 -29.1120 -29.1072 -29.0968 -29.0968 -29.0937 -29.0922
    14.8749  15.4594  15.4594  15.6205  15.8205  15.8884  15.8884  15.9777
    16.0412  16.0675  16.0675  16.0761  16.1183  16.2134  16.2135  16.3446
    16.4501  16.5206  16.5206  16.5451  16.5642  16.5760  16.5760  16.5931
    16.7690  16.7690  16.8618  16.8999  16.8999  16.9970  17.0102  17.0156
    17.1175  17.1454  17.1711  17.2088  17.2088  17.2707  17.3740  17.3802
    17.5055  17.5055  17.5544  17.5545  17.6229  17.6229  17.7016  18.0523
    19.1212  19.1697  19.1697  19.1803  19.2496  19.3331  19.3775  19.3910
    19.4036  19.4036  19.4318  19.4318  19.4559  19.4559  19.5581  19.6364
    19.6932  19.7006  19.7007  19.7167  19.7610  19.7809  19.7809  19.8347
    19.9260  19.9634  19.9634  20.0047  20.3026  20.3026  20.3196  20.5207
    20.5207  20.5268  20.6209  20.7667  20.8853  21.8901  21.8901  23.1509
    25.3881  26.1220  26.1221  26.1665  26.1665  26.2672  27.5015  28.5380
    28.8611  29.1879  29.1880  29.3258  29.4712  29.7172  30.3916  30.3916
    30.7021  31.1024  31.6265  32.0010  32.0012

          k = 0.2742 0.3838-0.4935 ( 15680 PWs)   bands (ev):

   -63.5744 -63.5744 -63.5637 -63.5637 -63.5552 -63.5552 -63.5495 -63.5495
   -63.5292 -63.5292 -63.5262 -63.5262 -63.5201 -63.5201 -63.5122 -63.5122
   -29.4651 -29.4651 -29.4579 -29.4579 -29.4463 -29.4463 -29.4438 -29.4438
   -29.4346 -29.4346 -29.4088 -29.4088 -29.3814 -29.3814 -29.3678 -29.3678
   -29.3565 -29.3565 -29.3486 -29.3486 -29.3437 -29.3437 -29.3025 -29.3025
   -29.2321 -29.2321 -29.1940 -29.1940 -29.1863 -29.1863 -29.1854 -29.1854
   -29.1642 -29.1642 -29.1521 -29.1521 -29.1348 -29.1348 -29.1329 -29.1329
   -29.1318 -29.1318 -29.1101 -29.1101 -29.0945 -29.0945 -29.0930 -29.0930
    15.1783  15.1784  15.5739  15.5739  15.8974  15.8974  16.0999  16.0999
    16.1236  16.1236  16.1493  16.1493  16.1664  16.1665  16.2643  16.2643
    16.3629  16.3629  16.5398  16.5398  16.6912  16.6912  16.7156  16.7157
    16.7229  16.7229  16.8309  16.8309  16.8883  16.8884  16.9277  16.9277
    17.1466  17.1466  17.2473  17.2473  17.2715  17.2716  17.2996  17.2996
    17.3694  17.3694  17.3973  17.3973  17.4575  17.4575  17.7228  17.7228
    19.2940  19.2940  19.3099  19.3099  19.3268  19.3268  19.3377  19.3377
    19.3911  19.3911  19.4720  19.4720  19.5460  19.5460  19.5759  19.5759
    19.6609  19.6609  19.7184  19.7184  19.7193  19.7193  19.7703  19.7703
    19.8117  19.8117  20.0703  20.0703  20.2913  20.2913  20.3207  20.3207
    20.5517  20.5517  20.5860  20.5860  21.3747  21.3747  22.5188  22.5189
    25.8379  25.8380  26.4637  26.4637  26.8364  26.8364  27.4495  27.4495
    29.3351  29.3351  29.3371  29.3371  29.7226  29.7226  30.1244  30.1245
    30.7389  30.7389  31.2844  31.2844  31.6574

          k = 0.2742-0.4935-0.4935 ( 15668 PWs)   bands (ev):

   -63.5694 -63.5694 -63.5694 -63.5694 -63.5526 -63.5526 -63.5525 -63.5525
   -63.5275 -63.5275 -63.5275 -63.5275 -63.5158 -63.5158 -63.5157 -63.5157
   -29.4562 -29.4562 -29.4562 -29.4562 -29.4470 -29.4470 -29.4470 -29.4470
   -29.4215 -29.4215 -29.4215 -29.4215 -29.3687 -29.3687 -29.3687 -29.3687
   -29.3569 -29.3569 -29.3569 -29.3569 -29.3352 -29.3352 -29.3352 -29.3352
   -29.2081 -29.2081 -29.2080 -29.2080 -29.1875 -29.1875 -29.1875 -29.1875
   -29.1452 -29.1452 -29.1452 -29.1452 -29.1420 -29.1420 -29.1419 -29.1419
   -29.1228 -29.1228 -29.1228 -29.1228 -29.0929 -29.0929 -29.0929 -29.0929
    15.4047  15.4048  15.4048  15.4048  16.0841  16.0841  16.0841  16.0841
    16.1464  16.1465  16.1465  16.1465  16.2591  16.2591  16.2591  16.2591
    16.6409  16.6410  16.6410  16.6410  16.6858  16.6858  16.6858  16.6858
    16.7505  16.7505  16.7505  16.7506  16.7922  16.7922  16.7922  16.7922
    17.1121  17.1121  17.1122  17.1122  17.2236  17.2236  17.2237  17.2237
    17.3574  17.3575  17.3575  17.3575  17.4170  17.4170  17.4170  17.4170
    19.3513  19.3513  19.3513  19.3513  19.4401  19.4401  19.4401  19.4401
    19.5265  19.5265  19.5265  19.5265  19.5315  19.5315  19.5315  19.5315
    19.6415  19.6415  19.6415  19.6415  19.7895  19.7895  19.7896  19.7896
    19.8812  19.8812  19.8812  19.8812  20.1324  20.1324  20.1324  20.1324
    20.5871  20.5871  20.5871  20.5871  21.9407  21.9407  21.9407  21.9407
    26.3971  26.3971  26.3971  26.3971  27.4112  27.4112  27.4112  27.4112
    29.0318  29.0318  29.0318  29.0318  30.2835  30.2835  30.2836  30.2836
    30.4900  30.4900  30.4900  30.4901  31.7529

          k = 0.3838 0.3838 0.3838 ( 15663 PWs)   bands (ev):

   -63.5759 -63.5648 -63.5648 -63.5647 -63.5566 -63.5566 -63.5565 -63.5504
   -63.5281 -63.5247 -63.5247 -63.5246 -63.5192 -63.5192 -63.5192 -63.5108
   -29.4572 -29.4572 -29.4572 -29.4480 -29.4480 -29.4480 -29.4297 -29.4192
   -29.4192 -29.4078 -29.4078 -29.4078 -29.4040 -29.4040 -29.3713 -29.3713
   -29.3713 -29.3590 -29.3589 -29.3589 -29.3572 -29.3572 -29.3572 -29.2973
   -29.2328 -29.1876 -29.1875 -29.1875 -29.1745 -29.1745 -29.1745 -29.1620
   -29.1620 -29.1534 -29.1534 -29.1534 -29.1527 -29.1526 -29.1526 -29.1367
   -29.1114 -29.1114 -29.1114 -29.1081 -29.1081 -29.1042 -29.1042 -29.1042
    15.1474  15.6799  15.6799  15.6799  15.9221  15.9222  15.9222  16.1894
    16.2060  16.2060  16.2309  16.2309  16.2309  16.4295  16.4295  16.4296
    16.5466  16.5466  16.5641  16.5641  16.5641  16.5687  16.5687  16.5687
    16.7715  16.8371  16.8371  16.8371  16.8955  16.8955  16.8955  16.9565
    16.9565  16.9565  16.9726  16.9726  17.0998  17.0998  17.2371  17.2371
    17.2371  17.2378  17.2378  17.2378  17.2977  17.2977  17.2977  17.6754
    19.2841  19.2841  19.2841  19.4690  19.4691  19.4691  19.4824  19.4824
    19.4824  19.4832  19.4832  19.4967  19.5791  19.5791  19.5791  19.6647
    19.6647  19.7058  19.7058  19.7058  19.7263  19.7264  19.7264  19.8353
    19.8353  20.2078  20.2078  20.3185  20.3185  20.3185  20.3591  20.3591
    20.3591  20.3598  20.3598  20.3598  21.3398  21.3398  21.3398  22.5280
    26.6371  26.6372  26.6372  26.9541  26.9541  26.9541  28.5853  28.5853
    28.9184  28.9185  28.9185  29.1871  29.1871  29.5146  29.7940  30.5337
    30.5338  30.5338  30.7708  30.7708  30.7708

          k = 0.3838 0.3838-0.4935 ( 15638 PWs)   bands (ev):

   -63.5708 -63.5708 -63.5610 -63.5610 -63.5610 -63.5609 -63.5537 -63.5537
   -63.5261 -63.5261 -63.5217 -63.5216 -63.5216 -63.5216 -63.5146 -63.5146
   -29.4492 -29.4492 -29.4492 -29.4492 -29.4359 -29.4359 -29.4328 -29.4328
   -29.4188 -29.4188 -29.3972 -29.3972 -29.3834 -29.3834 -29.3834 -29.3834
   -29.3817 -29.3817 -29.3713 -29.3713 -29.3713 -29.3713 -29.3282 -29.3282
   -29.2093 -29.2093 -29.1688 -29.1688 -29.1688 -29.1688 -29.1688 -29.1688
   -29.1596 -29.1596 -29.1596 -29.1596 -29.1430 -29.1430 -29.1344 -29.1344
   -29.1287 -29.1287 -29.1096 -29.1096 -29.1096 -29.1096 -29.1045 -29.1045
    15.4408  15.4409  15.8603  15.8603  15.8603  15.8604  16.2852  16.2853
    16.2924  16.2924  16.3128  16.3128  16.3867  16.3867  16.3867  16.3867
    16.4462  16.4462  16.5504  16.5505  16.6995  16.6995  16.6995  16.6995
    16.7736  16.7736  16.7736  16.7736  16.8573  16.8573  16.8913  16.8913
    16.9329  16.9329  16.9396  16.9397  17.0491  17.0491  17.0491  17.0491
    17.0816  17.0816  17.0816  17.0816  17.1811  17.1811  17.3646  17.3646
    19.3892  19.3892  19.4004  19.4004  19.4004  19.4004  19.5637  19.5637
    19.5732  19.5733  19.5733  19.5733  19.6048  19.6048  19.6846  19.6846
    19.6885  19.6885  19.6997  19.6997  19.6997  19.6997  19.8796  19.8796
    19.9057  19.9057  20.0468  20.0468  20.3085  20.3085  20.3085  20.3085
    20.3260  20.3260  20.8341  20.8341  20.8341  20.8341  21.9282  21.9282
    27.0416  27.0416  27.0416  27.0416  27.7386  27.7386  27.9424  27.9424
    28.9809  28.9809  29.4966  29.4966  29.4967  29.4967  29.9461  29.9461
    30.0693  30.0693  30.1829  30.1829  30.9911

          k = 0.3838-0.4935-0.4935 ( 15624 PWs)   bands (ev):

   -63.5663 -63.5663 -63.5662 -63.5662 -63.5576 -63.5576 -63.5576 -63.5576
   -63.5237 -63.5237 -63.5236 -63.5236 -63.5178 -63.5178 -63.5177 -63.5177
   -29.4380 -29.4380 -29.4380 -29.4380 -29.4336 -29.4336 -29.4336 -29.4336
   -29.4010 -29.4010 -29.4010 -29.4010 -29.3929 -29.3929 -29.3929 -29.3929
   -29.3877 -29.3877 -29.3876 -29.3876 -29.3560 -29.3560 -29.3559 -29.3559
   -29.1880 -29.1880 -29.1879 -29.1879 -29.1577 -29.1577 -29.1577 -29.1577
   -29.1544 -29.1544 -29.1544 -29.1544 -29.1382 -29.1382 -29.1382 -29.1381
   -29.1262 -29.1262 -29.1262 -29.1262 -29.1098 -29.1098 -29.1098 -29.1098
    15.7016  15.7017  15.7017  15.7017  16.1594  16.1595  16.1595  16.1595
    16.4042  16.4042  16.4043  16.4043  16.4790  16.4790  16.4790  16.4790
    16.6761  16.6762  16.6762  16.6762  16.6975  16.6975  16.6976  16.6976
    16.7384  16.7385  16.7385  16.7385  16.7568  16.7568  16.7568  16.7568
    16.7846  16.7846  16.7846  16.7846  16.9300  16.9300  16.9300  16.9300
    17.0463  17.0463  17.0464  17.0464  17.0706  17.0706  17.0706  17.0706
    19.4456  19.4456  19.4456  19.4456  19.5008  19.5008  19.5008  19.5008
    19.6058  19.6058  19.6058  19.6058  19.6768  19.6768  19.6769  19.6769
    19.7200  19.7200  19.7201  19.7201  19.7870  19.7870  19.7870  19.7870
    20.0927  20.0927  20.0927  20.0927  20.2790  20.2790  20.2790  20.2790
    20.3516  20.3516  20.3517  20.3517  21.3715  21.3715  21.3715  21.3715
    27.6189  27.6190  27.6190  27.6190  28.0619  28.0619  28.0619  28.0620
    29.1427  29.1427  29.1428  29.1428  29.6350  29.6350  29.6350  29.6350
    29.8624  29.8624  29.8624  29.8624  30.4399

          k =-0.4935-0.4935-0.4935 ( 15624 PWs)   bands (ev):

   -63.5623 -63.5623 -63.5623 -63.5623 -63.5623 -63.5623 -63.5622 -63.5621
   -63.5204 -63.5204 -63.5204 -63.5204 -63.5204 -63.5204 -63.5203 -63.5203
   -29.4149 -29.4149 -29.4149 -29.4149 -29.4149 -29.4149 -29.4149 -29.4149
   -29.4149 -29.4149 -29.4149 -29.4149 -29.4149 -29.4148 -29.4148 -29.4148
   -29.3789 -29.3789 -29.3788 -29.3788 -29.3788 -29.3788 -29.3788 -29.3788
   -29.1698 -29.1698 -29.1698 -29.1698 -29.1698 -29.1697 -29.1697 -29.1697
   -29.1317 -29.1317 -29.1317 -29.1317 -29.1317 -29.1317 -29.1317 -29.1317
   -29.1317 -29.1317 -29.1317 -29.1317 -29.1317 -29.1317 -29.1317 -29.1317
    16.0200  16.0202  16.0202  16.0202  16.0202  16.0202  16.0202  16.0202
    16.7114  16.7114  16.7114  16.7114  16.7114  16.7114  16.7114  16.7114
    16.7114  16.7114  16.7114  16.7114  16.7114  16.7115  16.7115  16.7115
    16.7228  16.7228  16.7228  16.7228  16.7228  16.7228  16.7228  16.7228
    16.7228  16.7228  16.7228  16.7228  16.7228  16.7228  16.7228  16.7228
    16.7562  16.7562  16.7562  16.7562  16.7562  16.7562  16.7562  16.7562
    19.5580  19.5580  19.5580  19.5580  19.5580  19.5580  19.5580  19.5580
    19.5580  19.5580  19.5580  19.5580  19.5580  19.5580  19.5580  19.5580
    19.9780  19.9780  19.9780  19.9780  19.9780  19.9780  19.9780  19.9780
    19.9780  19.9780  19.9780  19.9780  19.9781  19.9781  19.9781  19.9781
    20.8480  20.8480  20.8481  20.8481  20.8481  20.8481  20.8481  20.8481
    28.8163  28.8163  28.8163  28.8163  28.8163  28.8164  28.8164  28.8164
    28.8164  28.8164  28.8164  28.8164  28.8164  28.8164  28.8164  28.8164
    29.6468  29.6468  29.6468  29.6468  29.6469

     the Fermi energy is    20.5367 ev

!    total energy              =   -8192.33985334 Ry

     total all-electron energy =   -161472.766707 Ry
     estimated scf accuracy    <       0.00000093 Ry
     smearing contrib. (-TS)   =       0.12342562 Ry
     internal energy E=F+TS    =   -8192.46327897 Ry

     The total energy is F=E-TS. E is the sum of the following terms:
     one-electron contribution =   -1157.36132426 Ry
     hartree contribution      =     801.16549039 Ry
     xc contribution           =    -494.10386515 Ry
     ewald contribution        =   -3258.43377567 Ry
     one-center paw contrib.   =   -4083.72980427 Ry

     convergence has been achieved in  14 iterations

     Forces acting on atoms (cartesian axes, Ry/au):

     atom    1 type  1   force =     0.00000000    0.00000000    0.00000000
     atom    2 type  1   force =     0.00002935    0.00002935    0.00002935
     atom    3 type  1   force =     0.00000000    0.00000000    0.00000000
     atom    4 type  1   force =     0.00002935    0.00002935   -0.00002935
     atom    5 type  1   force =     0.00000000    0.00000000    0.00000000
     atom    6 type  1   force =     0.00002935   -0.00002935    0.00002935
     atom    7 type  1   force =     0.00000000    0.00000000    0.00000000
     atom    8 type  1   force =     0.00002935   -0.00002935   -0.00002935
     atom    9 type  1   force =     0.00000000    0.00000000    0.00000000
     atom   10 type  1   force =    -0.00002935    0.00002935    0.00002935
     atom   11 type  1   force =     0.00000000    0.00000000    0.00000000
     atom   12 type  1   force =    -0.00002935    0.00002935   -0.00002935
     atom   13 type  1   force =     0.00000000    0.00000000    0.00000000
     atom   14 type  1   force =    -0.00002935   -0.00002935    0.00002935
     atom   15 type  1   force =     0.00000000    0.00000000    0.00000000
     atom   16 type  1   force =    -0.00002935   -0.00002935   -0.00002935

     Total force =     0.000144     Total SCF correction =     0.001031
     SCF correction compared to forces is large: reduce conv_thr to get better values


     Computing stress (Cartesian axis) and pressure

          total   stress  (Ry/bohr**3)                   (kbar)     P=      116.26
   0.00079035   0.00000000   0.00000000          116.26        0.00        0.00
   0.00000000   0.00079035   0.00000000            0.00      116.26        0.00
   0.00000000   0.00000000   0.00079035            0.00        0.00      116.26


     Writing output data file /scratch/yRXmwxiubMRtVihk.save/
 
     init_run     :      2.71s CPU      2.82s WALL (       1 calls)
     electrons    :    145.22s CPU    148.37s WALL (       1 calls)
     forces       :      1.18s CPU      1.21s WALL (       1 calls)
     stress       :      2.34s CPU      2.37s WALL (       1 calls)

     Called by init_run:
     wfcinit      :      2.35s CPU      2.41s WALL (       1 calls)
     potinit      :      0.08s CPU      0.10s WALL (       1 calls)
     hinit0       :      0.08s CPU      0.08s WALL (       1 calls)

     Called by electrons:
     c_bands      :    129.29s CPU    131.83s WALL (      15 calls)
     sum_band     :     14.79s CPU     15.20s WALL (      15 calls)
     v_of_rho     :      0.11s CPU      0.12s WALL (      15 calls)
     newd         :      0.16s CPU      0.23s WALL (      15 calls)
     PAW_pot      :      0.85s CPU      0.93s WALL (      15 calls)
     mix_rho      :      0.05s CPU      0.06s WALL (      15 calls)

     Called by c_bands:
     init_us_2    :      0.57s CPU      0.60s WALL (    1155 calls)
     cegterg      :    127.23s CPU    129.70s WALL (     525 calls)

     Called by *egterg:
     cdiaghg      :     24.30s CPU     24.60s WALL (    1669 calls)
     h_psi        :     60.90s CPU     62.62s WALL (    1739 calls)
     s_psi        :      2.74s CPU      2.77s WALL (    1739 calls)
     g_psi        :      0.11s CPU      0.11s WALL (    1179 calls)

     Called by h_psi:
     h_psi:calbec :      7.63s CPU      7.75s WALL (    1739 calls)
     vloc_psi     :     49.97s CPU     51.54s WALL (    1739 calls)
     add_vuspsi   :      3.05s CPU      3.09s WALL (    1739 calls)

     General routines
     calbec       :     11.62s CPU     11.77s WALL (    2439 calls)
     fft          :      0.12s CPU      0.14s WALL (     219 calls)
     ffts         :      0.01s CPU      0.02s WALL (      30 calls)
     fftw         :     58.95s CPU     60.71s WALL (  543967 calls)
     interpolate  :      0.02s CPU      0.03s WALL (      15 calls)
 
     Parallel routines
     fft_scatt_xy :      4.67s CPU      4.82s WALL (  544216 calls)
     fft_scatt_yz :     49.75s CPU     51.25s WALL (  544216 calls)
 
     PWSCF        :   2m37.02s CPU   2m40.99s WALL

 
   This run was terminated on:  23:22: 0  29Nov2021            

=------------------------------------------------------------------------------=
   JOB DONE.
=------------------------------------------------------------------------------=
