
     Program PWSCF v.6.7MaX starts on 29Nov2021 at 23:29:21 

     This program is part of the open-source Quantum ESPRESSO suite
     for quantum simulation of materials; please cite
         "P. Giannozzi et al., J. Phys.:Condens. Matter 21 395502 (2009);
         "P. Giannozzi et al., J. Phys.:Condens. Matter 29 465901 (2017);
          URL http://www.quantum-espresso.org", 
     in publications or presentations arising from this work. More details at
     http://www.quantum-espresso.org/quote

     Parallel version (MPI & OpenMP), running on      72 processor cores
     Number of MPI processes:                72
     Threads/MPI process:                     1

     MPI processes distributed on     1 nodes
     R & G space division:  proc/nbgrp/npool/nimage =      72
     Reading input from bcc_8.in
Warning: card &CELL ignored
Warning: card CELL_DYNAMICS = 'BFGS', ignored
Warning: card CELL_FACTOR = 2.0, ignored
Warning: card PRESS = 0.0, ignored
Warning: card / ignored

     Current dimensions of program PWSCF are:
     Max number of different atomic species (ntypx) = 10
     Max number of k-points (npk) =  40000
     Max angular momentum in pseudopotentials (lmaxx) =  3
     file Pd.pbe-spn-kjpaw_psl.1.0.0.UPF: wavefunction(s)  4S 5S 4D renormalized

     Subspace diagonalization in iterative solution of the eigenvalue problem:
     one sub-group per band group will be used
     ELPA distributed-memory algorithm (size of sub-group:  8*  8 procs)

     Found symmetry operation: I + (  0.2500  0.2500  0.2500)
     This is a supercell, fractional translations are disabled
     Message from routine setup:
     using ibrav=0 with symmetry is DISCOURAGED, use correct ibrav instead
 
     Parallelization info
     --------------------
     sticks:   dense  smooth     PW     G-vecs:    dense   smooth      PW
     Min          91      60     16                 5534     2969     426
     Max          93      62     17                 5541     2976     431
     Sum        6557    4325   1201               398687   214015   30839
 


     bravais-lattice index     =            0
     lattice parameter (alat)  =      11.4293  a.u.
     unit-cell volume          =    2648.3740 (a.u.)^3
     number of atoms/cell      =           16
     number of atomic types    =            1
     number of electrons       =       288.00
     number of Kohn-Sham states=          173
     kinetic-energy cutoff     =      71.0000  Ry
     charge density cutoff     =     430.0000  Ry
     scf convergence threshold =      1.0E-06
     mixing beta               =       0.1000
     number of iterations used =           10  TF        mixing
     Exchange-correlation= SLA  PW   PBX  PBC
                           (   1   4   3   4   0   0   0)

     celldm(1)=  11.429280  celldm(2)=   0.000000  celldm(3)=   0.000000
     celldm(4)=   0.000000  celldm(5)=   0.000000  celldm(6)=   0.000000

     crystal axes: (cart. coord. in units of alat)
               a(1) = (   1.210526   0.000000   0.000000 )  
               a(2) = (   0.000000   1.210526   0.000000 )  
               a(3) = (   0.000000   0.000000   1.210526 )  

     reciprocal axes: (cart. coord. in units 2 pi/alat)
               b(1) = (  0.826087  0.000000  0.000000 )  
               b(2) = (  0.000000  0.826087  0.000000 )  
               b(3) = (  0.000000  0.000000  0.826087 )  


     PseudoPot. # 1 for Pd read from file:
     /rds/homes/b/bxp912/pp/Pd.pbe-spn-kjpaw_psl.1.0.0.UPF
     MD5 check sum: 790f2ebce206edfd9790dcb9844eca51
     Pseudo is Projector augmented-wave + core cor, Zval = 18.0
     Generated using &quot;atomic&quot; code by A. Dal Corso  v.6.3
     Shape of augmentation charge: PSQ
     Using radial grid of 1235 points,  6 beta functions with: 
                l(1) =   0
                l(2) =   0
                l(3) =   1
                l(4) =   1
                l(5) =   2
                l(6) =   2
     Q(r) pseudized with 0 coefficients 


     atomic species   valence    mass     pseudopotential
        Pd            18.00   106.42000     Pd( 1.00)

     48 Sym. Ops., with inversion, found



   Cartesian axes

     site n.     atom                  positions (alat units)
         1           Pd  tau(   1) = (   0.0000000   0.0000000   0.0000000  )
         2           Pd  tau(   2) = (   0.3026316   0.3026316   0.3026316  )
         3           Pd  tau(   3) = (   0.0000000   0.0000000   0.6052632  )
         4           Pd  tau(   4) = (   0.3026316   0.3026316   0.9078947  )
         5           Pd  tau(   5) = (   0.0000000   0.6052632   0.0000000  )
         6           Pd  tau(   6) = (   0.3026316   0.9078947   0.3026316  )
         7           Pd  tau(   7) = (   0.0000000   0.6052632   0.6052632  )
         8           Pd  tau(   8) = (   0.3026316   0.9078947   0.9078947  )
         9           Pd  tau(   9) = (   0.6052632   0.0000000   0.0000000  )
        10           Pd  tau(  10) = (   0.9078947   0.3026316   0.3026316  )
        11           Pd  tau(  11) = (   0.6052632   0.0000000   0.6052632  )
        12           Pd  tau(  12) = (   0.9078947   0.3026316   0.9078947  )
        13           Pd  tau(  13) = (   0.6052632   0.6052632   0.0000000  )
        14           Pd  tau(  14) = (   0.9078947   0.9078947   0.3026316  )
        15           Pd  tau(  15) = (   0.6052632   0.6052632   0.6052632  )
        16           Pd  tau(  16) = (   0.9078947   0.9078947   0.9078947  )

     number of k points=    35  Marzari-Vanderbilt smearing, width (Ry)=  0.0400
                       cart. coord. in units 2pi/alat
        k(    1) = (   0.0458937   0.0458937   0.0458937), wk =   0.0219479
        k(    2) = (   0.0458937   0.0458937   0.1376812), wk =   0.0658436
        k(    3) = (   0.0458937   0.0458937   0.2294686), wk =   0.0658436
        k(    4) = (   0.0458937   0.0458937   0.3212560), wk =   0.0658436
        k(    5) = (   0.0458937   0.0458937  -0.4130435), wk =   0.0329218
        k(    6) = (   0.0458937   0.1376812   0.1376812), wk =   0.0658436
        k(    7) = (   0.0458937   0.1376812   0.2294686), wk =   0.1316872
        k(    8) = (   0.0458937   0.1376812   0.3212560), wk =   0.1316872
        k(    9) = (   0.0458937   0.1376812  -0.4130435), wk =   0.0658436
        k(   10) = (   0.0458937   0.2294686   0.2294686), wk =   0.0658436
        k(   11) = (   0.0458937   0.2294686   0.3212560), wk =   0.1316872
        k(   12) = (   0.0458937   0.2294686  -0.4130435), wk =   0.0658436
        k(   13) = (   0.0458937   0.3212560   0.3212560), wk =   0.0658436
        k(   14) = (   0.0458937   0.3212560  -0.4130435), wk =   0.0658436
        k(   15) = (   0.0458937  -0.4130435  -0.4130435), wk =   0.0164609
        k(   16) = (   0.1376812   0.1376812   0.1376812), wk =   0.0219479
        k(   17) = (   0.1376812   0.1376812   0.2294686), wk =   0.0658436
        k(   18) = (   0.1376812   0.1376812   0.3212560), wk =   0.0658436
        k(   19) = (   0.1376812   0.1376812  -0.4130435), wk =   0.0329218
        k(   20) = (   0.1376812   0.2294686   0.2294686), wk =   0.0658436
        k(   21) = (   0.1376812   0.2294686   0.3212560), wk =   0.1316872
        k(   22) = (   0.1376812   0.2294686  -0.4130435), wk =   0.0658436
        k(   23) = (   0.1376812   0.3212560   0.3212560), wk =   0.0658436
        k(   24) = (   0.1376812   0.3212560  -0.4130435), wk =   0.0658436
        k(   25) = (   0.1376812  -0.4130435  -0.4130435), wk =   0.0164609
        k(   26) = (   0.2294686   0.2294686   0.2294686), wk =   0.0219479
        k(   27) = (   0.2294686   0.2294686   0.3212560), wk =   0.0658436
        k(   28) = (   0.2294686   0.2294686  -0.4130435), wk =   0.0329218
        k(   29) = (   0.2294686   0.3212560   0.3212560), wk =   0.0658436
        k(   30) = (   0.2294686   0.3212560  -0.4130435), wk =   0.0658436
        k(   31) = (   0.2294686  -0.4130435  -0.4130435), wk =   0.0164609
        k(   32) = (   0.3212560   0.3212560   0.3212560), wk =   0.0219479
        k(   33) = (   0.3212560   0.3212560  -0.4130435), wk =   0.0329218
        k(   34) = (   0.3212560  -0.4130435  -0.4130435), wk =   0.0164609
        k(   35) = (  -0.4130435  -0.4130435  -0.4130435), wk =   0.0027435

     Dense  grid:   398687 G-vectors     FFT dimensions: (  96,  96,  96)

     Smooth grid:   214015 G-vectors     FFT dimensions: (  75,  75,  75)

     Estimated max dynamical RAM per process >      62.14 MB

     Estimated total dynamical RAM >       4.37 GB

     Check: negative core charge=   -0.000001

     Initial potential from superposition of free atoms

     starting charge  287.99388, renormalised to  288.00000
     Starting wfcs are  160 randomized atomic wfcs +   13 random wfcs
     Checking if some PAW data can be deallocated... 

     total cpu time spent up to now is        7.8 secs

     Self-consistent Calculation

     iteration #  1     ecut=    71.00 Ry     beta= 0.10
     Davidson diagonalization with overlap
     ethr =  1.00E-02,  avg # of iterations =  3.5

     Threshold (ethr) on eigenvalues was too large:
     Diagonalizing with lowered threshold

     Davidson diagonalization with overlap
     ethr =  9.94E-04,  avg # of iterations =  1.0

     total cpu time spent up to now is       39.4 secs

     total energy              =   -8191.55937476 Ry
     estimated scf accuracy    <       2.79830480 Ry

     iteration #  2     ecut=    71.00 Ry     beta= 0.10
     Davidson diagonalization with overlap
     ethr =  9.72E-04,  avg # of iterations =  1.0

     total cpu time spent up to now is       52.5 secs

     total energy              =   -8190.87927885 Ry
     estimated scf accuracy    <       1.83992910 Ry

     iteration #  3     ecut=    71.00 Ry     beta= 0.10
     Davidson diagonalization with overlap
     ethr =  6.39E-04,  avg # of iterations =  2.0

     total cpu time spent up to now is       76.0 secs

     total energy              =   -8191.16611073 Ry
     estimated scf accuracy    <       0.05745288 Ry

     iteration #  4     ecut=    71.00 Ry     beta= 0.10
     Davidson diagonalization with overlap
     ethr =  1.99E-05,  avg # of iterations =  3.2

     total cpu time spent up to now is       94.1 secs

     total energy              =   -8191.14293207 Ry
     estimated scf accuracy    <       0.04080722 Ry

     iteration #  5     ecut=    71.00 Ry     beta= 0.10
     Davidson diagonalization with overlap
     ethr =  1.42E-05,  avg # of iterations =  2.0

     total cpu time spent up to now is      116.7 secs

     total energy              =   -8191.14767695 Ry
     estimated scf accuracy    <       0.00361216 Ry

     iteration #  6     ecut=    71.00 Ry     beta= 0.10
     Davidson diagonalization with overlap
     c_bands:  2 eigenvalues not converged
     ethr =  1.25E-06,  avg # of iterations =  4.8

     total cpu time spent up to now is      132.7 secs

     total energy              =   -8191.14828039 Ry
     estimated scf accuracy    <       0.00148142 Ry

     iteration #  7     ecut=    71.00 Ry     beta= 0.10
     Davidson diagonalization with overlap
     ethr =  5.14E-07,  avg # of iterations =  1.0

     total cpu time spent up to now is      145.1 secs

     total energy              =   -8191.14874569 Ry
     estimated scf accuracy    <       0.00086099 Ry

     iteration #  8     ecut=    71.00 Ry     beta= 0.10
     Davidson diagonalization with overlap
     ethr =  2.99E-07,  avg # of iterations =  2.0

     total cpu time spent up to now is      159.3 secs

     total energy              =   -8191.14872187 Ry
     estimated scf accuracy    <       0.00024625 Ry

     iteration #  9     ecut=    71.00 Ry     beta= 0.10
     Davidson diagonalization with overlap
     ethr =  8.55E-08,  avg # of iterations =  2.0

     total cpu time spent up to now is      178.0 secs

     total energy              =   -8191.14879524 Ry
     estimated scf accuracy    <       0.00003550 Ry

     iteration # 10     ecut=    71.00 Ry     beta= 0.10
     Davidson diagonalization with overlap
     ethr =  1.23E-08,  avg # of iterations =  1.8

     total cpu time spent up to now is      192.2 secs

     total energy              =   -8191.14881782 Ry
     estimated scf accuracy    <       0.00002258 Ry

     iteration # 11     ecut=    71.00 Ry     beta= 0.10
     Davidson diagonalization with overlap
     ethr =  7.84E-09,  avg # of iterations =  2.0

     total cpu time spent up to now is      210.4 secs

     total energy              =   -8191.14882083 Ry
     estimated scf accuracy    <       0.00001191 Ry

     iteration # 12     ecut=    71.00 Ry     beta= 0.10
     Davidson diagonalization with overlap
     ethr =  4.14E-09,  avg # of iterations =  2.0

     total cpu time spent up to now is      227.6 secs

     total energy              =   -8191.14882465 Ry
     estimated scf accuracy    <       0.00001709 Ry

     iteration # 13     ecut=    71.00 Ry     beta= 0.10
     Davidson diagonalization with overlap
     ethr =  4.14E-09,  avg # of iterations =  2.0

     total cpu time spent up to now is      246.8 secs

     total energy              =   -8191.14883069 Ry
     estimated scf accuracy    <       0.00000118 Ry

     iteration # 14     ecut=    71.00 Ry     beta= 0.10
     Davidson diagonalization with overlap
     ethr =  4.10E-10,  avg # of iterations =  1.0

     total cpu time spent up to now is      259.6 secs

     End of self-consistent calculation

          k = 0.0459 0.0459 0.0459 ( 26850 PWs)   bands (ev):

   -73.5129 -73.5086 -73.5086 -73.5086 -73.5081 -73.5081 -73.5081 -73.5080
   -73.5080 -73.5080 -73.5078 -73.5078 -73.5078 -73.5078 -73.5078 -73.5039
   -39.2673 -39.2673 -39.2673 -39.2669 -39.2669 -39.2668 -39.2549 -39.2549
   -39.2542 -39.2423 -39.2417 -39.2417 -39.2417 -39.2395 -39.2395 -39.2377
   -39.2377 -39.2377 -39.2344 -39.2344 -39.2334 -39.2334 -39.2334 -39.2319
   -39.2318 -39.2318 -39.2318 -39.2311 -39.2311 -39.2311 -39.2307 -39.2307
   -39.2307 -39.2294 -39.2294 -39.2294 -39.2278 -39.2278 -39.2278 -39.2093
   -39.2087 -39.2087 -39.2078 -39.2078 -39.2078 -39.2075 -39.2075 -39.2075
     5.5211   7.0470   7.0470   7.0470   7.0550   7.0550   7.0550   7.1937
     7.1937   7.5556   7.5556   7.5556   7.5970   7.5970   7.5970   7.6043
     7.6043   7.6043   7.6967   7.6967   7.6967   7.7761   7.8372   7.8372
     7.9495   7.9495   7.9963   7.9963   7.9963   7.9989   8.1060   8.1060
     8.1270   8.1436   8.1436   8.1436   8.3623   8.3623   8.3623   8.4095
     8.4095   8.4095   8.4579   8.4580   8.4580   8.5015   8.5015   8.5015
     8.7609   8.7609   8.7609   8.8802   8.8802   8.8802   8.9515   8.9515
     8.9515   8.9576   8.9576   8.9576   9.0106   9.0106   9.0534   9.0534
     9.0534   9.0866   9.0866   9.0866   9.1027   9.1027   9.1028   9.1028
     9.4542   9.4860   9.4860   9.6113   9.6113   9.6113   9.6266   9.6266
     9.6266   9.7906   9.7906   9.7906  10.2723  10.2723  10.2724  11.5083
    11.5083  11.5083  11.7352  11.7352  11.7352  14.1291  14.1291  14.1291
    14.3392  14.3392  14.3392  14.9584  15.1205  16.0092  16.1373  16.1373
    16.8557  16.9002  16.9002  16.9125  17.3705

          k = 0.0459 0.0459 0.1377 ( 26791 PWs)   bands (ev):

   -73.5127 -73.5094 -73.5086 -73.5086 -73.5081 -73.5081 -73.5080 -73.5080
   -73.5079 -73.5079 -73.5078 -73.5078 -73.5078 -73.5078 -73.5071 -73.5041
   -39.2665 -39.2665 -39.2663 -39.2660 -39.2654 -39.2654 -39.2549 -39.2541
   -39.2529 -39.2461 -39.2454 -39.2454 -39.2451 -39.2447 -39.2416 -39.2416
   -39.2381 -39.2374 -39.2357 -39.2353 -39.2334 -39.2334 -39.2332 -39.2316
   -39.2315 -39.2315 -39.2311 -39.2304 -39.2304 -39.2294 -39.2294 -39.2293
   -39.2281 -39.2281 -39.2279 -39.2254 -39.2242 -39.2242 -39.2238 -39.2107
   -39.2093 -39.2089 -39.2089 -39.2088 -39.2087 -39.2084 -39.2078 -39.2078
     5.5993   7.0676   7.0677   7.0915   7.0916   7.0928   7.0998   7.2201
     7.2287   7.2997   7.5346   7.5346   7.5975   7.6047   7.6189   7.6189
     7.6407   7.6407   7.6712   7.6712   7.7007   7.7302   7.7515   7.8181
     7.8447   7.8845   7.9939   7.9939   8.0907   8.0980   8.1009   8.1087
     8.1127   8.1127   8.1578   8.2379   8.2630   8.2630   8.2801   8.3491
     8.3491   8.3885   8.5087   8.5087   8.5605   8.5605   8.5706   8.6201
     8.6443   8.8770   8.8770   8.9148   8.9148   8.9385   8.9385   8.9605
     8.9661   8.9674   8.9675   8.9829   8.9923   8.9923   8.9988   9.0217
     9.0485   9.0524   9.0524   9.0876   9.0937   9.0938   9.1018   9.1022
     9.3850   9.4339   9.4493   9.4752   9.4800   9.4819   9.5674   9.5674
     9.6116   9.6116   9.8278   9.8278  10.3378  10.3378  10.9082  11.1404
    11.1404  11.6878  11.6878  11.7397  11.9674  14.1460  14.3654  14.3712
    14.3712  14.5471  14.8762  14.8762  14.9371  15.4033  15.7255  16.2533
    16.6247  17.0214  17.0561  17.0783  17.6875

          k = 0.0459 0.0459 0.2295 ( 26737 PWs)   bands (ev):

   -73.5125 -73.5102 -73.5085 -73.5085 -73.5082 -73.5082 -73.5080 -73.5080
   -73.5079 -73.5079 -73.5079 -73.5078 -73.5078 -73.5078 -73.5063 -73.5043
   -39.2647 -39.2647 -39.2644 -39.2642 -39.2629 -39.2629 -39.2545 -39.2526
   -39.2512 -39.2503 -39.2500 -39.2500 -39.2496 -39.2482 -39.2463 -39.2463
   -39.2413 -39.2396 -39.2368 -39.2350 -39.2332 -39.2332 -39.2322 -39.2319
   -39.2319 -39.2317 -39.2301 -39.2301 -39.2295 -39.2295 -39.2287 -39.2243
   -39.2239 -39.2239 -39.2235 -39.2216 -39.2203 -39.2203 -39.2201 -39.2130
   -39.2108 -39.2108 -39.2106 -39.2103 -39.2102 -39.2099 -39.2090 -39.2090
     5.7536   6.9644   7.1155   7.1155   7.1555   7.1555   7.1803   7.1851
     7.2722   7.2952   7.4737   7.4737   7.5894   7.5894   7.5999   7.6076
     7.6319   7.6691   7.6691   7.6870   7.6896   7.6992   7.7052   7.7053
     7.7246   7.7891   8.0514   8.0514   8.0844   8.0844   8.0985   8.1152
     8.2006   8.2006   8.2035   8.2130   8.2133   8.2133   8.2161   8.2605
     8.2616   8.4960   8.5334   8.6367   8.6367   8.6479   8.6479   8.7019
     8.7569   8.7800   8.7800   8.8614   8.8614   8.9126   8.9126   8.9282
     8.9777   8.9821   8.9839   8.9840   9.0214   9.0214   9.0249   9.0436
     9.0767   9.0769   9.0895   9.1000   9.1015   9.1131   9.1325   9.1325
     9.2053   9.2700   9.2800   9.2921   9.3369   9.4485   9.4977   9.4977
     9.5660   9.5660   9.9061   9.9061  10.4658  10.4658  10.7712  10.7712
    11.4491  11.4491  11.6647  12.1202  12.3615  14.0831  14.1831  14.4233
    14.6944  14.7029  14.9704  14.9704  15.2935  15.3533  15.6013  15.6013
    17.2926  17.3196  17.3350  17.6920  18.4930

          k = 0.0459 0.0459 0.3213 ( 26773 PWs)   bands (ev):

   -73.5120 -73.5109 -73.5085 -73.5085 -73.5083 -73.5083 -73.5080 -73.5079
   -73.5079 -73.5079 -73.5079 -73.5079 -73.5078 -73.5078 -73.5057 -73.5047
   -39.2620 -39.2620 -39.2617 -39.2617 -39.2597 -39.2597 -39.2545 -39.2544
   -39.2544 -39.2543 -39.2537 -39.2512 -39.2512 -39.2508 -39.2506 -39.2490
   -39.2449 -39.2431 -39.2357 -39.2343 -39.2333 -39.2329 -39.2329 -39.2326
   -39.2323 -39.2323 -39.2299 -39.2299 -39.2296 -39.2296 -39.2243 -39.2199
   -39.2199 -39.2198 -39.2195 -39.2182 -39.2168 -39.2166 -39.2166 -39.2162
   -39.2133 -39.2133 -39.2128 -39.2128 -39.2126 -39.2116 -39.2109 -39.2109
     5.9795   6.6058   7.1878   7.1878   7.2440   7.2440   7.3015   7.3017
     7.3486   7.3803   7.3804   7.3867   7.4729   7.4729   7.5516   7.5652
     7.5919   7.5993   7.6067   7.6166   7.6475   7.6938   7.7460   7.7460
     7.7957   7.7957   7.9651   7.9651   8.0325   8.0325   8.1081   8.1272
     8.1628   8.1770   8.2249   8.2249   8.2648   8.3180   8.3180   8.4314
     8.4586   8.4609   8.5928   8.5929   8.6264   8.7000   8.7000   8.7328
     8.7328   8.7543   8.7543   8.8475   8.8485   8.8647   8.8647   8.9041
     8.9060   8.9225   8.9225   8.9414   9.0008   9.0040   9.0535   9.0544
     9.0763   9.0920   9.0976   9.1018   9.1346   9.1476   9.1631   9.1631
     9.1872   9.2076   9.2191   9.2691   9.2692   9.3907   9.4051   9.4051
     9.4913   9.4914  10.0323  10.0323  10.4585  10.4585  10.6511  10.6512
    11.1601  11.1601  12.5121  12.5813  12.8571  13.5910  14.0405  14.2471
    14.3859  14.4940  14.5244  14.9373  15.7705  15.7705  16.4475  16.4475
    17.6817  17.6905  17.6905  17.7353  18.1248

          k = 0.0459 0.0459-0.4130 ( 26788 PWs)   bands (ev):

   -73.5115 -73.5115 -73.5084 -73.5084 -73.5084 -73.5084 -73.5079 -73.5079
   -73.5079 -73.5079 -73.5078 -73.5078 -73.5078 -73.5078 -73.5051 -73.5051
   -39.2585 -39.2585 -39.2585 -39.2585 -39.2584 -39.2584 -39.2583 -39.2583
   -39.2557 -39.2557 -39.2557 -39.2557 -39.2525 -39.2525 -39.2480 -39.2480
   -39.2463 -39.2463 -39.2344 -39.2344 -39.2336 -39.2335 -39.2326 -39.2326
   -39.2326 -39.2326 -39.2297 -39.2297 -39.2297 -39.2297 -39.2200 -39.2200
   -39.2164 -39.2164 -39.2164 -39.2163 -39.2160 -39.2160 -39.2159 -39.2159
   -39.2151 -39.2151 -39.2140 -39.2139 -39.2135 -39.2135 -39.2135 -39.2135
     6.2685   6.2685   7.2793   7.2793   7.2793   7.2793   7.3526   7.3526
     7.3526   7.3526   7.4335   7.4335   7.4442   7.4442   7.4472   7.4472
     7.4928   7.4928   7.6213   7.6213   7.6395   7.6396   7.8463   7.8463
     7.8463   7.8463   7.9083   7.9083   7.9083   7.9083   8.1287   8.1287
     8.1471   8.1471   8.3411   8.3411   8.3968   8.3968   8.3968   8.3968
     8.5022   8.5022   8.5022   8.5022   8.6832   8.6832   8.6879   8.6879
     8.7465   8.7465   8.8055   8.8055   8.8055   8.8055   8.8498   8.8498
     8.8498   8.8498   8.9995   8.9995   9.0271   9.0271   9.0290   9.0290
     9.0597   9.0597   9.0948   9.0948   9.1068   9.1069   9.1217   9.1217
     9.2925   9.2925   9.2925   9.2925   9.3129   9.3129   9.3909   9.3909
     9.3909   9.3909  10.2138  10.2138  10.2138  10.2138  10.8862  10.8862
    10.8862  10.8862  13.0819  13.0819  13.4222  13.4222  13.4270  13.4270
    14.3472  14.3473  14.6875  14.6875  16.6898  16.6898  16.6898  16.6898
    17.3826  17.3827  17.3827  17.3827  18.1713

          k = 0.0459 0.1377 0.1377 ( 26757 PWs)   bands (ev):

   -73.5126 -73.5093 -73.5093 -73.5086 -73.5083 -73.5081 -73.5081 -73.5079
   -73.5079 -73.5079 -73.5078 -73.5078 -73.5077 -73.5071 -73.5071 -73.5042
   -39.2664 -39.2656 -39.2656 -39.2646 -39.2646 -39.2632 -39.2555 -39.2536
   -39.2510 -39.2487 -39.2487 -39.2485 -39.2476 -39.2463 -39.2440 -39.2392
   -39.2373 -39.2373 -39.2372 -39.2372 -39.2341 -39.2337 -39.2326 -39.2320
   -39.2320 -39.2320 -39.2320 -39.2308 -39.2308 -39.2297 -39.2294 -39.2273
   -39.2256 -39.2255 -39.2255 -39.2250 -39.2220 -39.2205 -39.2205 -39.2129
   -39.2108 -39.2099 -39.2096 -39.2096 -39.2087 -39.2087 -39.2085 -39.2076
     5.6763   7.0690   7.1133   7.1133   7.1345   7.1345   7.1408   7.2491
     7.2601   7.3016   7.3016   7.5275   7.6189   7.6189   7.6259   7.6338
     7.6403   7.6403   7.6663   7.6912   7.7019   7.7123   7.7123   7.8299
     7.8626   7.8627   7.9301   7.9548   8.0497   8.0733   8.1080   8.1129
     8.1297   8.1574   8.1574   8.2078   8.2210   8.2210   8.2752   8.3330
     8.4538   8.4538   8.5001   8.5001   8.5273   8.5755   8.6408   8.6408
     8.7622   8.7623   8.8235   8.8897   8.9197   8.9198   8.9409   8.9476
     8.9476   8.9585   8.9585   8.9643   8.9774   9.0135   9.0449   9.0449
     9.0597   9.0801   9.0875   9.0879   9.0982   9.0995   9.1060   9.1060
     9.2905   9.3943   9.4087   9.4087   9.4848   9.4848   9.4864   9.4864
     9.4933   9.4953   9.6238   9.8809  10.4151  10.6066  10.9939  10.9939
    11.3639  11.3639  11.8986  11.8986  12.0892  14.0247  14.1738  14.3992
    14.3992  14.6168  14.9151  14.9151  15.5459  15.6433  16.0610  16.3014
    16.3080  16.4810  17.0621  17.1787  18.1684

          k = 0.0459 0.1377 0.2295 ( 26765 PWs)   bands (ev):

   -73.5123 -73.5101 -73.5093 -73.5086 -73.5085 -73.5082 -73.5081 -73.5079
   -73.5079 -73.5079 -73.5078 -73.5078 -73.5076 -73.5071 -73.5064 -73.5044
   -39.2654 -39.2640 -39.2639 -39.2631 -39.2624 -39.2604 -39.2558 -39.2529
   -39.2522 -39.2516 -39.2515 -39.2510 -39.2502 -39.2488 -39.2476 -39.2422
   -39.2410 -39.2383 -39.2369 -39.2358 -39.2339 -39.2338 -39.2337 -39.2329
   -39.2327 -39.2325 -39.2313 -39.2305 -39.2298 -39.2284 -39.2276 -39.2258
   -39.2234 -39.2223 -39.2219 -39.2218 -39.2191 -39.2172 -39.2170 -39.2157
   -39.2133 -39.2113 -39.2111 -39.2110 -39.2104 -39.2097 -39.2088 -39.2079
     5.8282   6.9936   7.0937   7.1599   7.1958   7.2002   7.2138   7.2149
     7.2882   7.2998   7.3261   7.4867   7.5743   7.6071   7.6208   7.6363
     7.6383   7.6427   7.6612   7.6678   7.6682   7.7021   7.7417   7.7691
     7.7853   7.8687   7.9480   7.9607   8.0086   8.0372   8.0543   8.1134
     8.1136   8.2087   8.2331   8.2369   8.2443   8.2510   8.2676   8.2727
     8.3042   8.5644   8.5769   8.6244   8.6326   8.6482   8.6490   8.6537
     8.6745   8.7513   8.7685   8.8478   8.8600   8.8916   8.9053   8.9092
     8.9156   8.9343   8.9607   8.9616   8.9679   9.0071   9.0295   9.0424
     9.0698   9.0706   9.0706   9.0972   9.1011   9.1530   9.1656   9.2074
     9.2138   9.2389   9.2858   9.3000   9.3144   9.3638   9.3968   9.4627
     9.4881   9.5087   9.6037   9.9899  10.1624  10.5629  10.9841  11.1566
    11.6332  11.7180  11.7634  12.1403  12.2551  13.5257  14.1554  14.4610
    14.4742  14.9982  15.0127  15.3546  15.4748  15.6468  15.9154  16.3268
    16.6537  16.8357  17.4456  17.4935  18.1009

          k = 0.0459 0.1377 0.3213 ( 26783 PWs)   bands (ev):

   -73.5119 -73.5108 -73.5091 -73.5088 -73.5085 -73.5083 -73.5080 -73.5080
   -73.5079 -73.5079 -73.5078 -73.5078 -73.5074 -73.5072 -73.5058 -73.5048
   -39.2634 -39.2614 -39.2613 -39.2609 -39.2594 -39.2570 -39.2565 -39.2555
   -39.2550 -39.2548 -39.2543 -39.2536 -39.2518 -39.2502 -39.2473 -39.2461
   -39.2446 -39.2395 -39.2369 -39.2363 -39.2347 -39.2340 -39.2337 -39.2335
   -39.2330 -39.2321 -39.2303 -39.2300 -39.2281 -39.2276 -39.2263 -39.2235
   -39.2195 -39.2194 -39.2191 -39.2185 -39.2184 -39.2162 -39.2161 -39.2142
   -39.2137 -39.2134 -39.2130 -39.2130 -39.2127 -39.2113 -39.2099 -39.2092
     6.0496   6.6554   7.1377   7.2293   7.2491   7.2810   7.3072   7.3184
     7.3205   7.3722   7.4081   7.4181   7.5004   7.5128   7.5295   7.5640
     7.5693   7.6286   7.6349   7.6557   7.7031   7.7231   7.7418   7.7711
     7.7860   7.8718   7.9159   7.9353   7.9599   8.0471   8.0683   8.0755
     8.1249   8.1706   8.1751   8.2689   8.3148   8.3503   8.3827   8.4020
     8.4107   8.4639   8.5399   8.5818   8.6675   8.6812   8.7152   8.7172
     8.7335   8.7355   8.7596   8.7810   8.7867   8.8040   8.8336   8.8630
     8.8690   8.8850   8.9075   8.9616   8.9849   8.9930   9.0213   9.0450
     9.0467   9.0537   9.0621   9.0977   9.1086   9.1174   9.1643   9.1733
     9.1753   9.1864   9.2489   9.2926   9.3096   9.3107   9.3646   9.4111
     9.4526   9.5522   9.5589   9.8482  10.1556  10.6519  10.7707  11.3221
    11.3819  11.9305  12.1355  12.6195  12.6958  13.0477  13.6734  14.5047
    14.5683  14.9993  15.1347  15.1700  15.6055  15.8186  16.4941  17.0086
    17.0497  17.1955  17.6351  17.7277  17.8304

          k = 0.0459 0.1377-0.4130 ( 26772 PWs)   bands (ev):

   -73.5114 -73.5114 -73.5090 -73.5090 -73.5084 -73.5084 -73.5080 -73.5080
   -73.5079 -73.5079 -73.5078 -73.5078 -73.5073 -73.5073 -73.5052 -73.5052
   -39.2605 -39.2605 -39.2583 -39.2583 -39.2582 -39.2582 -39.2580 -39.2580
   -39.2557 -39.2557 -39.2549 -39.2549 -39.2522 -39.2522 -39.2476 -39.2476
   -39.2431 -39.2431 -39.2355 -39.2355 -39.2354 -39.2354 -39.2334 -39.2334
   -39.2329 -39.2329 -39.2301 -39.2301 -39.2269 -39.2269 -39.2235 -39.2235
   -39.2196 -39.2196 -39.2160 -39.2160 -39.2158 -39.2158 -39.2155 -39.2155
   -39.2155 -39.2155 -39.2135 -39.2135 -39.2117 -39.2117 -39.2111 -39.2111
     6.3310   6.3310   7.1936   7.1936   7.3157   7.3157   7.3854   7.3854
     7.4153   7.4153   7.4286   7.4286   7.4502   7.4503   7.4640   7.4641
     7.5252   7.5252   7.6503   7.6503   7.6938   7.6938   7.8092   7.8092
     7.8352   7.8352   7.8822   7.8822   7.9940   7.9940   8.0535   8.0535
     8.1450   8.1450   8.2759   8.2759   8.3987   8.3987   8.4397   8.4397
     8.4813   8.4813   8.5837   8.5837   8.6032   8.6032   8.6100   8.6100
     8.7592   8.7592   8.7716   8.7716   8.8086   8.8086   8.8324   8.8324
     8.8684   8.8684   8.8698   8.8698   9.0150   9.0150   9.0194   9.0194
     9.0301   9.0301   9.1012   9.1012   9.1082   9.1082   9.1295   9.1295
     9.1820   9.1820   9.2435   9.2435   9.3374   9.3374   9.3919   9.3919
     9.4712   9.4712   9.6597   9.6597  10.3763  10.3763  11.0276  11.0276
    11.6505  11.6505  12.5836  12.5836  13.1791  13.1791  13.5408  13.5408
    14.7399  14.7399  15.3356  15.3356  16.0588  16.0588  16.7365  16.7365
    17.4257  17.4257  17.4545  17.4545  18.1377

          k = 0.0459 0.2295 0.2295 ( 26763 PWs)   bands (ev):

   -73.5121 -73.5099 -73.5099 -73.5089 -73.5085 -73.5082 -73.5082 -73.5080
   -73.5079 -73.5079 -73.5078 -73.5078 -73.5073 -73.5065 -73.5065 -73.5046
   -39.2651 -39.2625 -39.2625 -39.2612 -39.2612 -39.2569 -39.2568 -39.2552
   -39.2552 -39.2534 -39.2529 -39.2522 -39.2508 -39.2500 -39.2459 -39.2404
   -39.2404 -39.2384 -39.2377 -39.2376 -39.2353 -39.2344 -39.2335 -39.2334
   -39.2334 -39.2315 -39.2315 -39.2311 -39.2311 -39.2302 -39.2268 -39.2224
   -39.2224 -39.2211 -39.2201 -39.2195 -39.2193 -39.2173 -39.2161 -39.2140
   -39.2140 -39.2123 -39.2122 -39.2122 -39.2110 -39.2110 -39.2084 -39.2077
     5.9744   7.0368   7.0368   7.0869   7.2426   7.2426   7.2690   7.2690
     7.2883   7.3462   7.3922   7.4846   7.5298   7.5843   7.6000   7.6191
     7.6191   7.6688   7.6688   7.6808   7.7018   7.7019   7.8217   7.8358
     7.8358   7.8593   7.9002   7.9055   7.9561   7.9965   7.9965   8.0126
     8.1187   8.2322   8.2432   8.2439   8.2484   8.2484   8.2742   8.3591
     8.4211   8.4211   8.4922   8.6624   8.6624   8.6657   8.6862   8.7237
     8.7237   8.7356   8.7356   8.7947   8.7947   8.7958   8.8118   8.8118
     8.9120   8.9281   8.9292   8.9293   8.9509   8.9509   9.0194   9.0232
     9.0531   9.0535   9.0686   9.0982   9.1051   9.1237   9.1867   9.2092
     9.2203   9.2203   9.2521   9.2745   9.2745   9.3234   9.3234   9.3349
     9.3349   9.5127   9.6104   9.6725  10.1487  10.7417  11.3136  11.3136
    11.9434  11.9434  11.9491  11.9491  12.6736  13.0198  13.6573  14.2725
    15.1022  15.1022  15.6496  15.7408  15.7408  15.7910  15.8457  16.3721
    16.6440  17.1329  17.3821  17.5038  17.5038

          k = 0.0459 0.2295 0.3213 ( 26760 PWs)   bands (ev):

   -73.5117 -73.5106 -73.5098 -73.5092 -73.5084 -73.5083 -73.5081 -73.5080
   -73.5079 -73.5078 -73.5078 -73.5078 -73.5070 -73.5066 -73.5059 -73.5050
   -39.2637 -39.2604 -39.2603 -39.2596 -39.2588 -39.2586 -39.2574 -39.2567
   -39.2555 -39.2553 -39.2549 -39.2528 -39.2526 -39.2490 -39.2437 -39.2428
   -39.2427 -39.2395 -39.2377 -39.2369 -39.2354 -39.2348 -39.2346 -39.2340
   -39.2331 -39.2329 -39.2318 -39.2309 -39.2305 -39.2273 -39.2254 -39.2236
   -39.2232 -39.2194 -39.2192 -39.2182 -39.2178 -39.2173 -39.2154 -39.2141
   -39.2136 -39.2135 -39.2130 -39.2121 -39.2116 -39.2113 -39.2087 -39.2081
     6.1856   6.7442   7.0722   7.0884   7.3034   7.3446   7.3492   7.3582
     7.3741   7.4082   7.4431   7.4871   7.4897   7.5299   7.5314   7.5487
     7.5586   7.6805   7.7175   7.7191   7.7268   7.7403   7.7775   7.7813
     7.8455   7.8884   7.8955   7.9057   7.9682   7.9728   7.9738   7.9835
     8.1327   8.2039   8.2631   8.2823   8.2850   8.3142   8.3217   8.3397
     8.3748   8.4564   8.5423   8.5578   8.6099   8.6247   8.6645   8.6756
     8.7268   8.7336   8.7465   8.7550   8.7569   8.7640   8.8343   8.8447
     8.8673   8.8835   8.8845   8.9004   8.9434   8.9565   8.9626   8.9654
     9.0256   9.0262   9.0395   9.0889   9.1036   9.1187   9.1414   9.1450
     9.1521   9.1657   9.2125   9.2149   9.2272   9.2627   9.3047   9.3800
     9.4150   9.4438   9.5080   9.5854  10.3681  10.9513  10.9828  11.5971
    11.6982  12.2017  12.3252  12.5527  12.7336  12.8217  13.1905  14.6704
    14.7324  15.2471  15.7156  15.8879  15.9168  16.0558  16.3150  16.4641
    16.5878  16.9590  17.2276  17.7780  17.9073

          k = 0.0459 0.2295-0.4130 ( 26750 PWs)   bands (ev):

   -73.5112 -73.5112 -73.5095 -73.5095 -73.5083 -73.5083 -73.5081 -73.5081
   -73.5078 -73.5078 -73.5078 -73.5078 -73.5068 -73.5068 -73.5054 -73.5054
   -39.2615 -39.2615 -39.2579 -39.2579 -39.2577 -39.2577 -39.2576 -39.2576
   -39.2574 -39.2574 -39.2559 -39.2559 -39.2479 -39.2478 -39.2466 -39.2466
   -39.2392 -39.2392 -39.2383 -39.2383 -39.2363 -39.2363 -39.2344 -39.2344
   -39.2325 -39.2325 -39.2307 -39.2307 -39.2282 -39.2282 -39.2242 -39.2242
   -39.2232 -39.2232 -39.2164 -39.2164 -39.2155 -39.2155 -39.2154 -39.2154
   -39.2152 -39.2152 -39.2136 -39.2136 -39.2097 -39.2097 -39.2093 -39.2093
     6.4494   6.4494   7.0877   7.0877   7.3750   7.3750   7.4361   7.4361
     7.4368   7.4368   7.4537   7.4537   7.4639   7.4639   7.4822   7.4822
     7.6000   7.6000   7.7170   7.7170   7.7666   7.7666   7.7970   7.7970
     7.8261   7.8261   7.8529   7.8529   7.9699   7.9699   8.0924   8.0924
     8.1510   8.1510   8.1606   8.1606   8.3800   8.3800   8.4179   8.4179
     8.4814   8.4814   8.4836   8.4836   8.5627   8.5627   8.5985   8.5985
     8.7090   8.7090   8.7333   8.7333   8.8128   8.8128   8.8255   8.8255
     8.8305   8.8305   8.8560   8.8560   8.9579   8.9579   8.9912   8.9912
     8.9948   8.9948   9.0746   9.0746   9.0833   9.0833   9.1159   9.1159
     9.1492   9.1492   9.1957   9.1957   9.2691   9.2691   9.2713   9.2713
     9.4743   9.4743   9.5291   9.5291  10.6368  10.6368  11.2715  11.2715
    12.1135  12.1135  12.4897  12.4897  12.7460  12.7460  13.7564  13.7564
    15.4553  15.4553  15.4900  15.4900  16.0884  16.0884  16.4726  16.4726
    16.8266  16.8266  17.5071  17.5071  18.0923

          k = 0.0459 0.3213 0.3213 ( 26725 PWs)   bands (ev):

   -73.5113 -73.5103 -73.5103 -73.5096 -73.5084 -73.5082 -73.5082 -73.5081
   -73.5078 -73.5078 -73.5078 -73.5078 -73.5067 -73.5061 -73.5061 -73.5053
   -39.2631 -39.2595 -39.2594 -39.2590 -39.2589 -39.2587 -39.2579 -39.2579
   -39.2563 -39.2562 -39.2559 -39.2543 -39.2480 -39.2473 -39.2425 -39.2425
   -39.2390 -39.2390 -39.2380 -39.2380 -39.2375 -39.2354 -39.2354 -39.2354
   -39.2326 -39.2316 -39.2315 -39.2311 -39.2311 -39.2310 -39.2282 -39.2234
   -39.2231 -39.2203 -39.2203 -39.2165 -39.2163 -39.2161 -39.2157 -39.2145
   -39.2142 -39.2141 -39.2134 -39.2134 -39.2096 -39.2096 -39.2082 -39.2078
     6.3779   6.8514   6.8514   7.0301   7.3892   7.3892   7.4119   7.4119
     7.4386   7.4516   7.4534   7.4758   7.4995   7.5239   7.5339   7.5339
     7.5882   7.7553   7.7553   7.7560   7.7897   7.7897   7.8224   7.8409
     7.8409   7.8715   7.8732   7.8827   7.8827   7.8853   7.9325   8.0961
     8.1517   8.1575   8.2599   8.2849   8.2850   8.2937   8.2937   8.3118
     8.3944   8.3945   8.4638   8.4638   8.4821   8.4821   8.5722   8.7045
     8.7350   8.7379   8.7806   8.7807   8.7966   8.7990   8.7990   8.8036
     8.8251   8.8251   8.8881   8.8955   8.9154   8.9154   8.9203   8.9203
     8.9808   8.9942   8.9946   9.0285   9.0546   9.1143   9.1196   9.1196
     9.1339   9.1350   9.1594   9.1594   9.1664   9.2164   9.2185   9.2185
     9.5015   9.5015   9.5361   9.5886  10.6384  11.2587  11.3032  11.3032
    11.9394  11.9394  12.1027  12.7406  13.0947  13.0947  13.3884  14.4432
    14.9941  15.1087  15.9342  15.9342  16.0657  16.0657  16.2751  16.7257
    16.7257  16.8588  17.1343  17.6472  17.8528

          k = 0.0459 0.3213-0.4130 ( 26748 PWs)   bands (ev):

   -73.5109 -73.5109 -73.5100 -73.5100 -73.5083 -73.5083 -73.5081 -73.5081
   -73.5078 -73.5078 -73.5078 -73.5078 -73.5064 -73.5063 -73.5056 -73.5056
   -39.2617 -39.2616 -39.2595 -39.2594 -39.2576 -39.2576 -39.2574 -39.2574
   -39.2570 -39.2570 -39.2561 -39.2561 -39.2451 -39.2451 -39.2432 -39.2431
   -39.2409 -39.2409 -39.2367 -39.2367 -39.2356 -39.2356 -39.2351 -39.2351
   -39.2331 -39.2331 -39.2322 -39.2322 -39.2313 -39.2313 -39.2271 -39.2271
   -39.2218 -39.2218 -39.2178 -39.2178 -39.2152 -39.2152 -39.2150 -39.2150
   -39.2149 -39.2149 -39.2139 -39.2139 -39.2085 -39.2085 -39.2083 -39.2083
     6.6090   6.6090   6.9517   6.9517   7.4295   7.4295   7.4562   7.4562
     7.4579   7.4579   7.4736   7.4736   7.4935   7.4935   7.4969   7.4969
     7.7101   7.7101   7.7952   7.7952   7.8088   7.8089   7.8343   7.8343
     7.8346   7.8346   7.8487   7.8487   7.8980   7.8980   7.9892   7.9892
     8.2101   8.2101   8.2383   8.2383   8.3289   8.3289   8.3371   8.3371
     8.3511   8.3511   8.3688   8.3688   8.4738   8.4738   8.5441   8.5441
     8.6948   8.6948   8.7437   8.7437   8.8550   8.8551   8.8609   8.8609
     8.8611   8.8611   8.8623   8.8623   8.8711   8.8711   8.9554   8.9554
     8.9561   8.9561   8.9691   8.9691   9.0540   9.0540   9.0836   9.0836
     9.1307   9.1307   9.1647   9.1647   9.1651   9.1651   9.2160   9.2160
     9.5335   9.5335   9.5606   9.5606  10.9511  10.9511  11.5806  11.5806
    11.6881  11.6881  12.3237  12.3237  13.3829  13.3829  14.0464  14.0464
    14.9927  14.9927  15.4645  15.4645  16.2469  16.2469  16.8803  16.8803
    16.9368  16.9368  17.5987  17.5987  17.7731

          k = 0.0459-0.4130-0.4130 ( 26708 PWs)   bands (ev):

   -73.5105 -73.5105 -73.5105 -73.5105 -73.5082 -73.5082 -73.5082 -73.5082
   -73.5078 -73.5078 -73.5078 -73.5078 -73.5060 -73.5060 -73.5060 -73.5060
   -39.2610 -39.2610 -39.2609 -39.2609 -39.2573 -39.2573 -39.2573 -39.2573
   -39.2565 -39.2565 -39.2565 -39.2565 -39.2431 -39.2431 -39.2431 -39.2431
   -39.2381 -39.2381 -39.2381 -39.2381 -39.2365 -39.2365 -39.2364 -39.2364
   -39.2318 -39.2318 -39.2318 -39.2318 -39.2310 -39.2310 -39.2310 -39.2310
   -39.2196 -39.2196 -39.2195 -39.2195 -39.2149 -39.2149 -39.2149 -39.2149
   -39.2143 -39.2143 -39.2143 -39.2143 -39.2080 -39.2080 -39.2080 -39.2080
     6.7859   6.7859   6.7859   6.7859   7.4554   7.4554   7.4554   7.4554
     7.4757   7.4757   7.4757   7.4757   7.5030   7.5030   7.5031   7.5031
     7.8414   7.8414   7.8414   7.8414   7.8433   7.8433   7.8433   7.8433
     7.8442   7.8442   7.8442   7.8442   7.8611   7.8611   7.8611   7.8611
     8.2864   8.2864   8.2864   8.2864   8.3144   8.3144   8.3144   8.3144
     8.3144   8.3144   8.3144   8.3144   8.3845   8.3845   8.3845   8.3845
     8.7933   8.7933   8.7933   8.7933   8.8321   8.8321   8.8321   8.8321
     8.8758   8.8758   8.8758   8.8758   8.9081   8.9082   8.9082   8.9082
     8.9098   8.9098   8.9099   8.9099   9.0405   9.0405   9.0406   9.0406
     9.1457   9.1457   9.1457   9.1457   9.1837   9.1837   9.1837   9.1837
     9.5626   9.5626   9.5626   9.5626  11.3023  11.3023  11.3023  11.3023
    11.9341  11.9341  11.9341  11.9341  14.1761  14.1761  14.1761  14.1761
    14.7123  14.7123  14.7123  14.7123  16.8782  16.8782  16.8783  16.8783
    17.5072  17.7632  17.7636  17.7638  17.7638

          k = 0.1377 0.1377 0.1377 ( 26754 PWs)   bands (ev):

   -73.5125 -73.5093 -73.5093 -73.5093 -73.5083 -73.5083 -73.5083 -73.5079
   -73.5078 -73.5077 -73.5077 -73.5077 -73.5071 -73.5071 -73.5071 -73.5043
   -39.2655 -39.2655 -39.2655 -39.2627 -39.2627 -39.2627 -39.2547 -39.2547
   -39.2507 -39.2507 -39.2507 -39.2506 -39.2489 -39.2443 -39.2443 -39.2398
   -39.2398 -39.2398 -39.2379 -39.2379 -39.2379 -39.2332 -39.2332 -39.2332
   -39.2297 -39.2296 -39.2296 -39.2294 -39.2294 -39.2293 -39.2289 -39.2289
   -39.2256 -39.2256 -39.2256 -39.2225 -39.2187 -39.2187 -39.2187 -39.2150
   -39.2112 -39.2112 -39.2112 -39.2093 -39.2093 -39.2085 -39.2085 -39.2085
     5.7524   7.1168   7.1168   7.1168   7.1808   7.1808   7.1808   7.2845
     7.2845   7.3118   7.3118   7.3118   7.5750   7.6255   7.6255   7.6255
     7.6886   7.6886   7.6886   7.7290   7.7290   7.7290   7.7535   7.7535
     7.8375   7.8375   7.8375   8.0547   8.0547   8.0739   8.0739   8.1011
     8.1011   8.1011   8.1329   8.1984   8.1984   8.1984   8.2654   8.3874
     8.3874   8.3874   8.5403   8.5403   8.5403   8.6678   8.6678   8.6678
     8.8051   8.8051   8.8051   8.8692   8.8692   8.8692   8.9047   8.9047
     8.9047   8.9498   8.9498   8.9498   8.9899   8.9899   9.0809   9.0809
     9.0809   9.0877   9.0877   9.0904   9.0904   9.1581   9.1581   9.1581
     9.1771   9.2958   9.2958   9.2958   9.4434   9.4434   9.5075   9.5075
     9.5075   9.5218   9.5218   9.5218  10.8523  10.8523  10.8523  11.0861
    11.0861  11.0861  12.2908  12.2908  12.2908  13.4702  14.1933  14.1933
    14.1933  14.9848  15.5849  15.5849  15.5904  15.5904  15.5904  16.3382
    16.4543  16.6178  16.6178  17.8424  17.8424

          k = 0.1377 0.1377 0.2295 ( 26753 PWs)   bands (ev):

   -73.5122 -73.5100 -73.5092 -73.5092 -73.5085 -73.5085 -73.5083 -73.5080
   -73.5077 -73.5077 -73.5076 -73.5076 -73.5072 -73.5072 -73.5064 -73.5045
   -39.2645 -39.2645 -39.2636 -39.2615 -39.2600 -39.2600 -39.2556 -39.2537
   -39.2537 -39.2533 -39.2531 -39.2530 -39.2491 -39.2463 -39.2437 -39.2437
   -39.2421 -39.2417 -39.2378 -39.2378 -39.2354 -39.2344 -39.2344 -39.2343
   -39.2330 -39.2301 -39.2300 -39.2286 -39.2286 -39.2258 -39.2258 -39.2258
   -39.2258 -39.2242 -39.2218 -39.2200 -39.2181 -39.2161 -39.2161 -39.2157
   -39.2134 -39.2133 -39.2121 -39.2106 -39.2102 -39.2092 -39.2087 -39.2087
     5.9021   7.0271   7.1426   7.1427   7.2082   7.2511   7.2511   7.2540
     7.3124   7.3124   7.3324   7.3515   7.5280   7.6260   7.6599   7.6599
     7.6716   7.6716   7.6891   7.6987   7.7150   7.7166   7.7306   7.7611
     7.7611   7.8866   7.8866   7.9596   8.0165   8.0165   8.0450   8.0759
     8.1103   8.1208   8.1922   8.2016   8.2063   8.2063   8.2915   8.2915
     8.3428   8.4691   8.6077   8.6344   8.6344   8.6377   8.6378   8.7044
     8.7044   8.7587   8.7639   8.7890   8.8663   8.8663   8.9111   8.9111
     8.9321   8.9437   8.9658   8.9945   8.9945   9.0129   9.0129   9.0139
     9.0350   9.0373   9.0692   9.0708   9.0822   9.0876   9.0981   9.2128
     9.2128   9.2414   9.2414   9.2531   9.2855   9.3473   9.3731   9.4613
     9.5185   9.5185   9.5641   9.5641  10.4245  10.4245  11.2097  11.2593
    11.2593  11.8646  12.3134  12.3134  12.6476  12.9622  14.2358  14.5083
    14.5083  14.7938  14.8975  15.5889  15.6829  16.2429  16.3731  16.3731
    16.5058  16.6813  16.8826  18.0498  18.1187

          k = 0.1377 0.1377 0.3213 ( 26771 PWs)   bands (ev):

   -73.5118 -73.5107 -73.5091 -73.5091 -73.5087 -73.5087 -73.5082 -73.5081
   -73.5077 -73.5077 -73.5074 -73.5074 -73.5072 -73.5072 -73.5058 -73.5049
   -39.2627 -39.2627 -39.2610 -39.2598 -39.2569 -39.2569 -39.2565 -39.2565
   -39.2558 -39.2554 -39.2547 -39.2537 -39.2513 -39.2481 -39.2481 -39.2454
   -39.2435 -39.2401 -39.2374 -39.2374 -39.2367 -39.2360 -39.2356 -39.2356
   -39.2309 -39.2306 -39.2304 -39.2277 -39.2277 -39.2263 -39.2263 -39.2223
   -39.2223 -39.2220 -39.2197 -39.2184 -39.2175 -39.2160 -39.2159 -39.2136
   -39.2136 -39.2135 -39.2132 -39.2127 -39.2126 -39.2098 -39.2098 -39.2098
     6.1195   6.7071   7.1860   7.1860   7.2861   7.2861   7.3341   7.3423
     7.3423   7.3446   7.4023   7.4430   7.4845   7.5642   7.5642   7.5976
     7.6240   7.6300   7.6464   7.6624   7.7053   7.7207   7.7207   7.8494
     7.8517   7.8517   7.9077   7.9077   7.9667   7.9667   8.0305   8.0646
     8.0806   8.1008   8.2218   8.2218   8.3199   8.3199   8.3351   8.3644
     8.4336   8.4562   8.4562   8.5870   8.6490   8.6677   8.6998   8.7407
     8.7407   8.7439   8.7439   8.7461   8.7461   8.7717   8.8259   8.8259
     8.8770   8.8844   8.9191   8.9191   8.9283   8.9676   8.9910   9.0416
     9.0449   9.0487   9.0840   9.0869   9.0933   9.0933   9.1168   9.1657
     9.1850   9.1850   9.2200   9.2410   9.3333   9.3333   9.3373   9.4469
     9.4817   9.4817   9.6733   9.6733  10.0939  10.0939  11.4966  11.4966
    11.6134  12.0760  12.0760  12.4898  12.7267  13.1117  14.2508  14.3079
    14.5797  14.6194  15.2189  15.2189  15.8287  16.2804  16.9952  17.0728
    17.0948  17.0948  17.2408  17.2408  17.2603

          k = 0.1377 0.1377-0.4130 ( 26730 PWs)   bands (ev):

   -73.5113 -73.5113 -73.5089 -73.5089 -73.5089 -73.5089 -73.5082 -73.5082
   -73.5077 -73.5077 -73.5073 -73.5073 -73.5073 -73.5073 -73.5053 -73.5053
   -39.2600 -39.2600 -39.2600 -39.2600 -39.2577 -39.2577 -39.2577 -39.2577
   -39.2556 -39.2556 -39.2524 -39.2524 -39.2524 -39.2524 -39.2485 -39.2485
   -39.2403 -39.2403 -39.2379 -39.2379 -39.2366 -39.2366 -39.2365 -39.2365
   -39.2306 -39.2306 -39.2269 -39.2269 -39.2269 -39.2269 -39.2262 -39.2262
   -39.2189 -39.2189 -39.2189 -39.2189 -39.2158 -39.2158 -39.2154 -39.2154
   -39.2151 -39.2151 -39.2114 -39.2114 -39.2114 -39.2114 -39.2111 -39.2111
     6.3942   6.3942   7.2384   7.2384   7.2384   7.2384   7.4271   7.4271
     7.4495   7.4495   7.4495   7.4495   7.4801   7.4801   7.4919   7.4919
     7.5471   7.5471   7.6409   7.6409   7.7564   7.7564   7.8051   7.8051
     7.8051   7.8051   7.9432   7.9432   7.9432   7.9432   8.0355   8.0355
     8.0891   8.0891   8.2911   8.2911   8.2911   8.2911   8.5162   8.5163
     8.5163   8.5163   8.5285   8.5285   8.5346   8.5346   8.5365   8.5365
     8.7300   8.7300   8.7847   8.7847   8.7848   8.7848   8.7936   8.7936
     8.8380   8.8380   8.8381   8.8381   9.0058   9.0058   9.0177   9.0177
     9.0759   9.0759   9.0856   9.0856   9.0961   9.0961   9.1530   9.1530
     9.1530   9.1530   9.1582   9.1582   9.4039   9.4039   9.4173   9.4173
     9.4173   9.4173   9.8480   9.8480   9.8480   9.8480  11.7785  11.7785
    11.7785  11.7785  12.0417  12.0417  13.6520  13.6520  13.6524  13.6524
    14.4191  14.4191  16.0313  16.0314  16.1108  16.1108  16.1108  16.1108
    17.3989  17.3989  17.7333  17.7333  17.9766

          k = 0.1377 0.2295 0.2295 ( 26771 PWs)   bands (ev):

   -73.5119 -73.5099 -73.5099 -73.5091 -73.5089 -73.5085 -73.5085 -73.5081
   -73.5077 -73.5076 -73.5076 -73.5073 -73.5072 -73.5065 -73.5065 -73.5047
   -39.2642 -39.2628 -39.2628 -39.2593 -39.2592 -39.2568 -39.2562 -39.2556
   -39.2556 -39.2551 -39.2543 -39.2529 -39.2504 -39.2465 -39.2435 -39.2434
   -39.2417 -39.2416 -39.2394 -39.2394 -39.2386 -39.2364 -39.2359 -39.2359
   -39.2294 -39.2294 -39.2288 -39.2288 -39.2285 -39.2269 -39.2261 -39.2232
   -39.2225 -39.2222 -39.2222 -39.2216 -39.2182 -39.2159 -39.2149 -39.2137
   -39.2136 -39.2136 -39.2136 -39.2113 -39.2104 -39.2104 -39.2091 -39.2085
     6.0468   7.0782   7.0782   7.1400   7.2354   7.2354   7.3169   7.3169
     7.3240   7.3397   7.3828   7.4124   7.4982   7.6574   7.6594   7.6594
     7.6642   7.6642   7.6788   7.6936   7.7546   7.7546   7.7617   7.8067
     7.8067   7.8340   7.8416   7.9837   7.9957   7.9972   7.9972   8.0104
     8.0649   8.1534   8.1534   8.1577   8.1662   8.1966   8.2602   8.3417
     8.3417   8.4380   8.4783   8.5980   8.5980   8.6826   8.6826   8.6854
     8.7486   8.7959   8.7959   8.8254   8.8318   8.8318   8.8850   8.9006
     8.9006   8.9100   8.9100   8.9151   8.9423   8.9519   8.9519   8.9843
     9.0023   9.0559   9.0610   9.0686   9.0743   9.0826   9.1006   9.1111
     9.1111   9.2578   9.2921   9.2921   9.2983   9.3245   9.3245   9.3901
     9.3901   9.4610   9.5367   9.6867   9.9872  10.7750  10.7750  11.4492
    12.0545  12.0545  12.4568  12.6200  12.6200  12.8436  14.2977  14.3679
    14.5825  14.5825  15.4146  15.7335  15.9222  15.9396  16.4674  16.4674
    16.9616  17.0293  17.1789  17.5378  17.5378

          k = 0.1377 0.2295 0.3213 ( 26775 PWs)   bands (ev):

   -73.5116 -73.5105 -73.5097 -73.5092 -73.5090 -73.5087 -73.5084 -73.5082
   -73.5076 -73.5076 -73.5074 -73.5073 -73.5070 -73.5067 -73.5060 -73.5051
   -39.2629 -39.2613 -39.2603 -39.2584 -39.2582 -39.2570 -39.2568 -39.2567
   -39.2564 -39.2557 -39.2537 -39.2528 -39.2510 -39.2497 -39.2453 -39.2439
   -39.2420 -39.2409 -39.2402 -39.2388 -39.2382 -39.2378 -39.2372 -39.2349
   -39.2331 -39.2289 -39.2287 -39.2279 -39.2265 -39.2258 -39.2257 -39.2253
   -39.2229 -39.2205 -39.2191 -39.2189 -39.2187 -39.2166 -39.2156 -39.2143
   -39.2134 -39.2132 -39.2127 -39.2115 -39.2115 -39.2111 -39.2093 -39.2089
     6.2551   6.7998   7.1222   7.1441   7.2751   7.3430   7.3603   7.3914
     7.4015   7.4102   7.4453   7.4767   7.5049   7.5904   7.5975   7.6004
     7.6123   7.6642   7.7172   7.7202   7.7241   7.7298   7.7685   7.8279
     7.8742   7.8870   7.9035   7.9189   7.9285   7.9363   7.9747   7.9795
     8.0683   8.1085   8.2167   8.2208   8.2373   8.2382   8.2617   8.2948
     8.3081   8.4309   8.4377   8.5250   8.5476   8.6016   8.6092   8.7124
     8.7253   8.7533   8.7625   8.7669   8.7871   8.7920   8.7970   8.7975
     8.8666   8.8978   8.9038   8.9068   8.9154   8.9447   8.9712   9.0273
     9.0304   9.0321   9.0346   9.0836   9.0854   9.0921   9.1183   9.1250
     9.1300   9.1482   9.1842   9.2667   9.2931   9.3335   9.3744   9.3935
     9.4053   9.4636   9.5209   9.6747   9.8760  10.4160  11.1595  11.7056
    11.9957  12.3128  12.3351  12.8752  12.9288  13.0130  13.9094  14.7091
    14.7156  14.8400  15.1877  15.3205  16.1495  16.5197  16.6076  16.6110
    16.9843  17.0122  17.1645  17.3309  17.3630

          k = 0.1377 0.2295-0.4130 ( 26756 PWs)   bands (ev):

   -73.5111 -73.5111 -73.5095 -73.5094 -73.5088 -73.5088 -73.5083 -73.5083
   -73.5076 -73.5076 -73.5073 -73.5073 -73.5068 -73.5068 -73.5055 -73.5055
   -39.2609 -39.2609 -39.2592 -39.2592 -39.2572 -39.2572 -39.2571 -39.2571
   -39.2570 -39.2570 -39.2531 -39.2531 -39.2485 -39.2485 -39.2484 -39.2484
   -39.2400 -39.2400 -39.2397 -39.2397 -39.2381 -39.2381 -39.2368 -39.2368
   -39.2302 -39.2302 -39.2289 -39.2289 -39.2270 -39.2270 -39.2239 -39.2239
   -39.2222 -39.2222 -39.2179 -39.2179 -39.2157 -39.2157 -39.2157 -39.2157
   -39.2153 -39.2153 -39.2121 -39.2121 -39.2100 -39.2100 -39.2099 -39.2099
     6.5138   6.5138   7.1428   7.1428   7.3164   7.3164   7.4470   7.4470
     7.4947   7.4947   7.5023   7.5023   7.5031   7.5031   7.5204   7.5204
     7.6120   7.6120   7.6832   7.6832   7.7943   7.7943   7.8050   7.8050
     7.8252   7.8252   7.8831   7.8831   7.9667   7.9667   8.0104   8.0104
     8.0815   8.0815   8.1737   8.1737   8.2928   8.2928   8.3815   8.3815
     8.3990   8.3990   8.4183   8.4183   8.4564   8.4564   8.5713   8.5713
     8.6688   8.6688   8.7843   8.7843   8.8307   8.8307   8.8308   8.8308
     8.8411   8.8411   8.8446   8.8446   8.9910   8.9910   9.0005   9.0005
     9.0499   9.0499   9.0739   9.0739   9.0865   9.0865   9.0881   9.0881
     9.1335   9.1335   9.1774   9.1774   9.3373   9.3373   9.4413   9.4413
     9.4592   9.4592   9.4748   9.4748  10.1199  10.1199  11.5661  11.5661
    12.0089  12.0089  12.6102  12.6102  13.4528  13.4528  13.8645  13.8645
    14.9062  14.9062  15.5480  15.5480  16.2135  16.2135  16.5460  16.5460
    16.7978  16.7978  17.5091  17.5091  17.7910

          k = 0.1377 0.3213 0.3213 ( 26746 PWs)   bands (ev):

   -73.5112 -73.5103 -73.5103 -73.5096 -73.5089 -73.5086 -73.5086 -73.5083
   -73.5076 -73.5075 -73.5075 -73.5073 -73.5067 -73.5061 -73.5061 -73.5053
   -39.2623 -39.2593 -39.2593 -39.2589 -39.2588 -39.2580 -39.2575 -39.2562
   -39.2562 -39.2559 -39.2549 -39.2517 -39.2494 -39.2487 -39.2442 -39.2441
   -39.2423 -39.2405 -39.2398 -39.2394 -39.2394 -39.2392 -39.2391 -39.2367
   -39.2302 -39.2292 -39.2292 -39.2279 -39.2278 -39.2278 -39.2266 -39.2231
   -39.2221 -39.2198 -39.2198 -39.2186 -39.2172 -39.2159 -39.2154 -39.2154
   -39.2148 -39.2132 -39.2129 -39.2129 -39.2100 -39.2100 -39.2090 -39.2086
     6.4464   6.9118   6.9118   7.0917   7.3869   7.3870   7.3887   7.4585
     7.4585   7.4776   7.4817   7.4913   7.5546   7.5772   7.5773   7.6024
     7.6092   7.7310   7.7310   7.7523   7.7831   7.8292   7.8292   7.8365
     7.8365   7.8458   7.8807   7.8807   7.8909   7.9283   7.9320   8.0369
     8.0797   8.1479   8.1582   8.1776   8.1776   8.1814   8.2388   8.2673
     8.2917   8.2917   8.3809   8.3809   8.4134   8.4134   8.5238   8.5638
     8.6773   8.7940   8.8147   8.8163   8.8163   8.8429   8.8679   8.8679
     8.9015   8.9029   8.9178   8.9178   8.9308   8.9308   8.9529   8.9529
     9.0017   9.0087   9.0180   9.0528   9.0884   9.0889   9.1082   9.1082
     9.1250   9.1313   9.1313   9.1452   9.2676   9.2695   9.2695   9.3861
     9.4571   9.4571   9.4840   9.5285  10.1340  10.7700  10.7700  11.5530
    11.9838  12.6695  12.6695  13.2034  13.2034  13.4669  13.5368  14.4781
    15.1247  15.1758  15.4801  15.4801  15.7869  16.0021  16.0021  16.4517
    17.0695  17.4602  17.4602  17.5315  17.6618

          k = 0.1377 0.3213-0.4130 ( 26740 PWs)   bands (ev):

   -73.5108 -73.5108 -73.5099 -73.5099 -73.5087 -73.5087 -73.5085 -73.5085
   -73.5075 -73.5075 -73.5074 -73.5074 -73.5064 -73.5064 -73.5057 -73.5057
   -39.2609 -39.2609 -39.2587 -39.2587 -39.2583 -39.2583 -39.2570 -39.2570
   -39.2560 -39.2560 -39.2540 -39.2540 -39.2471 -39.2471 -39.2441 -39.2441
   -39.2425 -39.2425 -39.2411 -39.2411 -39.2399 -39.2399 -39.2347 -39.2347
   -39.2329 -39.2329 -39.2278 -39.2278 -39.2271 -39.2271 -39.2256 -39.2256
   -39.2212 -39.2212 -39.2170 -39.2170 -39.2169 -39.2169 -39.2154 -39.2154
   -39.2150 -39.2150 -39.2131 -39.2131 -39.2091 -39.2091 -39.2090 -39.2090
     6.6750   6.6750   7.0151   7.0151   7.4015   7.4015   7.4838   7.4838
     7.4888   7.4888   7.5356   7.5356   7.5387   7.5387   7.5388   7.5388
     7.7191   7.7191   7.7630   7.7630   7.8051   7.8051   7.8196   7.8196
     7.8585   7.8585   7.8766   7.8766   7.8940   7.8940   7.9830   7.9830
     8.1138   8.1138   8.1585   8.1585   8.2396   8.2396   8.2523   8.2523
     8.2750   8.2750   8.3141   8.3141   8.3185   8.3185   8.4139   8.4139
     8.8182   8.8182   8.8202   8.8202   8.8699   8.8699   8.8718   8.8718
     8.8755   8.8755   8.8851   8.8851   8.9660   8.9660   8.9686   8.9686
     8.9748   8.9748   9.0475   9.0475   9.0484   9.0484   9.0966   9.0966
     9.1203   9.1203   9.1891   9.1891   9.1912   9.1912   9.2637   9.2637
     9.4839   9.4839   9.5058   9.5059  10.4317  10.4317  11.1478  11.1478
    12.3111  12.3111  13.0516  13.0516  13.5023  13.5023  14.1539  14.1539
    15.0543  15.0543  15.5446  15.5446  15.6913  15.6913  16.3506  16.3506
    17.1495  17.1495  17.5938  17.8312  17.8329

          k = 0.1377-0.4130-0.4130 ( 26724 PWs)   bands (ev):

   -73.5104 -73.5104 -73.5104 -73.5104 -73.5086 -73.5086 -73.5086 -73.5086
   -73.5074 -73.5074 -73.5074 -73.5074 -73.5060 -73.5060 -73.5060 -73.5060
   -39.2602 -39.2602 -39.2602 -39.2602 -39.2574 -39.2574 -39.2574 -39.2574
   -39.2550 -39.2550 -39.2550 -39.2550 -39.2451 -39.2451 -39.2451 -39.2451
   -39.2410 -39.2410 -39.2410 -39.2410 -39.2394 -39.2394 -39.2394 -39.2394
   -39.2292 -39.2292 -39.2292 -39.2292 -39.2273 -39.2273 -39.2273 -39.2273
   -39.2189 -39.2189 -39.2188 -39.2188 -39.2159 -39.2159 -39.2159 -39.2159
   -39.2141 -39.2141 -39.2141 -39.2141 -39.2087 -39.2087 -39.2087 -39.2087
     6.8524   6.8524   6.8524   6.8525   7.4615   7.4615   7.4615   7.4615
     7.5243   7.5243   7.5243   7.5243   7.5460   7.5460   7.5460   7.5460
     7.8246   7.8246   7.8246   7.8246   7.8386   7.8386   7.8386   7.8386
     7.8502   7.8502   7.8503   7.8503   7.8790   7.8790   7.8791   7.8791
     8.1745   8.1745   8.1745   8.1745   8.1909   8.1909   8.1909   8.1909
     8.2656   8.2656   8.2656   8.2656   8.2707   8.2707   8.2707   8.2707
     8.8890   8.8890   8.8890   8.8890   8.8892   8.8892   8.8892   8.8892
     8.9213   8.9213   8.9213   8.9213   8.9338   8.9338   8.9338   8.9338
     8.9844   8.9844   8.9844   8.9844   9.0354   9.0354   9.0354   9.0354
     9.1085   9.1085   9.1085   9.1085   9.2151   9.2151   9.2151   9.2151
     9.5083   9.5083   9.5083   9.5083  10.7733  10.7733  10.7733  10.7733
    12.6633  12.6633  12.6633  12.6633  14.3121  14.3121  14.3121  14.3121
    14.7614  14.7614  14.7614  14.7614  16.3420  16.3420  16.3420  16.3420
    17.1006  17.1006  17.1006  17.1006  18.2282

          k = 0.2295 0.2295 0.2295 ( 26793 PWs)   bands (ev):

   -73.5117 -73.5098 -73.5098 -73.5098 -73.5088 -73.5088 -73.5088 -73.5083
   -73.5076 -73.5073 -73.5073 -73.5073 -73.5066 -73.5066 -73.5066 -73.5049
   -39.2624 -39.2624 -39.2624 -39.2565 -39.2565 -39.2565 -39.2565 -39.2565
   -39.2565 -39.2551 -39.2547 -39.2547 -39.2481 -39.2481 -39.2427 -39.2427
   -39.2427 -39.2424 -39.2424 -39.2424 -39.2404 -39.2381 -39.2381 -39.2381
   -39.2268 -39.2268 -39.2268 -39.2264 -39.2264 -39.2264 -39.2251 -39.2239
   -39.2239 -39.2222 -39.2222 -39.2222 -39.2170 -39.2157 -39.2157 -39.2156
   -39.2129 -39.2129 -39.2129 -39.2106 -39.2106 -39.2102 -39.2102 -39.2102
     6.1879   7.1456   7.1456   7.1456   7.2415   7.2415   7.2415   7.3856
     7.3856   7.3856   7.4521   7.4521   7.4869   7.6761   7.6761   7.6762
     7.7196   7.7196   7.7467   7.7467   7.7467   7.7501   7.7501   7.7501
     7.8206   7.8206   7.8206   7.9946   7.9946   7.9946   8.0067   8.0067
     8.0540   8.0540   8.0540   8.0881   8.1031   8.1031   8.2486   8.2486
     8.2486   8.4471   8.4471   8.4471   8.5493   8.7020   8.7020   8.7020
     8.7236   8.7341   8.7341   8.7341   8.8460   8.8460   8.8460   8.8762
     8.8762   8.8762   8.9453   8.9453   8.9454   8.9690   8.9690   9.0275
     9.0275   9.0275   9.0598   9.0598   9.0684   9.0685   9.0685   9.0813
     9.0813   9.3247   9.3247   9.3247   9.3562   9.3562   9.3562   9.3662
     9.3662   9.4191   9.4191   9.4191  10.3397  10.3397  10.3397  11.9586
    12.2514  12.2514  12.2514  13.1567  13.1567  13.1567  14.3517  14.3517
    14.3517  14.9578  15.2738  15.2738  15.8263  16.1753  16.1753  17.2712
    17.2712  17.2712  17.4214  17.4214  17.4215

          k = 0.2295 0.2295 0.3213 ( 26746 PWs)   bands (ev):

   -73.5113 -73.5103 -73.5096 -73.5096 -73.5091 -73.5091 -73.5087 -73.5084
   -73.5075 -73.5074 -73.5071 -73.5071 -73.5067 -73.5067 -73.5061 -73.5052
   -39.2612 -39.2612 -39.2598 -39.2580 -39.2580 -39.2570 -39.2562 -39.2560
   -39.2556 -39.2533 -39.2533 -39.2526 -39.2525 -39.2464 -39.2459 -39.2459
   -39.2457 -39.2427 -39.2427 -39.2405 -39.2402 -39.2402 -39.2380 -39.2370
   -39.2298 -39.2292 -39.2264 -39.2250 -39.2250 -39.2250 -39.2234 -39.2234
   -39.2226 -39.2226 -39.2196 -39.2185 -39.2180 -39.2179 -39.2162 -39.2155
   -39.2126 -39.2126 -39.2119 -39.2119 -39.2113 -39.2104 -39.2104 -39.2102
     6.3896   6.9008   7.2097   7.2097   7.2501   7.2501   7.3814   7.4488
     7.4716   7.4716   7.4874   7.5093   7.5451   7.6632   7.6648   7.6648
     7.6754   7.6813   7.6935   7.7209   7.7209   7.7270   7.8243   7.8541
     7.8541   7.8878   7.8878   7.8932   7.8932   7.9655   7.9802   7.9874
     7.9980   8.0029   8.1090   8.1147   8.1147   8.1758   8.1758   8.2134
     8.2908   8.2909   8.2967   8.3933   8.4591   8.4829   8.4829   8.5601
     8.6781   8.7971   8.7998   8.7998   8.8623   8.8623   8.8625   8.8625
     8.9176   8.9176   8.9212   8.9365   8.9507   8.9685   8.9705   9.0062
     9.0316   9.0457   9.0634   9.0677   9.0748   9.0748   9.0818   9.0818
     9.1222   9.1511   9.2423   9.2950   9.3497   9.3497   9.3760   9.4014
     9.4152   9.4152   9.5050   9.5050   9.9969   9.9969  10.7103  11.5108
    12.5191  12.5191  13.1308  13.1335  13.1335  13.5789  14.4410  14.6524
    14.7628  14.8122  14.8122  15.0458  16.0738  16.2173  16.5347  16.6159
    16.6159  16.9476  17.4078  17.5022  17.9858

          k = 0.2295 0.2295-0.4130 ( 26740 PWs)   bands (ev):

   -73.5109 -73.5109 -73.5094 -73.5093 -73.5093 -73.5093 -73.5086 -73.5086
   -73.5074 -73.5074 -73.5069 -73.5069 -73.5069 -73.5069 -73.5056 -73.5056
   -39.2597 -39.2597 -39.2597 -39.2597 -39.2569 -39.2569 -39.2565 -39.2565
   -39.2559 -39.2559 -39.2497 -39.2497 -39.2497 -39.2497 -39.2497 -39.2497
   -39.2432 -39.2432 -39.2418 -39.2418 -39.2418 -39.2418 -39.2335 -39.2335
   -39.2334 -39.2334 -39.2257 -39.2257 -39.2236 -39.2236 -39.2236 -39.2236
   -39.2206 -39.2206 -39.2205 -39.2205 -39.2157 -39.2157 -39.2156 -39.2156
   -39.2152 -39.2152 -39.2111 -39.2111 -39.2111 -39.2111 -39.2104 -39.2104
     6.6362   6.6362   7.2449   7.2449   7.2449   7.2449   7.4828   7.4828
     7.5410   7.5410   7.5681   7.5681   7.5681   7.5681   7.5810   7.5810
     7.6461   7.6461   7.6800   7.6800   7.7941   7.7941   7.7941   7.7942
     7.8822   7.8822   7.9200   7.9200   7.9200   7.9200   7.9529   7.9529
     8.0000   8.0000   8.1753   8.1753   8.1753   8.1753   8.2534   8.2534
     8.2691   8.2691   8.2691   8.2691   8.3139   8.3139   8.4104   8.4104
     8.8193   8.8193   8.8608   8.8608   8.8608   8.8608   8.8622   8.8622
     8.8651   8.8651   8.8651   8.8651   8.9957   8.9957   9.0007   9.0007
     9.0569   9.0569   9.0661   9.0661   9.0872   9.0872   9.0872   9.0872
     9.1048   9.1048   9.1924   9.1924   9.3871   9.3871   9.3871   9.3871
     9.4035   9.4035   9.7235   9.7235   9.7235   9.7235  11.0986  11.0986
    12.8321  12.8321  12.8321  12.8321  14.0705  14.0705  14.0835  14.0835
    14.5750  14.5750  15.6652  15.6652  15.6652  15.6652  16.5430  16.5430
    16.9826  16.9826  17.0017  17.0017  17.5732

          k = 0.2295 0.3213 0.3213 ( 26740 PWs)   bands (ev):

   -73.5110 -73.5101 -73.5101 -73.5095 -73.5094 -73.5090 -73.5090 -73.5086
   -73.5074 -73.5072 -73.5072 -73.5068 -73.5068 -73.5063 -73.5063 -73.5055
   -39.2606 -39.2589 -39.2589 -39.2580 -39.2580 -39.2577 -39.2565 -39.2551
   -39.2539 -39.2539 -39.2533 -39.2519 -39.2496 -39.2485 -39.2469 -39.2463
   -39.2463 -39.2440 -39.2428 -39.2427 -39.2427 -39.2418 -39.2418 -39.2335
   -39.2333 -39.2266 -39.2266 -39.2244 -39.2244 -39.2234 -39.2225 -39.2225
   -39.2211 -39.2206 -39.2191 -39.2191 -39.2182 -39.2171 -39.2170 -39.2160
   -39.2136 -39.2127 -39.2126 -39.2124 -39.2109 -39.2109 -39.2105 -39.2102
     6.5783   7.0245   7.0245   7.2108   7.3059   7.3932   7.3932   7.5139
     7.5279   7.5279   7.5467   7.5668   7.6296   7.6409   7.6596   7.6596
     7.7075   7.7224   7.7224   7.7464   7.7568   7.8081   7.8218   7.8218
     7.8677   7.8677   7.8827   7.8827   7.8937   7.9208   7.9541   7.9868
     7.9926   8.0144   8.0164   8.0340   8.0340   8.1387   8.1487   8.1667
     8.1667   8.1706   8.2580   8.2580   8.2670   8.2671   8.3004   8.3970
     8.8290   8.8485   8.8485   8.8487   8.8815   8.9160   8.9226   8.9308
     8.9355   8.9355   8.9461   8.9461   8.9623   8.9623   8.9975   9.0126
     9.0435   9.0460   9.0460   9.0490   9.0584   9.0689   9.0689   9.0888
     9.1370   9.1928   9.2315   9.2315   9.2998   9.2998   9.3076   9.3869
     9.3869   9.3898   9.4263   9.6771   9.7428  10.3369  10.3369  11.0832
    12.7986  13.4079  13.4079  13.4733  13.4733  13.8166  14.2746  14.5511
    14.9717  14.9717  15.3078  15.3756  15.3938  15.8098  16.1286  16.1286
    16.5731  16.6876  17.2480  17.5755  17.5757

          k = 0.2295 0.3213-0.4130 ( 26740 PWs)   bands (ev):

   -73.5106 -73.5106 -73.5098 -73.5098 -73.5092 -73.5092 -73.5088 -73.5088
   -73.5072 -73.5072 -73.5070 -73.5070 -73.5065 -73.5065 -73.5058 -73.5058
   -39.2594 -39.2594 -39.2581 -39.2581 -39.2575 -39.2575 -39.2561 -39.2561
   -39.2545 -39.2545 -39.2512 -39.2512 -39.2495 -39.2495 -39.2458 -39.2458
   -39.2452 -39.2452 -39.2450 -39.2450 -39.2440 -39.2440 -39.2375 -39.2375
   -39.2300 -39.2300 -39.2238 -39.2238 -39.2235 -39.2235 -39.2231 -39.2231
   -39.2205 -39.2205 -39.2190 -39.2190 -39.2163 -39.2163 -39.2160 -39.2160
   -39.2154 -39.2154 -39.2126 -39.2126 -39.2104 -39.2104 -39.2104 -39.2104
     6.8011   6.8011   7.1366   7.1366   7.3726   7.3726   7.5388   7.5388
     7.5430   7.5430   7.6138   7.6138   7.6177   7.6177   7.6223   7.6223
     7.7361   7.7361   7.7391   7.7391   7.8002   7.8002   7.8064   7.8064
     7.8642   7.8642   7.8881   7.8881   7.9147   7.9147   7.9530   7.9530
     7.9964   7.9964   8.0686   8.0686   8.0902   8.0902   8.0953   8.0953
     8.1361   8.1361   8.1650   8.1650   8.2105   8.2105   8.2544   8.2544
     8.8965   8.8965   8.8973   8.8973   8.9012   8.9012   8.9211   8.9211
     8.9353   8.9353   8.9799   8.9799   8.9849   8.9849   9.0008   9.0008
     9.0444   9.0444   9.0498   9.0498   9.0632   9.0632   9.0796   9.0796
     9.0806   9.0806   9.2009   9.2009   9.2958   9.2958   9.3990   9.3990
     9.4122   9.4122   9.4261   9.4261  10.0196  10.0196  10.6963  10.6963
    13.1293  13.1293  13.7237  13.7237  13.8614  13.8614  14.3567  14.3567
    15.1822  15.1822  15.2052  15.2052  15.7021  15.7021  15.8342  15.8343
    16.5929  16.5929  17.0616  17.0616  17.2657

          k = 0.2295-0.4130-0.4130 ( 26712 PWs)   bands (ev):

   -73.5102 -73.5102 -73.5102 -73.5102 -73.5090 -73.5090 -73.5090 -73.5090
   -73.5071 -73.5071 -73.5071 -73.5071 -73.5061 -73.5061 -73.5061 -73.5061
   -39.2585 -39.2585 -39.2584 -39.2584 -39.2567 -39.2567 -39.2566 -39.2566
   -39.2528 -39.2528 -39.2528 -39.2528 -39.2476 -39.2476 -39.2476 -39.2476
   -39.2454 -39.2454 -39.2454 -39.2454 -39.2416 -39.2416 -39.2416 -39.2416
   -39.2266 -39.2266 -39.2266 -39.2266 -39.2230 -39.2230 -39.2230 -39.2229
   -39.2179 -39.2179 -39.2179 -39.2179 -39.2175 -39.2175 -39.2175 -39.2175
   -39.2142 -39.2142 -39.2142 -39.2142 -39.2103 -39.2103 -39.2103 -39.2103
     6.9806   6.9806   6.9806   6.9806   7.4847   7.4847   7.4847   7.4847
     7.6006   7.6006   7.6006   7.6006   7.6286   7.6286   7.6286   7.6286
     7.8141   7.8141   7.8141   7.8141   7.8306   7.8306   7.8306   7.8306
     7.8611   7.8611   7.8612   7.8612   7.8904   7.8904   7.8904   7.8904
     8.0002   8.0002   8.0002   8.0002   8.0414   8.0414   8.0414   8.0414
     8.1218   8.1218   8.1218   8.1218   8.1619   8.1619   8.1619   8.1619
     8.9143   8.9143   8.9143   8.9143   8.9425   8.9425   8.9425   8.9425
     8.9858   8.9858   8.9858   8.9858   9.0025   9.0025   9.0025   9.0025
     9.0250   9.0250   9.0250   9.0250   9.0714   9.0714   9.0714   9.0714
     9.1945   9.1946   9.1946   9.1946   9.2290   9.2290   9.2290   9.2290
     9.4126   9.4126   9.4126   9.4126  10.3416  10.3416  10.3416  10.3416
    13.4795  13.4795  13.4795  13.4795  14.5716  14.5716  14.5716  14.5716
    14.8616  14.8616  14.8616  14.8616  15.8954  15.8954  15.8954  15.8954
    16.4782  16.4782  16.4782  16.4782  17.3857

          k = 0.3213 0.3213 0.3213 ( 26737 PWs)   bands (ev):

   -73.5107 -73.5099 -73.5099 -73.5099 -73.5093 -73.5093 -73.5093 -73.5089
   -73.5072 -73.5069 -73.5069 -73.5069 -73.5064 -73.5064 -73.5064 -73.5057
   -39.2581 -39.2581 -39.2581 -39.2572 -39.2572 -39.2572 -39.2542 -39.2542
   -39.2539 -39.2511 -39.2511 -39.2510 -39.2510 -39.2510 -39.2479 -39.2478
   -39.2478 -39.2457 -39.2457 -39.2457 -39.2448 -39.2448 -39.2447 -39.2370
   -39.2301 -39.2239 -39.2239 -39.2238 -39.2215 -39.2215 -39.2215 -39.2192
   -39.2192 -39.2191 -39.2191 -39.2190 -39.2188 -39.2188 -39.2188 -39.2166
   -39.2126 -39.2126 -39.2126 -39.2125 -39.2125 -39.2119 -39.2119 -39.2119
     6.7618   7.1686   7.1686   7.1686   7.3787   7.3787   7.3787   7.5652
     7.6147   7.6147   7.6147   7.6678   7.6678   7.7406   7.7406   7.7406
     7.7425   7.7425   7.7622   7.7622   7.7622   7.7915   7.7915   7.7915
     7.8247   7.8969   7.8969   7.8969   7.8974   7.8974   7.8974   7.9074
     7.9074   7.9074   7.9120   7.9120   8.0476   8.0476   8.0654   8.0654
     8.0654   8.0962   8.0962   8.0962   8.1208   8.1209   8.1209   8.2333
     8.8896   8.8897   8.8897   8.9526   8.9526   8.9526   8.9679   8.9679
     8.9715   8.9715   8.9715   9.0051   9.0183   9.0183   9.0184   9.0242
     9.0242   9.0430   9.0430   9.0430   9.0512   9.0512   9.0512   9.1051
     9.1051   9.2696   9.2696   9.3074   9.3074   9.3074   9.3253   9.3253
     9.3253   9.4432   9.4432   9.4432   9.9868   9.9868   9.9868  10.6774
    13.6887  13.6887  13.6887  14.2035  14.2035  14.2035  14.6681  14.6681
    14.6681  15.0290  15.2147  15.2147  15.4482  15.7303  15.7303  16.1548
    16.1548  16.1548  16.6812  16.6812  16.6812

          k = 0.3213 0.3213-0.4130 ( 26726 PWs)   bands (ev):

   -73.5103 -73.5103 -73.5096 -73.5096 -73.5096 -73.5096 -73.5091 -73.5091
   -73.5070 -73.5070 -73.5066 -73.5066 -73.5066 -73.5066 -73.5060 -73.5060
   -39.2572 -39.2572 -39.2572 -39.2572 -39.2560 -39.2560 -39.2550 -39.2550
   -39.2525 -39.2525 -39.2513 -39.2513 -39.2486 -39.2486 -39.2479 -39.2479
   -39.2479 -39.2479 -39.2476 -39.2476 -39.2476 -39.2476 -39.2409 -39.2409
   -39.2269 -39.2269 -39.2213 -39.2213 -39.2213 -39.2213 -39.2204 -39.2204
   -39.2195 -39.2195 -39.2195 -39.2195 -39.2177 -39.2177 -39.2156 -39.2156
   -39.2154 -39.2154 -39.2125 -39.2125 -39.2125 -39.2125 -39.2120 -39.2120
     6.9726   6.9726   7.3031   7.3031   7.3031   7.3031   7.5803   7.5803
     7.6164   7.6164   7.7062   7.7062   7.7062   7.7062   7.7135   7.7135
     7.7382   7.7382   7.7695   7.7695   7.8000   7.8000   7.8000   7.8000
     7.8769   7.8769   7.8801   7.8801   7.8801   7.8801   7.9036   7.9036
     7.9188   7.9188   7.9345   7.9345   7.9664   7.9664   7.9664   7.9664
     8.0307   8.0307   8.0307   8.0307   8.0910   8.0910   8.0982   8.0982
     8.9302   8.9302   8.9303   8.9303   8.9310   8.9310   8.9878   8.9878
     9.0100   9.0100   9.0123   9.0123   9.0123   9.0123   9.0346   9.0347
     9.0415   9.0415   9.0415   9.0415   9.0487   9.0487   9.1405   9.1405
     9.1951   9.1951   9.2053   9.2053   9.3046   9.3046   9.3046   9.3046
     9.3138   9.3138   9.6953   9.6953   9.6953   9.6953  10.3171  10.3171
    14.0211  14.0211  14.0211  14.0211  14.6368  14.6368  14.6753  14.6753
    14.8369  14.8369  15.3806  15.3806  15.3806  15.3806  15.8150  15.8150
    16.1228  16.1228  16.1709  16.1709  16.7658

          k = 0.3213-0.4130-0.4130 ( 26716 PWs)   bands (ev):

   -73.5100 -73.5100 -73.5100 -73.5100 -73.5094 -73.5094 -73.5094 -73.5094
   -73.5068 -73.5068 -73.5068 -73.5068 -73.5063 -73.5063 -73.5063 -73.5063
   -39.2562 -39.2562 -39.2562 -39.2562 -39.2552 -39.2552 -39.2551 -39.2551
   -39.2505 -39.2505 -39.2505 -39.2505 -39.2502 -39.2502 -39.2502 -39.2502
   -39.2495 -39.2495 -39.2495 -39.2495 -39.2444 -39.2444 -39.2443 -39.2443
   -39.2240 -39.2240 -39.2240 -39.2240 -39.2194 -39.2194 -39.2194 -39.2194
   -39.2189 -39.2189 -39.2189 -39.2189 -39.2166 -39.2166 -39.2166 -39.2166
   -39.2146 -39.2146 -39.2146 -39.2146 -39.2126 -39.2126 -39.2126 -39.2125
     7.1582   7.1582   7.1582   7.1582   7.4819   7.4819   7.4819   7.4819
     7.7024   7.7024   7.7024   7.7024   7.7431   7.7431   7.7431   7.7431
     7.8108   7.8108   7.8108   7.8108   7.8214   7.8214   7.8214   7.8214
     7.8359   7.8359   7.8359   7.8359   7.8742   7.8742   7.8743   7.8743
     7.8925   7.8925   7.8925   7.8925   7.9063   7.9063   7.9063   7.9063
     7.9706   7.9706   7.9707   7.9707   8.0273   8.0273   8.0273   8.0273
     8.9491   8.9491   8.9491   8.9491   8.9665   8.9665   8.9666   8.9666
     9.0096   9.0096   9.0096   9.0096   9.0316   9.0316   9.0316   9.0316
     9.0675   9.0675   9.0675   9.0675   9.1012   9.1012   9.1012   9.1012
     9.2167   9.2167   9.2167   9.2167   9.2945   9.2945   9.2945   9.2945
     9.4313   9.4313   9.4313   9.4313   9.9892   9.9892   9.9893   9.9893
    14.3697  14.3697  14.3697  14.3698  14.9356  14.9356  14.9356  14.9356
    15.0160  15.0160  15.0160  15.0160  15.5346  15.5346  15.5346  15.5346
    15.9033  15.9033  15.9033  15.9033  16.3493

          k =-0.4130-0.4130-0.4130 ( 26632 PWs)   bands (ev):

   -73.5097 -73.5097 -73.5097 -73.5097 -73.5097 -73.5097 -73.5097 -73.5097
   -73.5065 -73.5065 -73.5065 -73.5065 -73.5065 -73.5065 -73.5065 -73.5065
   -39.2532 -39.2532 -39.2532 -39.2532 -39.2532 -39.2532 -39.2532 -39.2532
   -39.2532 -39.2532 -39.2532 -39.2532 -39.2532 -39.2532 -39.2532 -39.2532
   -39.2472 -39.2472 -39.2472 -39.2472 -39.2472 -39.2472 -39.2472 -39.2471
   -39.2216 -39.2216 -39.2216 -39.2216 -39.2216 -39.2216 -39.2216 -39.2216
   -39.2153 -39.2153 -39.2153 -39.2153 -39.2153 -39.2153 -39.2153 -39.2153
   -39.2153 -39.2153 -39.2153 -39.2153 -39.2153 -39.2153 -39.2153 -39.2153
     7.3547   7.3547   7.3547   7.3547   7.3547   7.3547   7.3547   7.3547
     7.8140   7.8140   7.8140   7.8140   7.8140   7.8140   7.8140   7.8140
     7.8140   7.8140   7.8140   7.8140   7.8140   7.8140   7.8140   7.8140
     7.8232   7.8232   7.8232   7.8232   7.8232   7.8232   7.8232   7.8232
     7.8860   7.8860   7.8860   7.8860   7.8860   7.8860   7.8860   7.8860
     7.8860   7.8860   7.8860   7.8860   7.8860   7.8860   7.8860   7.8860
     8.9897   8.9897   8.9897   8.9897   8.9897   8.9897   8.9897   8.9897
     8.9897   8.9897   8.9897   8.9897   8.9897   8.9897   8.9897   8.9897
     9.1740   9.1740   9.1740   9.1740   9.1740   9.1740   9.1740   9.1740
     9.1740   9.1740   9.1740   9.1740   9.1740   9.1740   9.1740   9.1740
     9.6926   9.6926   9.6926   9.6926   9.6926   9.6926   9.6926   9.6926
    15.1899  15.1899  15.1899  15.1899  15.1899  15.1899  15.1899  15.1899
    15.3849  15.3849  15.3849  15.3849  15.3849  15.3849  15.3849  15.3849
    15.3849  15.3849  15.3849  15.3849  15.3849

     the Fermi energy is     9.5064 ev

!    total energy              =   -8191.14883605 Ry

     total all-electron energy =   -161471.575690 Ry
     estimated scf accuracy    <       0.00000022 Ry
     smearing contrib. (-TS)   =       0.18671255 Ry
     internal energy E=F+TS    =   -8191.33554860 Ry

     The total energy is F=E-TS. E is the sum of the following terms:
     one-electron contribution =   -2013.43330523 Ry
     hartree contribution      =    1123.13277181 Ry
     xc contribution           =    -490.36189977 Ry
     ewald contribution        =   -2727.16739921 Ry
     one-center paw contrib.   =   -4083.50571622 Ry

     convergence has been achieved in  14 iterations

     Forces acting on atoms (cartesian axes, Ry/au):

     atom    1 type  1   force =     0.00000000    0.00000000    0.00000000
     atom    2 type  1   force =    -0.00000192   -0.00000192   -0.00000192
     atom    3 type  1   force =     0.00000000    0.00000000    0.00000000
     atom    4 type  1   force =    -0.00000192   -0.00000192    0.00000192
     atom    5 type  1   force =     0.00000000    0.00000000    0.00000000
     atom    6 type  1   force =    -0.00000192    0.00000192   -0.00000192
     atom    7 type  1   force =     0.00000000    0.00000000    0.00000000
     atom    8 type  1   force =    -0.00000192    0.00000192    0.00000192
     atom    9 type  1   force =     0.00000000    0.00000000    0.00000000
     atom   10 type  1   force =     0.00000192   -0.00000192   -0.00000192
     atom   11 type  1   force =     0.00000000    0.00000000    0.00000000
     atom   12 type  1   force =     0.00000192   -0.00000192    0.00000192
     atom   13 type  1   force =     0.00000000    0.00000000    0.00000000
     atom   14 type  1   force =     0.00000192    0.00000192   -0.00000192
     atom   15 type  1   force =     0.00000000    0.00000000    0.00000000
     atom   16 type  1   force =     0.00000192    0.00000192    0.00000192

     Total force =     0.000009     Total SCF correction =     0.000008
     SCF correction compared to forces is large: reduce conv_thr to get better values


     Computing stress (Cartesian axis) and pressure

          total   stress  (Ry/bohr**3)                   (kbar)     P=     -220.30
  -0.00149757   0.00000000   0.00000000         -220.30        0.00        0.00
   0.00000000  -0.00149757   0.00000000            0.00     -220.30        0.00
   0.00000000   0.00000000  -0.00149757            0.00        0.00     -220.30


     Writing output data file /scratch/rBiwHfiWpBYOdmLK.save/
 
     init_run     :      5.16s CPU      5.32s WALL (       1 calls)
     electrons    :    247.81s CPU    251.85s WALL (       1 calls)
     forces       :      1.45s CPU      1.48s WALL (       1 calls)
     stress       :      6.26s CPU      6.31s WALL (       1 calls)

     Called by init_run:
     wfcinit      :      4.72s CPU      4.81s WALL (       1 calls)
     potinit      :      0.15s CPU      0.17s WALL (       1 calls)
     hinit0       :      0.05s CPU      0.05s WALL (       1 calls)

     Called by electrons:
     c_bands      :    215.20s CPU    218.38s WALL (      15 calls)
     sum_band     :     30.89s CPU     31.50s WALL (      15 calls)
     v_of_rho     :      0.46s CPU      0.48s WALL (      15 calls)
     newd         :      0.28s CPU      0.38s WALL (      15 calls)
     PAW_pot      :      0.94s CPU      1.06s WALL (      15 calls)
     mix_rho      :      0.08s CPU      0.09s WALL (      15 calls)

     Called by c_bands:
     init_us_2    :      0.96s CPU      1.00s WALL (    1155 calls)
     cegterg      :    211.66s CPU    214.70s WALL (     525 calls)

     Called by *egterg:
     cdiaghg      :     23.76s CPU     23.89s WALL (    1587 calls)
     h_psi        :    137.10s CPU    139.30s WALL (    1657 calls)
     s_psi        :      4.19s CPU      4.23s WALL (    1657 calls)
     g_psi        :      0.20s CPU      0.20s WALL (    1097 calls)

     Called by h_psi:
     h_psi:calbec :      9.41s CPU      9.50s WALL (    1657 calls)
     vloc_psi     :    122.53s CPU    124.60s WALL (    1657 calls)
     add_vuspsi   :      4.65s CPU      4.69s WALL (    1657 calls)

     General routines
     calbec       :     14.79s CPU     14.90s WALL (    2357 calls)
     fft          :      0.32s CPU      0.33s WALL (     219 calls)
     ffts         :      0.02s CPU      0.03s WALL (      30 calls)
     fftw         :    144.01s CPU    146.44s WALL (  523241 calls)
     interpolate  :      0.03s CPU      0.04s WALL (      15 calls)
 
     Parallel routines
     fft_scatt_xy :      8.53s CPU      8.66s WALL (  523490 calls)
     fft_scatt_yz :    108.92s CPU    110.83s WALL (  523490 calls)
 
     PWSCF        :   4m26.77s CPU   4m32.14s WALL

 
   This run was terminated on:  23:33:53  29Nov2021            

=------------------------------------------------------------------------------=
   JOB DONE.
=------------------------------------------------------------------------------=
