
     Program PWSCF v.6.7MaX starts on 29Nov2021 at 23:13: 2 

     This program is part of the open-source Quantum ESPRESSO suite
     for quantum simulation of materials; please cite
         "P. Giannozzi et al., J. Phys.:Condens. Matter 21 395502 (2009);
         "P. Giannozzi et al., J. Phys.:Condens. Matter 29 465901 (2017);
          URL http://www.quantum-espresso.org", 
     in publications or presentations arising from this work. More details at
     http://www.quantum-espresso.org/quote

     Parallel version (MPI & OpenMP), running on      72 processor cores
     Number of MPI processes:                72
     Threads/MPI process:                     1

     MPI processes distributed on     1 nodes
     R & G space division:  proc/nbgrp/npool/nimage =      72
     Reading input from bcc_2.in
Warning: card &CELL ignored
Warning: card CELL_DYNAMICS = 'BFGS', ignored
Warning: card CELL_FACTOR = 2.0, ignored
Warning: card PRESS = 0.0, ignored
Warning: card / ignored

     Current dimensions of program PWSCF are:
     Max number of different atomic species (ntypx) = 10
     Max number of k-points (npk) =  40000
     Max angular momentum in pseudopotentials (lmaxx) =  3
     file Pd.pbe-spn-kjpaw_psl.1.0.0.UPF: wavefunction(s)  4S 5S 4D renormalized

     Subspace diagonalization in iterative solution of the eigenvalue problem:
     one sub-group per band group will be used
     ELPA distributed-memory algorithm (size of sub-group:  8*  8 procs)

     Found symmetry operation: I + (  0.2500  0.2500  0.2500)
     This is a supercell, fractional translations are disabled
     Message from routine setup:
     using ibrav=0 with symmetry is DISCOURAGED, use correct ibrav instead
 
     Parallelization info
     --------------------
     sticks:   dense  smooth     PW     G-vecs:    dense   smooth      PW
     Min          41      27      7                 1693      905     135
     Max          42      31      8                 1700      909     142
     Sum        2965    1961    561               122057    65267    9939
 


     bravais-lattice index     =            0
     lattice parameter (alat)  =      11.4293  a.u.
     unit-cell volume          =     810.5707 (a.u.)^3
     number of atoms/cell      =           16
     number of atomic types    =            1
     number of electrons       =       288.00
     number of Kohn-Sham states=          173
     kinetic-energy cutoff     =      71.0000  Ry
     charge density cutoff     =     430.0000  Ry
     scf convergence threshold =      1.0E-06
     mixing beta               =       0.1000
     number of iterations used =           10  TF        mixing
     Exchange-correlation= SLA  PW   PBX  PBC
                           (   1   4   3   4   0   0   0)

     celldm(1)=  11.429280  celldm(2)=   0.000000  celldm(3)=   0.000000
     celldm(4)=   0.000000  celldm(5)=   0.000000  celldm(6)=   0.000000

     crystal axes: (cart. coord. in units of alat)
               a(1) = (   0.815789   0.000000   0.000000 )  
               a(2) = (   0.000000   0.815789   0.000000 )  
               a(3) = (   0.000000   0.000000   0.815789 )  

     reciprocal axes: (cart. coord. in units 2 pi/alat)
               b(1) = (  1.225806  0.000000  0.000000 )  
               b(2) = (  0.000000  1.225806  0.000000 )  
               b(3) = (  0.000000  0.000000  1.225806 )  


     PseudoPot. # 1 for Pd read from file:
     /rds/homes/b/bxp912/pp/Pd.pbe-spn-kjpaw_psl.1.0.0.UPF
     MD5 check sum: 790f2ebce206edfd9790dcb9844eca51
     Pseudo is Projector augmented-wave + core cor, Zval = 18.0
     Generated using &quot;atomic&quot; code by A. Dal Corso  v.6.3
     Shape of augmentation charge: PSQ
     Using radial grid of 1235 points,  6 beta functions with: 
                l(1) =   0
                l(2) =   0
                l(3) =   1
                l(4) =   1
                l(5) =   2
                l(6) =   2
     Q(r) pseudized with 0 coefficients 


     atomic species   valence    mass     pseudopotential
        Pd            18.00   106.42000     Pd( 1.00)

     48 Sym. Ops., with inversion, found



   Cartesian axes

     site n.     atom                  positions (alat units)
         1           Pd  tau(   1) = (   0.0000000   0.0000000   0.0000000  )
         2           Pd  tau(   2) = (   0.2039474   0.2039474   0.2039474  )
         3           Pd  tau(   3) = (   0.0000000   0.0000000   0.4078947  )
         4           Pd  tau(   4) = (   0.2039474   0.2039474   0.6118421  )
         5           Pd  tau(   5) = (   0.0000000   0.4078947   0.0000000  )
         6           Pd  tau(   6) = (   0.2039474   0.6118421   0.2039474  )
         7           Pd  tau(   7) = (   0.0000000   0.4078947   0.4078947  )
         8           Pd  tau(   8) = (   0.2039474   0.6118421   0.6118421  )
         9           Pd  tau(   9) = (   0.4078947   0.0000000   0.0000000  )
        10           Pd  tau(  10) = (   0.6118421   0.2039474   0.2039474  )
        11           Pd  tau(  11) = (   0.4078947   0.0000000   0.4078947  )
        12           Pd  tau(  12) = (   0.6118421   0.2039474   0.6118421  )
        13           Pd  tau(  13) = (   0.4078947   0.4078947   0.0000000  )
        14           Pd  tau(  14) = (   0.6118421   0.6118421   0.2039474  )
        15           Pd  tau(  15) = (   0.4078947   0.4078947   0.4078947  )
        16           Pd  tau(  16) = (   0.6118421   0.6118421   0.6118421  )

     number of k points=    35  Marzari-Vanderbilt smearing, width (Ry)=  0.0400
                       cart. coord. in units 2pi/alat
        k(    1) = (   0.0681004   0.0681004   0.0681004), wk =   0.0219479
        k(    2) = (   0.0681004   0.0681004   0.2043011), wk =   0.0658436
        k(    3) = (   0.0681004   0.0681004   0.3405018), wk =   0.0658436
        k(    4) = (   0.0681004   0.0681004   0.4767025), wk =   0.0658436
        k(    5) = (   0.0681004   0.0681004  -0.6129032), wk =   0.0329218
        k(    6) = (   0.0681004   0.2043011   0.2043011), wk =   0.0658436
        k(    7) = (   0.0681004   0.2043011   0.3405018), wk =   0.1316872
        k(    8) = (   0.0681004   0.2043011   0.4767025), wk =   0.1316872
        k(    9) = (   0.0681004   0.2043011  -0.6129032), wk =   0.0658436
        k(   10) = (   0.0681004   0.3405018   0.3405018), wk =   0.0658436
        k(   11) = (   0.0681004   0.3405018   0.4767025), wk =   0.1316872
        k(   12) = (   0.0681004   0.3405018  -0.6129032), wk =   0.0658436
        k(   13) = (   0.0681004   0.4767025   0.4767025), wk =   0.0658436
        k(   14) = (   0.0681004   0.4767025  -0.6129032), wk =   0.0658436
        k(   15) = (   0.0681004  -0.6129032  -0.6129032), wk =   0.0164609
        k(   16) = (   0.2043011   0.2043011   0.2043011), wk =   0.0219479
        k(   17) = (   0.2043011   0.2043011   0.3405018), wk =   0.0658436
        k(   18) = (   0.2043011   0.2043011   0.4767025), wk =   0.0658436
        k(   19) = (   0.2043011   0.2043011  -0.6129032), wk =   0.0329218
        k(   20) = (   0.2043011   0.3405018   0.3405018), wk =   0.0658436
        k(   21) = (   0.2043011   0.3405018   0.4767025), wk =   0.1316872
        k(   22) = (   0.2043011   0.3405018  -0.6129032), wk =   0.0658436
        k(   23) = (   0.2043011   0.4767025   0.4767025), wk =   0.0658436
        k(   24) = (   0.2043011   0.4767025  -0.6129032), wk =   0.0658436
        k(   25) = (   0.2043011  -0.6129032  -0.6129032), wk =   0.0164609
        k(   26) = (   0.3405018   0.3405018   0.3405018), wk =   0.0219479
        k(   27) = (   0.3405018   0.3405018   0.4767025), wk =   0.0658436
        k(   28) = (   0.3405018   0.3405018  -0.6129032), wk =   0.0329218
        k(   29) = (   0.3405018   0.4767025   0.4767025), wk =   0.0658436
        k(   30) = (   0.3405018   0.4767025  -0.6129032), wk =   0.0658436
        k(   31) = (   0.3405018  -0.6129032  -0.6129032), wk =   0.0164609
        k(   32) = (   0.4767025   0.4767025   0.4767025), wk =   0.0219479
        k(   33) = (   0.4767025   0.4767025  -0.6129032), wk =   0.0329218
        k(   34) = (   0.4767025  -0.6129032  -0.6129032), wk =   0.0164609
        k(   35) = (  -0.6129032  -0.6129032  -0.6129032), wk =   0.0027435

     Dense  grid:   122057 G-vectors     FFT dimensions: (  64,  64,  64)

     Smooth grid:    65267 G-vectors     FFT dimensions: (  54,  54,  54)

     Estimated max dynamical RAM per process >      20.06 MB

     Estimated total dynamical RAM >       1.41 GB

     Check: negative core charge=   -0.000002

     Initial potential from superposition of free atoms

     starting charge  287.99388, renormalised to  288.00000
     Starting wfcs are  160 randomized atomic wfcs +   13 random wfcs
     Checking if some PAW data can be deallocated... 

     total cpu time spent up to now is        4.7 secs

     Self-consistent Calculation

     iteration #  1     ecut=    71.00 Ry     beta= 0.10
     Davidson diagonalization with overlap
     ethr =  1.00E-02,  avg # of iterations =  4.4

     Threshold (ethr) on eigenvalues was too large:
     Diagonalizing with lowered threshold

     Davidson diagonalization with overlap
     ethr =  3.58E-05,  avg # of iterations =  8.3

     total cpu time spent up to now is       37.6 secs

     total energy              =   -8181.45509096 Ry
     estimated scf accuracy    <       0.08310109 Ry

     iteration #  2     ecut=    71.00 Ry     beta= 0.10
     Davidson diagonalization with overlap
     ethr =  2.89E-05,  avg # of iterations =  1.5

     total cpu time spent up to now is       45.1 secs

     total energy              =   -8181.41320710 Ry
     estimated scf accuracy    <       0.06233601 Ry

     iteration #  3     ecut=    71.00 Ry     beta= 0.10
     Davidson diagonalization with overlap
     ethr =  2.16E-05,  avg # of iterations =  2.2

     total cpu time spent up to now is       54.6 secs

     total energy              =   -8181.42355992 Ry
     estimated scf accuracy    <       0.00343772 Ry

     iteration #  4     ecut=    71.00 Ry     beta= 0.10
     Davidson diagonalization with overlap
     c_bands:  2 eigenvalues not converged
     c_bands:  1 eigenvalues not converged
     ethr =  1.19E-06,  avg # of iterations =  6.8

     total cpu time spent up to now is       69.4 secs

     total energy              =   -8181.42251628 Ry
     estimated scf accuracy    <       0.00308128 Ry

     iteration #  5     ecut=    71.00 Ry     beta= 0.10
     Davidson diagonalization with overlap
     ethr =  1.07E-06,  avg # of iterations =  2.6

     total cpu time spent up to now is       79.2 secs

     total energy              =   -8181.42288121 Ry
     estimated scf accuracy    <       0.00015260 Ry

     iteration #  6     ecut=    71.00 Ry     beta= 0.10
     Davidson diagonalization with overlap
     ethr =  5.30E-08,  avg # of iterations =  2.1

     total cpu time spent up to now is       90.1 secs

     total energy              =   -8181.42295716 Ry
     estimated scf accuracy    <       0.00006453 Ry

     iteration #  7     ecut=    71.00 Ry     beta= 0.10
     Davidson diagonalization with overlap
     ethr =  2.24E-08,  avg # of iterations =  2.0

     total cpu time spent up to now is       97.6 secs

     total energy              =   -8181.42296131 Ry
     estimated scf accuracy    <       0.00003294 Ry

     iteration #  8     ecut=    71.00 Ry     beta= 0.10
     Davidson diagonalization with overlap
     ethr =  1.14E-08,  avg # of iterations =  1.0

     total cpu time spent up to now is      105.2 secs

     total energy              =   -8181.42295291 Ry
     estimated scf accuracy    <       0.00003032 Ry

     iteration #  9     ecut=    71.00 Ry     beta= 0.10
     Davidson diagonalization with overlap
     ethr =  1.05E-08,  avg # of iterations =  1.0

     total cpu time spent up to now is      111.5 secs

     total energy              =   -8181.42294864 Ry
     estimated scf accuracy    <       0.00001062 Ry

     iteration # 10     ecut=    71.00 Ry     beta= 0.10
     Davidson diagonalization with overlap
     ethr =  3.69E-09,  avg # of iterations =  2.0

     total cpu time spent up to now is      120.3 secs

     End of self-consistent calculation

          k = 0.0681 0.0681 0.0681 (  8247 PWs)   bands (ev):

   -42.2356 -41.4482 -41.4482 -41.4481 -41.3070 -41.3070 -41.3070 -41.2861
   -41.2861 -41.2861 -41.2736 -41.2736 -41.2736 -41.1923 -41.1911 -40.6377
    -9.5893  -9.5892  -9.5892  -9.5716  -9.5716  -9.5716  -8.3665  -8.3665
    -8.3251  -8.1183  -8.0349  -8.0349  -8.0349  -7.9628  -7.9628  -7.8203
    -7.8203  -7.8203  -7.6383  -7.6383  -7.4748  -7.2043  -7.2043  -7.2043
    -7.1363  -7.1363  -7.1362  -7.0081  -7.0081  -7.0081  -6.9878  -6.9878
    -6.9878  -6.9809  -6.9809  -6.9809  -6.9170  -6.9170  -6.9170  -5.9021
    -5.9021  -5.9021  -5.8816  -5.8816  -5.8816  -5.8705  -5.8239  -5.8239
    31.0551  31.0551  32.2182  32.2182  32.2182  32.2270  32.2270  32.2270
    33.0449  34.2915  34.2915  34.2915  34.3335  34.3335  34.3335  35.0801
    35.0801  35.0801  35.9912  35.9912  35.9912  36.1076  36.4764  36.4764
    36.4964  36.4964  36.4964  36.7433  36.7433  36.7433  37.1875  37.1875
    37.5262  37.5908  37.5908  37.7262  38.8877  38.8877  38.8877  39.0992
    39.0992  39.0992  39.4104  39.4104  39.4104  39.6835  39.6835  39.6835
    41.2935  41.2935  41.2935  42.0407  42.0407  42.0407  42.6883  42.6883
    42.8798  42.8798  42.8798  42.9491  42.9491  42.9491  43.3824  43.3824
    43.3824  43.8148  43.8148  43.8148  44.0211  44.0211  44.0215  44.0215
    46.2948  46.5397  46.5397  46.5397  46.5899  46.5899  47.0224  47.0224
    47.0224  47.2700  47.2700  47.2700  48.2890  48.2890  48.2890  48.5403
    48.5403  48.5403  48.5920  48.5920  48.5920  58.8648  58.8648  58.9656
    59.7093  60.5066  60.5066  60.5758  60.5758  60.5758  60.6577  60.6577
    60.6577  60.9946  61.5652  61.6197  61.6197

          k = 0.0681 0.0681 0.2043 (  8195 PWs)   bands (ev):

   -42.2082 -41.5906 -41.4402 -41.4402 -41.3044 -41.3044 -41.3033 -41.3033
   -41.2807 -41.2685 -41.2673 -41.2672 -41.1987 -41.1954 -41.1717 -40.6579
    -9.5370  -9.5370  -9.5367  -9.5206  -9.4846  -9.4846  -8.3963  -8.3491
    -8.3279  -8.2776  -8.2657  -8.2203  -8.2203  -8.2018  -8.0148  -8.0148
    -7.8507  -7.6715  -7.5637  -7.4242  -7.3525  -7.3149  -7.2213  -7.2027
    -7.2027  -7.0610  -7.0369  -7.0340  -7.0340  -6.9835  -6.9835  -6.9744
    -6.9744  -6.9690  -6.9690  -6.7610  -6.7559  -6.7559  -6.7014  -5.9769
    -5.9608  -5.9608  -5.9579  -5.9419  -5.9004  -5.9004  -5.8620  -5.8423
    31.1732  31.3039  32.3618  32.3618  32.3850  32.3850  32.4588  32.4627
    33.2810  34.2318  34.3267  34.3695  34.4150  34.4150  34.5402  34.5402
    35.0356  35.0356  35.6064  35.7174  35.7174  35.8798  35.9263  36.3748
    36.4458  36.4458  36.6523  36.6911  36.6911  36.7700  36.9224  37.5190
    37.5878  37.9016  38.0123  38.1238  38.2568  38.2568  38.4699  38.6758
    38.7195  38.7195  39.6492  39.6492  39.9727  39.9727  40.0735  40.4025
    40.5950  42.0954  42.0954  42.2581  42.2581  42.3910  42.6658  42.6658
    42.7324  42.7324  42.8003  42.8208  42.8357  42.8357  42.9386  43.0004
    43.2981  43.4054  43.4054  43.8277  43.9349  43.9351  44.0095  44.0123
    45.1292  45.6762  45.6778  46.0978  46.1208  46.4776  46.4776  46.5502
    47.3188  47.3188  47.3496  47.3496  47.9970  47.9970  48.7373  48.7373
    48.8815  48.8815  49.7842  50.0385  50.0638  58.3335  58.7018  59.2097
    59.5886  59.6342  60.5115  60.8291  60.8978  60.9479  60.9479  61.0032
    61.1658  61.1658  61.6203  62.6547  62.6678

          k = 0.0681 0.0681 0.3405 (  8204 PWs)   bands (ev):

   -42.1544 -41.7294 -41.4251 -41.4251 -41.3272 -41.3272 -41.2964 -41.2964
   -41.2704 -41.2667 -41.2667 -41.2590 -41.2098 -41.2044 -41.0462 -40.6983
    -9.4331  -9.4201  -9.4185  -9.4185  -9.3325  -9.3324  -8.6081  -8.5750
    -8.4811  -8.4811  -8.4194  -8.3204  -8.2907  -8.2907  -8.2520  -8.1798
    -7.7323  -7.6342  -7.6172  -7.5596  -7.2758  -7.1860  -7.1860  -7.1605
    -7.1287  -7.0648  -7.0648  -7.0026  -6.9795  -6.9795  -6.9674  -6.9674
    -6.9444  -6.7552  -6.7552  -6.5533  -6.5533  -6.5516  -6.4968  -6.1532
    -6.0679  -6.0601  -6.0570  -6.0570  -5.9586  -5.9586  -5.9372  -5.9059
    31.4084  31.7854  32.6553  32.6553  32.6832  32.6832  32.9111  32.9205
    33.4651  33.7294  34.4038  34.4530  34.7002  34.7002  34.7210  34.7210
    34.9063  34.9063  35.0471  35.0471  35.1273  35.1390  35.3954  35.8591
    36.1661  36.2891  36.6920  36.6920  36.8975  36.8975  37.4888  37.5916
    37.6709  37.6898  37.6898  37.8831  37.8831  38.1077  38.1505  38.5886
    38.9445  38.9845  39.9561  40.4320  40.4320  40.4526  40.4526  40.8719
    41.0158  41.0158  41.2425  41.6930  41.6930  41.8328  42.3785  42.3785
    42.9399  42.9400  42.9740  43.0243  43.0509  43.0968  43.1088  43.1088
    43.6123  43.7307  43.7822  43.7858  43.8499  43.8499  43.8516  43.9870
    43.9987  44.6244  44.8076  45.1706  45.2629  46.2477  46.3987  46.3987
    47.1554  47.1554  47.4054  47.4054  47.7514  47.7514  48.9883  48.9883
    49.2876  49.2876  51.3528  51.5576  51.6278  57.3469  57.4419  57.7952
    60.5500  60.8623  60.8735  60.8820  61.2970  61.3328  61.6654  61.6654
    61.9085  61.9085  62.2664  62.3826  62.4178

          k = 0.0681 0.0681 0.4767 (  8177 PWs)   bands (ev):

   -42.0763 -41.8597 -41.4042 -41.4041 -41.3529 -41.3529 -41.2876 -41.2876
   -41.2710 -41.2710 -41.2564 -41.2461 -41.2243 -41.2170 -40.9339 -40.7584
    -9.2807  -9.2729  -9.2408  -9.2408  -9.1236  -9.1236  -8.8586  -8.8460
    -8.7556  -8.7556  -8.5854  -8.5854  -8.4326  -8.3931  -8.1409  -8.0646
    -7.8273  -7.7509  -7.5943  -7.5136  -7.2930  -7.2499  -7.1611  -7.1611
    -7.0977  -7.0977  -6.9737  -6.9737  -6.9716  -6.9659  -6.9659  -6.7116
    -6.6764  -6.5433  -6.5433  -6.3899  -6.3590  -6.3583  -6.3583  -6.3092
    -6.2321  -6.2284  -6.1880  -6.1880  -6.0556  -6.0556  -6.0474  -6.0087
    31.7588  32.4673  32.7922  33.0908  33.0908  33.1051  33.1051  33.5189
    33.5638  34.1923  34.1923  34.2162  34.3202  34.3202  34.3412  34.5348
    34.6118  34.7009  35.0167  35.1296  35.1386  35.1386  35.4210  35.4210
    35.4751  35.7251  36.3859  36.3859  36.7368  36.7368  37.5137  37.6179
    37.6830  37.6830  37.7735  37.8118  38.2088  38.2088  38.4791  39.2605
    39.3855  39.7397  39.7398  39.9723  40.0044  40.4326  40.4327  40.9778
    40.9778  41.0739  41.2106  41.2106  41.7836  41.9626  41.9626  42.1552
    42.1864  42.3884  42.4847  42.4847  43.2072  43.2474  43.3613  43.5927
    43.6040  43.8083  43.8838  43.9559  43.9914  44.1370  44.1370  44.1419
    44.2578  44.3878  44.4125  44.8716  44.8716  45.7497  45.8988  45.8988
    46.5989  46.5989  47.5074  47.5074  47.6568  47.6568  49.2695  49.2695
    49.5080  49.5080  52.9311  53.1025  53.2021  56.0119  56.0696  56.3053
    60.8189  61.0593  61.6903  61.8946  61.9394  61.9677  62.4964  62.5392
    62.5392  62.5613  62.6509  62.6515  62.6515

          k = 0.0681 0.0681-0.6129 (  8174 PWs)   bands (ev):

   -41.9769 -41.9768 -41.3794 -41.3794 -41.3793 -41.3793 -41.2786 -41.2786
   -41.2785 -41.2784 -41.2404 -41.2404 -41.2315 -41.2315 -40.8373 -40.8373
    -9.0836  -9.0836  -9.0833  -9.0833  -9.0151  -9.0151  -9.0151  -9.0151
    -8.8695  -8.8695  -8.8695  -8.8695  -8.4272  -8.4272  -7.9980  -7.9979
    -7.9207  -7.9207  -7.4431  -7.4430  -7.3845  -7.3844  -7.1309  -7.1309
    -7.1308  -7.1308  -6.9688  -6.9688  -6.9688  -6.9688  -6.6694  -6.6694
    -6.4519  -6.4519  -6.4340  -6.4339  -6.3517  -6.3517  -6.3516  -6.3516
    -6.1900  -6.1900  -6.1900  -6.1900  -6.1892  -6.1892  -6.1447  -6.1447
    32.2215  32.2215  33.3002  33.3002  33.6235  33.6235  33.6235  33.6235
    33.6536  33.6536  33.6537  33.6537  34.1734  34.1734  34.3281  34.3281
    34.7342  34.7342  34.9159  34.9159  35.0403  35.0403  35.7136  35.7136
    35.7136  35.7136  36.0620  36.0620  36.0621  36.0621  37.6143  37.6143
    37.6818  37.6819  38.5739  38.5739  38.5740  38.5740  38.8912  38.8913
    39.2237  39.2237  39.2238  39.2238  40.1860  40.1860  41.0688  41.0688
    41.1457  41.1457  41.4899  41.4899  41.4899  41.4899  41.9075  41.9075
    41.9076  41.9076  42.7774  42.7775  43.2067  43.2068  43.3938  43.3938
    43.4171  43.4172  43.8185  43.8185  43.9200  43.9201  44.0144  44.0144
    45.0953  45.0954  45.0954  45.0954  45.1137  45.1137  45.8111  45.8111
    45.8111  45.8111  47.5963  47.5963  47.5963  47.5963  49.4788  49.4788
    49.4788  49.4788  54.4935  54.4935  54.6262  54.6262  54.7674  54.7674
    61.2424  61.2425  61.4547  61.4548  62.4184  62.4184  62.4825  62.4825
    63.4021  63.4021  63.4021  63.4022  63.4385

          k = 0.0681 0.2043 0.2043 (  8206 PWs)   bands (ev):

   -42.1814 -41.5786 -41.5786 -41.4324 -41.3467 -41.2995 -41.2985 -41.2985
   -41.2625 -41.2625 -41.2365 -41.2073 -41.1976 -41.1722 -41.1722 -40.6774
    -9.5203  -9.4865  -9.4865  -9.4386  -9.4386  -9.3642  -8.4898  -8.4454
    -8.3767  -8.3767  -8.3668  -8.3384  -8.3074  -8.1714  -8.1445  -7.9181
    -7.7654  -7.7654  -7.5996  -7.4192  -7.4192  -7.2516  -7.1818  -7.1818
    -7.1789  -7.0988  -7.0947  -7.0947  -7.0264  -7.0235  -7.0235  -7.0215
    -6.9216  -6.8215  -6.7681  -6.7681  -6.6263  -6.5499  -6.5499  -6.1175
    -6.0575  -6.0033  -6.0033  -5.9555  -5.9555  -5.8938  -5.8780  -5.8272
    31.3515  31.4884  32.4831  32.5430  32.5950  32.5950  32.6060  32.6060
    33.4986  34.2852  34.2852  34.4460  34.4460  34.4537  34.5705  34.5705
    34.8272  35.1252  35.1806  35.5665  35.8455  35.9653  35.9653  35.9979
    35.9979  36.0489  36.1273  36.3462  36.9738  37.0232  37.0232  37.3399
    37.5648  37.9408  37.9408  38.1276  38.2065  38.3429  38.5559  38.6404
    39.3180  39.3180  39.4290  39.4290  39.5915  40.0272  40.4774  40.4774
    41.3372  41.3932  41.3932  42.1957  42.1957  42.2021  42.3441  42.7030
    42.7030  42.7067  42.7074  42.7257  42.7504  42.7505  43.3093  43.3093
    43.3275  43.6009  43.6009  43.6809  43.8705  43.8716  43.9739  43.9829
    44.8917  45.2139  45.2139  45.4700  45.7412  46.0869  46.0869  46.1403
    46.1403  46.6633  47.3040  47.4234  47.6469  48.9412  49.4865  49.4865
    49.9765  50.2804  50.2804  50.3162  50.3162  57.8698  58.7425  58.7610
    59.3142  60.2011  60.9029  61.0514  61.1667  61.1871  61.1871  61.3591
    61.3591  61.7000  61.7564  61.9587  62.8073

          k = 0.0681 0.2043 0.3405 (  8213 PWs)   bands (ev):

   -42.1288 -41.7138 -41.5556 -41.4174 -41.3923 -41.3209 -41.2926 -41.2874
   -41.2622 -41.2536 -41.2205 -41.2127 -41.2046 -41.1738 -41.0509 -40.7161
    -9.4369  -9.3869  -9.3739  -9.3483  -9.2953  -9.1809  -8.6709  -8.6183
    -8.5918  -8.5358  -8.4999  -8.4824  -8.3590  -8.2351  -8.0558  -8.0520
    -7.8308  -7.6260  -7.5598  -7.4818  -7.3908  -7.3882  -7.2675  -7.2076
    -7.1659  -7.1356  -7.1146  -7.0396  -7.0202  -6.9628  -6.9246  -6.8768
    -6.8033  -6.7775  -6.6424  -6.5634  -6.4655  -6.3630  -6.3567  -6.3247
    -6.1872  -6.0888  -6.0779  -6.0641  -5.9995  -5.9661  -5.8955  -5.8535
    31.6010  31.9472  32.7522  32.8178  32.8693  32.8844  33.0151  33.0369
    33.5744  33.9036  34.2336  34.5202  34.6543  34.6556  34.7198  34.7823
    34.9140  34.9258  35.1390  35.1689  35.1877  35.2284  35.2694  35.8366
    36.0480  36.0518  36.1355  36.2192  36.5504  36.7898  37.1869  37.2719
    37.5720  37.9036  37.9639  38.2807  38.3474  38.3948  38.5859  38.7768
    38.8909  39.3747  40.0564  40.1499  40.2279  40.3795  40.4356  40.6062
    40.7307  40.9714  41.1761  41.6597  41.7853  41.9235  41.9346  42.1890
    42.3905  42.4147  42.5942  42.8439  42.8476  42.8725  43.0760  43.3055
    43.4940  43.7082  43.7126  43.9313  43.9576  43.9884  44.0343  44.3400
    44.3661  44.5938  44.9520  45.0804  45.1163  45.1459  45.3378  46.0209
    46.2210  46.5893  46.6101  47.5298  47.6325  49.1437  49.3037  50.4611
    50.6884  50.8880  51.0260  51.8260  51.8888  56.8012  57.6612  57.9094
    60.3447  60.8204  61.2984  61.5500  61.6201  61.6678  61.7700  61.7890
    61.8643  62.0097  62.1546  62.4793  62.6467

          k = 0.0681 0.2043 0.4767 (  8195 PWs)   bands (ev):

   -42.0524 -41.8409 -41.5231 -41.4387 -41.3968 -41.3463 -41.2837 -41.2723
   -41.2667 -41.2417 -41.2369 -41.2154 -41.1955 -41.1773 -40.9426 -40.7737
    -9.2930  -9.2412  -9.2179  -9.2071  -9.0998  -8.9440  -8.8682  -8.8664
    -8.8332  -8.7671  -8.6109  -8.5400  -8.5400  -8.3620  -8.1260  -7.9189
    -7.8166  -7.6876  -7.5828  -7.4770  -7.3565  -7.3477  -7.2532  -7.2333
    -7.2319  -7.1796  -7.1785  -7.0404  -7.0245  -6.8405  -6.7917  -6.7407
    -6.6637  -6.5830  -6.5816  -6.4679  -6.3755  -6.3468  -6.3114  -6.2226
    -6.2166  -6.1919  -6.1839  -6.1814  -6.0740  -6.0727  -5.9541  -5.9256
    31.9444  32.6220  32.9376  33.1667  33.1813  33.2771  33.2883  33.5326
    33.6303  33.9748  34.3487  34.3796  34.3934  34.4169  34.4332  34.4549
    34.6673  34.7351  34.8549  35.0103  35.1256  35.3655  35.4809  35.4866
    35.8538  35.8880  36.0369  36.1266  36.1341  36.7684  37.1049  37.1913
    37.5493  37.6231  37.9002  38.1685  38.5284  38.7468  38.9413  39.0290
    39.6393  39.7264  39.7636  39.7735  40.1129  40.4211  40.8056  40.9201
    40.9759  41.0202  41.0427  41.2661  41.3046  41.3643  41.4066  41.7764
    41.9959  42.0288  42.3714  42.7900  42.9032  43.0225  43.1208  43.2140
    43.4050  43.4887  43.5107  43.9493  43.9885  44.0306  44.0379  44.2335
    44.2923  44.5004  44.7728  44.9588  45.0966  45.2047  45.5711  45.9324
    45.9556  46.0252  46.2665  47.1055  47.9410  48.7468  49.7410  50.4081
    51.1265  51.3793  52.5684  53.3508  53.5119  55.5120  56.3148  56.5993
    60.9980  61.6315  61.7336  61.8952  62.1061  62.3494  62.3805  62.4864
    62.5688  62.6221  62.6576  62.6760  62.7952

          k = 0.0681 0.2043-0.6129 (  8184 PWs)   bands (ev):

   -41.9552 -41.9552 -41.4833 -41.4833 -41.3723 -41.3723 -41.2745 -41.2744
   -41.2549 -41.2548 -41.2284 -41.2283 -41.1841 -41.1840 -40.8496 -40.8495
    -9.0991  -9.0991  -9.0542  -9.0542  -9.0538  -9.0538  -8.9991  -8.9991
    -8.8657  -8.8657  -8.6658  -8.6658  -8.5564  -8.5564  -7.9849  -7.9849
    -7.7607  -7.7607  -7.5227  -7.5227  -7.3609  -7.3609  -7.2938  -7.2938
    -7.2210  -7.2210  -7.0330  -7.0329  -6.8724  -6.8723  -6.8124  -6.8123
    -6.5328  -6.5328  -6.4253  -6.4253  -6.3836  -6.3836  -6.3122  -6.3122
    -6.2105  -6.2105  -6.1786  -6.1786  -6.0536  -6.0536  -6.0380  -6.0380
    32.3912  32.3913  33.4473  33.4473  33.5897  33.5897  33.7184  33.7184
    33.7992  33.7992  33.8101  33.8101  34.0236  34.0236  34.2525  34.2525
    34.9605  34.9605  34.9928  34.9928  35.2639  35.2639  35.5090  35.5090
    35.6102  35.6102  35.8444  35.8444  36.5458  36.5458  37.1083  37.1083
    37.7440  37.7440  37.8555  37.8555  38.7404  38.7404  39.3093  39.3093
    39.5362  39.5362  39.8171  39.8171  40.5052  40.5052  40.5459  40.5459
    40.7241  40.7241  41.0753  41.0753  41.5101  41.5101  41.7556  41.7556
    41.8818  41.8818  42.1272  42.1272  42.9858  42.9859  43.2493  43.2494
    43.3017  43.3018  43.6828  43.6828  43.9586  43.9586  44.1757  44.1757
    44.3351  44.3351  44.8233  44.8233  45.4417  45.4417  45.7482  45.7482
    45.8665  45.8666  46.4324  46.4324  48.3276  48.3276  50.1450  50.1450
    51.4184  51.4184  54.0788  54.0788  54.8587  54.8587  55.1020  55.1020
    61.3600  61.3600  61.9391  61.9391  62.5142  62.5143  62.7183  62.7183
    63.2211  63.2211  63.3428  63.3429  63.6211

          k = 0.0681 0.3405 0.3405 (  8208 PWs)   bands (ev):

   -42.0785 -41.6836 -41.6836 -41.4592 -41.4028 -41.3091 -41.3090 -41.2855
   -41.2539 -41.2539 -41.2358 -41.2099 -41.1664 -41.0607 -41.0607 -40.7515
    -9.3892  -9.2867  -9.2867  -9.2235  -9.2235  -8.9698  -8.7617  -8.7013
    -8.7013  -8.6862  -8.6447  -8.5919  -8.4898  -8.1675  -7.9077  -7.8344
    -7.7743  -7.7743  -7.5871  -7.5871  -7.5266  -7.3398  -7.2668  -7.2633
    -7.2633  -7.1700  -7.1700  -7.1160  -7.1160  -7.0975  -6.7953  -6.7509
    -6.6345  -6.5861  -6.5861  -6.5655  -6.5026  -6.3542  -6.3450  -6.1918
    -6.1918  -6.1261  -6.1261  -6.0817  -6.0817  -6.0324  -5.8709  -5.8335
    31.9006  32.3381  32.9831  33.0306  33.2410  33.2410  33.2599  33.2599
    33.6851  33.6851  34.2065  34.4778  34.7680  34.7868  34.7868  34.7951
    34.9740  34.9740  35.1361  35.1459  35.1459  35.2438  35.3561  35.5202
    35.5202  35.6993  35.7822  36.1318  36.6101  36.6326  36.6326  36.8937
    37.6200  38.3253  38.3253  38.4336  38.6177  38.7907  38.9237  39.0825
    39.0826  39.1115  39.1117  40.3064  40.3064  40.3880  40.6445  40.7961
    40.7961  41.0103  41.0103  41.3122  41.4200  41.4200  41.6925  41.6925
    41.9251  42.2938  42.5202  42.5202  42.7503  42.7503  42.7544  42.9090
    43.4601  43.5308  43.5312  43.7628  43.9608  43.9626  44.0157  44.2335
    44.3354  44.6118  44.6119  44.9039  44.9039  45.3057  45.3057  45.3384
    45.3384  45.6940  46.8024  47.6067  48.0771  49.8532  50.6009  50.6009
    51.8469  51.8469  52.2468  52.4380  52.4380  55.9122  56.9824  58.3891
    59.9147  61.3403  61.7021  62.0533  62.1039  62.1039  62.1293  62.1337
    62.1996  62.1996  62.2394  62.6363  63.2106

          k = 0.0681 0.3405 0.4767 (  8193 PWs)   bands (ev):

   -42.0056 -41.8042 -41.6403 -41.5251 -41.3827 -41.3336 -41.2928 -41.2764
   -41.2588 -41.2542 -41.2428 -41.2190 -41.1284 -41.0763 -40.9601 -40.8043
    -9.2810  -9.1617  -9.1431  -9.1229  -9.0563  -8.9226  -8.8768  -8.8394
    -8.7978  -8.7328  -8.7092  -8.6689  -8.6660  -8.0937  -8.0638  -7.7685
    -7.7428  -7.7420  -7.5275  -7.4703  -7.4624  -7.4245  -7.3718  -7.3694
    -7.3636  -7.3175  -7.2369  -7.1284  -7.1258  -6.9448  -6.8487  -6.7250
    -6.6203  -6.5519  -6.5265  -6.4684  -6.4111  -6.3732  -6.2528  -6.2071
    -6.2046  -6.1840  -6.1307  -6.1164  -6.0506  -6.0463  -5.8880  -5.8610
    32.2494  32.9770  33.1490  33.2809  33.3493  33.5926  33.5935  33.6467
    33.6702  33.7361  34.2255  34.4543  34.4841  34.5512  34.5822  34.6504
    34.6690  34.9657  35.0362  35.0363  35.1542  35.1808  35.3366  35.5845
    35.7154  35.8245  35.9918  36.0991  36.1956  36.4306  36.5487  36.6793
    37.7800  38.0159  38.1245  38.3585  38.4852  38.7654  39.1628  39.2144
    39.3347  39.6918  39.7147  39.9077  40.2638  40.4055  40.4860  40.8157
    40.8794  40.9811  41.0047  41.0099  41.0970  41.2173  41.4936  41.5604
    41.6525  41.8585  42.1036  42.2747  42.6850  42.7195  42.7496  42.8186
    42.9746  43.2749  43.2843  43.3553  43.7981  43.9986  44.0607  44.1105
    44.2395  44.3364  44.6552  44.6750  44.6841  44.6997  44.8210  45.2659
    45.9405  46.1894  46.7487  47.3949  48.6907  50.0436  50.5099  51.6130
    52.0617  53.0059  53.1084  53.2664  54.1820  54.7837  55.9236  57.3971
    60.9537  61.4716  62.0055  62.1062  62.2777  62.3823  62.4979  62.6049
    62.8751  62.9825  63.0700  63.1087  63.3358

          k = 0.0681 0.3405-0.6129 (  8186 PWs)   bands (ev):

   -41.9129 -41.9129 -41.5865 -41.5865 -41.3589 -41.3588 -41.2738 -41.2738
   -41.2670 -41.2669 -41.2306 -41.2306 -41.0986 -41.0986 -40.8742 -40.8742
    -9.1213  -9.1213  -9.0074  -9.0074  -9.0028  -9.0028  -8.9727  -8.9727
    -8.8634  -8.8634  -8.7193  -8.7193  -8.4118  -8.4118  -7.9292  -7.9291
    -7.5935  -7.5935  -7.5636  -7.5635  -7.4518  -7.4517  -7.3601  -7.3600
    -7.3576  -7.3576  -7.1562  -7.1562  -7.1340  -7.1340  -6.7280  -6.7280
    -6.6667  -6.6667  -6.3641  -6.3641  -6.3224  -6.3224  -6.2657  -6.2657
    -6.2580  -6.2580  -6.1726  -6.1726  -5.9481  -5.9481  -5.9339  -5.9339
    32.6646  32.6646  33.5155  33.5156  33.7850  33.7850  33.8448  33.8448
    33.9756  33.9756  34.0382  34.0382  34.0666  34.0666  34.1583  34.1583
    34.8420  34.8420  35.3375  35.3375  35.4494  35.4494  35.5211  35.5211
    35.6053  35.6053  35.6197  35.6197  36.5624  36.5624  36.9007  36.9008
    37.2914  37.2914  38.0720  38.0720  38.8796  38.8796  39.3155  39.3155
    39.8300  39.8300  40.0369  40.0369  40.2664  40.2664  40.3168  40.3168
    40.8437  40.8437  40.8644  40.8644  41.0089  41.0089  41.6165  41.6165
    41.6624  41.6624  42.0404  42.0404  42.4617  42.4617  42.9879  42.9879
    43.0266  43.0266  43.4328  43.4329  43.5971  43.5971  44.0742  44.0742
    44.3139  44.3139  44.4124  44.4124  44.5766  44.5766  45.0185  45.0185
    46.4425  46.4425  46.9088  46.9088  49.3807  49.3807  51.1378  51.1378
    53.3237  53.3237  53.4760  53.4760  54.6492  54.6492  55.8656  55.8656
    61.7281  61.7282  62.4684  62.4684  62.4730  62.4730  62.6374  62.6374
    62.8747  62.8748  63.1919  63.1919  63.2778

          k = 0.0681 0.4767 0.4767 (  8193 PWs)   bands (ev):

   -41.9378 -41.7514 -41.7514 -41.6084 -41.3633 -41.3161 -41.3161 -41.2744
   -41.2671 -41.2485 -41.2485 -41.2268 -41.0711 -40.9871 -40.9871 -40.8503
    -9.2093  -9.0571  -9.0571  -9.0011  -9.0011  -8.9222  -8.9221  -8.9017
    -8.8836  -8.8574  -8.7851  -8.7547  -8.4295  -7.9675  -7.7923  -7.7923
    -7.7209  -7.6945  -7.6945  -7.5529  -7.4878  -7.4771  -7.4771  -7.4577
    -7.4277  -7.2443  -7.2443  -7.1994  -7.1526  -7.1509  -7.1509  -6.7233
    -6.6227  -6.4646  -6.4646  -6.4179  -6.3587  -6.2926  -6.2168  -6.2114
    -6.2114  -6.2083  -6.1889  -6.1889  -5.9412  -5.9412  -5.8618  -5.8420
    32.5906  33.3140  33.3140  33.3606  33.5727  33.6437  33.8781  33.8781
    33.9168  33.9168  34.1134  34.3000  34.4593  34.5237  34.5238  34.5966
    34.6115  35.2127  35.2428  35.2428  35.3225  35.3225  35.4629  35.4772
    35.4772  35.6512  35.9026  35.9840  35.9840  36.1871  36.3364  37.0169
    37.1417  38.1542  38.6233  38.8524  38.9054  38.9054  39.0270  39.1598
    39.1657  39.1657  39.5075  39.5075  39.8646  39.8646  40.4051  40.8074
    40.8526  41.2233  41.2233  41.2490  41.2490  41.2784  41.3064  41.4243
    41.7309  41.9461  41.9461  42.3248  42.3248  42.3392  42.3692  42.3692
    42.5934  42.8490  42.9707  42.9751  43.2170  43.7409  43.7409  43.8457
    44.0805  44.2233  44.3663  44.3663  44.4003  44.6682  44.7453  44.7453
    46.6720  46.6720  46.9924  47.4294  49.5983  51.3731  51.3731  51.3863
    52.8779  52.8779  53.8159  54.4513  54.8377  54.8377  55.1437  57.6230
    60.5506  61.6780  61.8598  62.4308  62.4308  62.6343  62.6343  62.6653
    62.8922  62.9904  62.9904  63.4114  63.6380

          k = 0.0681 0.4767-0.6129 (  8178 PWs)   bands (ev):

   -41.8519 -41.8518 -41.6851 -41.6850 -41.3404 -41.3404 -41.2958 -41.2957
   -41.2572 -41.2571 -41.2372 -41.2372 -41.0240 -41.0239 -40.9114 -40.9114
    -9.0859  -9.0859  -8.9634  -8.9634  -8.9483  -8.9483  -8.9455  -8.9455
    -8.8733  -8.8733  -8.8715  -8.8715  -8.1184  -8.1184  -7.8428  -7.8428
    -7.6233  -7.6233  -7.5995  -7.5995  -7.4935  -7.4935  -7.4731  -7.4730
    -7.3547  -7.3547  -7.3525  -7.3525  -7.2370  -7.2370  -6.9328  -6.9328
    -6.5353  -6.5353  -6.3289  -6.3289  -6.2916  -6.2916  -6.2702  -6.2702
    -6.2382  -6.2381  -6.1874  -6.1874  -5.8790  -5.8790  -5.8697  -5.8697
    32.9463  32.9463  33.3814  33.3814  34.0309  34.0309  34.0429  34.0429
    34.1392  34.1392  34.1764  34.1764  34.2185  34.2185  34.3613  34.3613
    34.5898  34.5898  35.5326  35.5326  35.5872  35.5872  35.5890  35.5890
    35.6497  35.6497  35.8409  35.8409  36.0550  36.0551  36.1009  36.1009
    37.9730  37.9730  38.7019  38.7019  38.8842  38.8842  39.1590  39.1590
    39.2024  39.2024  39.3958  39.3958  39.8103  39.8103  40.2226  40.2226
    40.9515  40.9516  41.1415  41.1415  41.5420  41.5420  41.8313  41.8313
    41.8530  41.8531  41.8718  41.8718  41.8748  41.8748  42.6373  42.6373
    42.6375  42.6375  42.8790  42.8790  43.1346  43.1347  43.4010  43.4010
    44.1918  44.1919  44.4141  44.4141  44.4147  44.4148  44.7087  44.7087
    46.9581  46.9581  47.1854  47.1854  50.5275  50.5275  52.2179  52.2179
    52.6550  52.6550  54.0887  54.0888  55.0581  55.0581  56.5073  56.5073
    61.4124  61.4124  61.7885  61.7885  62.1592  62.1593  62.9036  62.9036
    62.9265  62.9265  63.4935  63.5696  63.5696

          k = 0.0681-0.6129-0.6129 (  8184 PWs)   bands (ev):

   -41.7748 -41.7748 -41.7748 -41.7747 -41.3187 -41.3186 -41.3186 -41.3186
   -41.2467 -41.2466 -41.2466 -41.2466 -40.9614 -40.9614 -40.9614 -40.9613
    -8.9999  -8.9999  -8.9999  -8.9999  -8.9418  -8.9418  -8.9418  -8.9417
    -8.8984  -8.8984  -8.8984  -8.8984  -7.8000  -7.8000  -7.8000  -7.8000
    -7.7315  -7.7315  -7.7315  -7.7314  -7.5900  -7.5900  -7.5900  -7.5900
    -7.3139  -7.3139  -7.3138  -7.3138  -7.1430  -7.1430  -7.1430  -7.1430
    -6.4220  -6.4220  -6.4220  -6.4219  -6.2398  -6.2398  -6.2398  -6.2398
    -6.2285  -6.2285  -6.2285  -6.2284  -5.8517  -5.8517  -5.8517  -5.8517
    33.1886  33.1886  33.1886  33.1886  34.1511  34.1511  34.1511  34.1511
    34.1730  34.1730  34.1730  34.1730  34.3027  34.3027  34.3027  34.3027
    35.1495  35.1496  35.1496  35.1496  35.7259  35.7259  35.7259  35.7259
    35.7528  35.7528  35.7528  35.7528  35.7860  35.7861  35.7861  35.7861
    38.8416  38.8416  38.8416  38.8416  38.9001  38.9001  38.9001  38.9001
    39.0872  39.0872  39.0872  39.0872  39.5256  39.5256  39.5256  39.5256
    41.3105  41.3106  41.3106  41.3106  41.8254  41.8254  41.8254  41.8254
    42.0550  42.0550  42.0550  42.0550  42.2050  42.2050  42.2050  42.2051
    42.2417  42.2417  42.2417  42.2418  43.0042  43.0042  43.0042  43.0042
    44.2984  44.2984  44.2984  44.2984  44.5247  44.5247  44.5247  44.5247
    47.2111  47.2111  47.2111  47.2111  51.6484  51.6485  51.6485  51.6485
    53.2413  53.2413  53.2413  53.2413  56.3023  56.3023  56.3023  56.3023
    61.1514  61.1514  61.1514  61.1514  62.5675  62.5675  62.5675  62.5675
    63.2618  63.2618  63.2618  63.2618  64.4183

          k = 0.2043 0.2043 0.2043 (  8226 PWs)   bands (ev):

   -42.1551 -41.5669 -41.5669 -41.5669 -41.3397 -41.3397 -41.3397 -41.2328
   -41.2328 -41.2328 -41.2223 -41.1934 -41.1726 -41.1726 -41.1726 -40.6960
    -9.4685  -9.4685  -9.4685  -9.3260  -9.3260  -9.3260  -8.6105  -8.4810
    -8.4810  -8.4810  -8.4059  -8.4059  -8.2284  -8.2284  -8.0492  -7.9047
    -7.9047  -7.9047  -7.4782  -7.4781  -7.4781  -7.2820  -7.2820  -7.1739
    -7.1739  -7.1739  -7.0201  -7.0201  -7.0201  -6.9632  -6.9632  -6.9632
    -6.8463  -6.7949  -6.7949  -6.7949  -6.4411  -6.4411  -6.4411  -6.2588
    -6.0793  -6.0793  -6.0793  -5.9369  -5.9369  -5.9369  -5.8667  -5.8667
    31.5997  31.5997  32.7194  32.7194  32.7194  32.7488  32.7488  32.7488
    33.7073  34.4008  34.4008  34.4008  34.4792  34.4792  34.4792  34.8015
    34.8424  34.8424  34.8424  35.8154  35.8154  35.8442  35.8442  35.8442
    35.8896  35.8896  35.8896  36.4763  36.4763  36.4763  37.3178  37.3178
    37.6862  37.6862  38.3605  38.3605  38.3605  38.4756  38.5768  38.8519
    38.8519  38.8519  39.4164  39.4164  39.4164  40.6560  40.6560  40.6560
    41.2366  41.2366  41.2366  42.1147  42.1147  42.1147  42.3208  42.3208
    42.3208  42.4724  42.4724  42.7718  42.7718  42.7718  43.6976  43.6976
    43.6976  43.8683  43.8683  43.8866  43.8866  43.9863  43.9863  43.9863
    44.0024  44.1576  44.1576  44.1576  46.0959  46.0959  46.0959  46.1763
    46.1763  46.6581  46.6581  46.6581  48.7281  48.7281  48.7281  50.5757
    50.5757  50.5757  51.1661  51.1661  51.1661  56.9629  59.4547  59.4547
    59.6942  59.6942  59.9349  60.7658  61.4172  61.4172  61.4172  61.7722
    61.7722  61.7722  62.7771  62.7771  62.7771

          k = 0.2043 0.2043 0.3405 (  8194 PWs)   bands (ev):

   -42.1037 -41.6986 -41.5443 -41.5443 -41.3842 -41.3842 -41.3264 -41.2416
   -41.2260 -41.2100 -41.2100 -41.1944 -41.1738 -41.1738 -41.0553 -40.7330
    -9.3876  -9.3876  -9.3662  -9.2515  -9.1538  -9.1538  -8.7401  -8.6577
    -8.6577  -8.5703  -8.5209  -8.4944  -8.3280  -8.1332  -8.1332  -8.0668
    -7.9101  -7.6938  -7.6289  -7.4922  -7.4922  -7.3213  -7.3110  -7.2566
    -7.2566  -7.2172  -7.0387  -6.9758  -6.9148  -6.9148  -6.8279  -6.8279
    -6.8159  -6.8159  -6.6600  -6.5790  -6.4724  -6.3027  -6.3027  -6.2717
    -6.1823  -6.1823  -6.1292  -6.0524  -5.9485  -5.9485  -5.9442  -5.8717
    31.8210  32.0793  32.9782  32.9782  33.0125  33.0125  33.1177  33.1707
    33.7195  34.0890  34.4393  34.4393  34.4762  34.5379  34.6714  34.6714
    34.9146  35.1930  35.1930  35.2403  35.2403  35.2826  35.3850  35.6163
    35.7043  35.9362  35.9362  36.3378  36.3378  36.9050  37.0386  37.1144
    37.2811  37.9878  38.2599  38.2599  38.3447  38.3447  38.4592  38.8153
    39.0541  39.3439  39.5860  40.0949  40.0949  40.1443  40.1443  40.8362
    40.8362  41.0038  41.4376  41.5047  41.9365  41.9365  42.0309  42.1496
    42.1496  42.5384  42.6583  42.7225  42.9887  42.9949  42.9949  43.0547
    43.0619  43.0619  43.6944  43.6966  43.7276  43.8573  43.9414  44.2113
    44.2113  44.6225  44.6225  44.6562  45.0174  45.3516  45.6631  46.1392
    46.1392  46.3306  46.7581  46.7581  47.9986  47.9986  50.2540  51.0740
    51.0740  51.8438  51.8438  52.2636  52.5897  55.9115  58.3790  58.4945
    60.3706  60.7236  60.7265  61.0950  61.7598  61.8780  62.0088  62.0088
    62.0649  62.0649  62.4748  62.6213  63.4895

          k = 0.2043 0.2043 0.4767 (  8188 PWs)   bands (ev):

   -42.0290 -41.8225 -41.5124 -41.5124 -41.4297 -41.4297 -41.3081 -41.2637
   -41.2172 -41.1997 -41.1936 -41.1936 -41.1768 -41.1768 -40.9508 -40.7883
    -9.2512  -9.2512  -9.2160  -9.1466  -8.9325  -8.9325  -8.8791  -8.8660
    -8.8660  -8.7877  -8.6098  -8.5633  -8.4014  -8.4014  -8.2140  -7.8923
    -7.8831  -7.7564  -7.4888  -7.4646  -7.4646  -7.4082  -7.3374  -7.3374
    -7.3307  -7.2978  -7.1337  -6.8785  -6.8785  -6.8328  -6.8328  -6.7342
    -6.6906  -6.6384  -6.6384  -6.4842  -6.3805  -6.3111  -6.3111  -6.2207
    -6.2129  -6.1727  -6.1727  -6.1243  -6.0581  -5.9919  -5.9918  -5.9187
    32.1495  32.7560  33.1073  33.3664  33.3664  33.3752  33.3752  33.5492
    33.7915  34.1981  34.2003  34.2003  34.4563  34.4940  34.4940  34.5658
    34.6427  35.0118  35.0118  35.0523  35.1356  35.2046  35.3624  35.7214
    35.7214  35.9736  35.9736  36.2100  36.2100  36.2939  37.0451  37.1089
    37.2387  37.5369  37.8191  37.8192  38.8170  38.8170  38.9655  38.9655
    39.2499  39.4955  39.6008  40.0732  40.0821  40.5924  40.8582  40.9311
    40.9311  41.0110  41.0110  41.0331  41.0331  41.4320  41.5368  41.5847
    41.5847  41.9533  42.3412  42.5045  42.5045  42.8219  43.0865  43.0942
    43.4360  43.4872  43.7649  43.7669  43.7669  43.8349  44.0792  44.1919
    44.3427  44.3427  44.3620  44.8814  45.2888  45.3423  45.3423  46.1956
    46.2906  46.2906  46.5124  46.5124  47.2847  47.2847  51.6235  51.6235
    51.7836  52.1527  52.1527  53.9538  54.0654  54.6682  56.9869  57.1425
    60.6998  61.4849  61.8707  61.9391  62.3626  62.4323  62.4323  62.4598
    62.4833  62.5787  62.8297  62.8297  63.1100

          k = 0.2043 0.2043-0.6129 (  8200 PWs)   bands (ev):

   -41.9340 -41.9340 -41.4734 -41.4734 -41.4733 -41.4732 -41.2865 -41.2865
   -41.2079 -41.2079 -41.1831 -41.1830 -41.1830 -41.1829 -40.8613 -40.8612
    -9.0718  -9.0718  -9.0718  -9.0718  -9.0215  -9.0215  -9.0188  -9.0188
    -8.6757  -8.6756  -8.6756  -8.6756  -8.6047  -8.6047  -8.0674  -8.0673
    -7.6855  -7.6855  -7.5887  -7.5887  -7.4095  -7.4095  -7.4095  -7.4095
    -7.2277  -7.2276  -7.0267  -7.0267  -6.8521  -6.8521  -6.8521  -6.8521
    -6.4644  -6.4644  -6.4644  -6.4644  -6.4361  -6.4360  -6.3325  -6.3325
    -6.2051  -6.2051  -6.0672  -6.0672  -6.0672  -6.0672  -6.0048  -6.0048
    32.5805  32.5805  33.5751  33.5751  33.7965  33.7965  33.7965  33.7965
    33.8760  33.8760  33.8760  33.8760  33.9150  33.9150  34.5080  34.5080
    34.8090  34.8090  35.0200  35.0200  35.4706  35.4706  35.4707  35.4707
    35.6069  35.6069  36.1656  36.1657  36.1657  36.1657  37.1817  37.1817
    37.1912  37.1912  38.0603  38.0603  38.0603  38.0603  39.7486  39.7486
    39.7486  39.7487  39.9895  39.9895  40.2091  40.2091  40.4325  40.4325
    40.7481  40.7481  40.9629  40.9629  41.2803  41.2803  41.2803  41.2803
    41.8218  41.8218  41.8218  41.8218  43.1334  43.1335  43.2778  43.2778
    43.3324  43.3325  43.5670  43.5670  43.8027  43.8027  44.2339  44.2339
    44.2339  44.2339  44.3664  44.3664  45.8248  45.8248  46.0088  46.0088
    46.0088  46.0088  46.6698  46.6698  46.6698  46.6698  52.0429  52.0429
    52.0429  52.0429  53.2720  53.2720  55.5412  55.5412  55.5993  55.5993
    61.0790  61.0790  62.4035  62.4036  62.7380  62.7380  63.0130  63.0560
    63.0560  63.0560  63.0560  63.3558  63.3560

          k = 0.2043 0.3405 0.3405 (  8202 PWs)   bands (ev):

   -42.0545 -41.6689 -41.6689 -41.5225 -41.4495 -41.3688 -41.3688 -41.2668
   -41.2051 -41.2051 -41.1898 -41.1744 -41.1654 -41.0645 -41.0645 -40.7670
    -9.3388  -9.2908  -9.2908  -9.1028  -9.1028  -8.9560  -8.8064  -8.7430
    -8.7244  -8.7244  -8.5723  -8.5506  -8.3165  -8.2835  -8.1346  -7.8673
    -7.8673  -7.7467  -7.7064  -7.7064  -7.5779  -7.4156  -7.4156  -7.3775
    -7.2203  -7.0175  -7.0175  -6.9826  -6.9826  -6.8587  -6.8523  -6.8228
    -6.6995  -6.6645  -6.6035  -6.6035  -6.5170  -6.3107  -6.2234  -6.1889
    -6.1889  -6.1591  -6.1591  -6.0532  -6.0531  -5.9929  -5.9274  -5.8753
    32.1494  32.4357  33.2126  33.2297  33.3483  33.3483  33.4012  33.4012
    33.8912  33.8913  34.2489  34.4090  34.7202  34.7202  34.7321  34.7760
    35.0004  35.1319  35.1319  35.1454  35.2499  35.2499  35.4849  35.4849
    35.5568  35.6783  35.7199  36.0555  36.4890  36.4890  36.8527  37.1298
    37.1996  38.0723  38.1894  38.1894  38.3437  38.4831  38.5343  38.5343
    38.7931  39.0698  39.6606  39.9513  39.9513  40.2526  40.2526  40.3837
    41.1296  41.4522  41.4522  41.5555  41.6788  41.6788  41.9469  42.0632
    42.1321  42.2161  42.2161  42.4580  42.4580  42.6095  42.7755  42.7755
    42.8202  43.4793  43.5533  43.5855  43.6377  43.8043  43.8817  43.8817
    43.9440  44.7723  44.9124  44.9124  44.9542  45.2129  45.2129  45.8464
    45.8464  46.3232  46.4458  46.9551  46.9891  49.4744  49.4744  51.7124
    52.8806  52.8806  53.0557  53.1351  53.1351  54.9026  58.1907  59.0765
    60.1205  60.6536  60.8609  61.5122  61.8468  61.8468  61.8817  62.4400
    62.4400  62.4902  63.1779  63.3438  63.3438

          k = 0.2043 0.3405 0.4767 (  8175 PWs)   bands (ev):

   -41.9832 -41.7865 -41.6265 -41.5138 -41.4918 -41.4123 -41.3474 -41.2942
   -41.1992 -41.1905 -41.1900 -41.1765 -41.1289 -41.0792 -40.9675 -40.8177
    -9.2339  -9.1707  -9.1496  -9.0338  -8.9132  -8.9067  -8.8779  -8.8714
    -8.7645  -8.7384  -8.7122  -8.6379  -8.4809  -8.2178  -8.1475  -8.0089
    -7.9033  -7.6666  -7.6121  -7.6066  -7.5743  -7.5737  -7.5093  -7.4916
    -7.2072  -7.1902  -7.0638  -6.9724  -6.9438  -6.8911  -6.8187  -6.7459
    -6.6378  -6.6243  -6.5110  -6.4612  -6.4089  -6.3897  -6.2712  -6.2223
    -6.2054  -6.1522  -6.0977  -6.0678  -6.0570  -6.0402  -5.9379  -5.8956
    32.4873  33.0752  33.3625  33.4961  33.5656  33.6990  33.7000  33.7176
    33.9120  33.9498  34.0877  34.5613  34.5682  34.6087  34.7308  34.7513
    34.8330  34.8361  35.0338  35.0499  35.0764  35.4333  35.4999  35.5776
    35.5784  35.8401  35.9465  35.9604  36.1862  36.5517  36.5710  36.6508
    37.2491  37.7845  37.8376  37.9664  38.0278  38.7453  38.7611  38.8735
    38.9454  39.1209  39.1383  39.6801  40.3368  40.4985  40.6267  40.7401
    40.9160  41.0062  41.0255  41.0874  41.3280  41.3363  41.3926  41.6975
    41.8074  41.9123  42.2408  42.3161  42.3613  42.5775  42.8619  42.8774
    43.3177  43.3190  43.3298  43.5989  43.7999  43.8132  44.0021  44.0361
    44.0772  44.0909  44.1177  44.8650  45.0575  45.0761  45.7413  45.7433
    45.8701  46.0484  46.3379  46.8387  47.0171  48.6487  50.9539  52.4190
    53.2831  53.5260  53.7209  53.8099  54.5131  54.6719  57.1628  57.9803
    60.8826  61.0995  61.5163  61.6346  61.9285  62.1752  62.7162  62.9548
    63.0620  63.2262  63.2649  63.3817  63.4680

          k = 0.2043 0.3405-0.6129 (  8168 PWs)   bands (ev):

   -41.8927 -41.8926 -41.5739 -41.5739 -41.4542 -41.4542 -41.3218 -41.3218
   -41.1936 -41.1936 -41.1814 -41.1814 -41.1004 -41.1004 -40.8848 -40.8848
    -9.0844  -9.0844  -9.0229  -9.0229  -8.9702  -8.9701  -8.9558  -8.9558
    -8.7064  -8.7064  -8.6990  -8.6990  -8.4367  -8.4367  -8.0761  -8.0760
    -7.8187  -7.8187  -7.5909  -7.5909  -7.5785  -7.5784  -7.3934  -7.3934
    -7.2702  -7.2702  -7.1391  -7.1391  -6.9165  -6.9165  -6.6848  -6.6847
    -6.6314  -6.6314  -6.3996  -6.3995  -6.3788  -6.3788  -6.2893  -6.2893
    -6.2384  -6.2384  -6.1000  -6.1000  -5.9814  -5.9814  -5.9508  -5.9508
    32.8891  32.8891  33.7513  33.7513  33.8774  33.8774  33.9375  33.9375
    34.0232  34.0232  34.1131  34.1131  34.1448  34.1448  34.4710  34.4710
    34.9797  34.9797  35.0989  35.0989  35.4342  35.4342  35.4655  35.4655
    35.7352  35.7352  35.9046  35.9046  36.4873  36.4874  36.5775  36.5775
    37.3556  37.3556  37.4627  37.4627  38.2120  38.2121  39.2680  39.2680
    39.4582  39.4582  39.8211  39.8211  39.8882  39.8882  39.9597  39.9597
    41.0326  41.0326  41.1969  41.1969  41.2641  41.2642  41.6413  41.6413
    41.6973  41.6973  41.7586  41.7586  42.9632  42.9632  43.0726  43.0726
    43.1442  43.1442  43.3527  43.3528  43.7206  43.7206  43.8009  43.8009
    44.1543  44.1543  44.4785  44.4785  45.2290  45.2290  45.4455  45.4455
    46.1379  46.1379  46.4522  46.4522  47.7980  47.7980  52.3871  52.3871
    53.0035  53.0035  53.9299  53.9299  55.8816  55.8816  56.3971  56.3971
    61.1602  61.1602  62.4219  62.4219  62.4521  62.4521  62.4945  62.4946
    62.7539  62.7539  63.3117  63.3118  63.7604

          k = 0.2043 0.4767 0.4767 (  8193 PWs)   bands (ev):

   -41.9169 -41.7348 -41.7348 -41.5951 -41.4627 -41.3880 -41.3880 -41.3266
   -41.1872 -41.1872 -41.1854 -41.1772 -41.0737 -40.9932 -40.9932 -40.8617
    -9.1608  -9.0583  -9.0583  -8.9015  -8.8936  -8.8936  -8.8929  -8.8929
    -8.8744  -8.8144  -8.7415  -8.5975  -8.4502  -8.1406  -8.0071  -7.8611
    -7.8611  -7.8521  -7.8521  -7.7111  -7.7053  -7.7053  -7.6345  -7.3852
    -7.2551  -7.1366  -7.0191  -7.0191  -7.0053  -7.0053  -6.9441  -6.6309
    -6.6283  -6.4832  -6.4614  -6.4614  -6.3975  -6.3139  -6.2529  -6.2529
    -6.1858  -6.1805  -6.1805  -6.1453  -5.9683  -5.9683  -5.9150  -5.8872
    32.8440  33.5619  33.5619  33.5995  33.6494  33.8685  33.9875  33.9875
    34.0684  34.1053  34.1053  34.4791  34.6102  34.6768  34.6768  34.8541
    34.8769  35.1960  35.1960  35.1989  35.2091  35.2646  35.2646  35.6298
    35.6298  35.6463  35.7777  35.9711  35.9711  36.2911  36.4676  36.7562
    37.0256  37.5261  38.0466  38.2475  38.2475  38.5285  38.5504  38.5504
    38.6902  38.8302  38.8302  38.9304  39.8062  39.8062  39.9097  40.4819
    41.1391  41.2529  41.2529  41.3121  41.3795  41.7576  41.8525  41.8865
    41.8865  42.2310  42.3254  42.3254  42.4345  42.4345  42.7784  42.7784
    42.7828  43.0283  43.0891  43.2289  43.3968  43.7715  43.7715  43.8376
    43.9620  43.9620  44.1206  44.2446  44.9415  44.9701  45.0527  45.0527
    46.2826  46.2826  46.5185  46.9064  47.9820  50.0321  50.0321  52.6195
    53.2920  54.5075  54.5075  55.1119  55.3840  55.3840  56.6431  58.2757
    60.5707  61.2496  61.5090  61.8463  61.8463  62.0454  62.4799  62.4799
    62.9386  63.5241  63.5560  63.5562  63.6017

          k = 0.2043 0.4767-0.6129 (  8172 PWs)   bands (ev):

   -41.8329 -41.8329 -41.6700 -41.6699 -41.4273 -41.4273 -41.3587 -41.3586
   -41.1850 -41.1849 -41.1803 -41.1803 -41.0285 -41.0285 -40.9204 -40.9204
    -9.0420  -9.0419  -8.9669  -8.9669  -8.9290  -8.9289  -8.8785  -8.8784
    -8.8342  -8.8342  -8.7408  -8.7407  -8.1604  -8.1604  -8.0133  -8.0133
    -7.8866  -7.8866  -7.7578  -7.7578  -7.7446  -7.7446  -7.5577  -7.5577
    -7.1950  -7.1950  -7.0858  -7.0858  -6.9844  -6.9844  -6.8107  -6.8106
    -6.5357  -6.5357  -6.3238  -6.3238  -6.3105  -6.3105  -6.3090  -6.3089
    -6.2668  -6.2668  -6.1567  -6.1567  -5.9249  -5.9249  -5.9107  -5.9107
    33.1985  33.1985  33.6350  33.6350  34.0805  34.0805  34.2527  34.2527
    34.2902  34.2902  34.3970  34.3970  34.4008  34.4008  34.4246  34.4246
    34.8052  34.8052  35.4710  35.4710  35.5121  35.5121  35.5554  35.5554
    35.5692  35.5692  36.0104  36.0104  36.0597  36.0597  36.0729  36.0729
    37.4492  37.4492  38.0128  38.0128  38.2644  38.2644  38.6412  38.6412
    38.9981  38.9981  39.0416  39.0416  39.1896  39.1896  39.4927  39.4927
    41.5252  41.5252  41.6016  41.6016  41.8462  41.8462  41.9071  41.9072
    42.0130  42.0130  42.0632  42.0632  42.6077  42.6077  42.7087  42.7087
    42.7426  42.7426  43.0962  43.0962  43.2696  43.2697  43.8932  43.8932
    44.0114  44.0114  44.0803  44.0803  44.5448  44.5448  44.9676  44.9676
    46.5126  46.5126  46.7081  46.7081  49.0227  49.0227  51.3744  51.3744
    54.0498  54.0498  55.6696  55.6696  55.6775  55.6775  57.0957  57.0957
    61.3699  61.3699  61.5207  61.5207  61.6416  61.6416  62.3656  62.3656
    62.9523  62.9523  63.7216  63.7217  64.1438

          k = 0.2043-0.6129-0.6129 (  8152 PWs)   bands (ev):

   -41.7576 -41.7576 -41.7576 -41.7575 -41.3947 -41.3947 -41.3947 -41.3946
   -41.1810 -41.1810 -41.1810 -41.1809 -40.9684 -40.9683 -40.9683 -40.9683
    -8.9537  -8.9537  -8.9537  -8.9537  -8.9273  -8.9273  -8.9273  -8.9272
    -8.8024  -8.8024  -8.8024  -8.8024  -7.9020  -7.9020  -7.9020  -7.9020
    -7.8614  -7.8614  -7.8614  -7.8614  -7.8601  -7.8601  -7.8601  -7.8601
    -7.0407  -7.0407  -7.0406  -7.0406  -6.9995  -6.9995  -6.9995  -6.9995
    -6.4092  -6.4092  -6.4092  -6.4092  -6.2724  -6.2724  -6.2724  -6.2724
    -6.2352  -6.2352  -6.2352  -6.2352  -5.9008  -5.9008  -5.9008  -5.9008
    33.4483  33.4483  33.4483  33.4483  34.2962  34.2962  34.2962  34.2962
    34.3578  34.3578  34.3578  34.3578  34.5350  34.5350  34.5350  34.5350
    35.1971  35.1971  35.1971  35.1972  35.6503  35.6503  35.6503  35.6503
    35.7187  35.7187  35.7187  35.7187  35.8032  35.8033  35.8033  35.8033
    38.1383  38.1383  38.1383  38.1383  38.3315  38.3315  38.3315  38.3315
    38.7565  38.7565  38.7565  38.7565  38.8734  38.8734  38.8734  38.8734
    41.9162  41.9162  41.9162  41.9162  42.0102  42.0102  42.0102  42.0102
    42.2890  42.2890  42.2890  42.2891  42.4469  42.4469  42.4469  42.4469
    42.9626  42.9626  42.9626  42.9626  42.9902  42.9902  42.9902  42.9902
    43.9940  43.9941  43.9941  43.9941  44.6731  44.6731  44.6731  44.6731
    46.7298  46.7298  46.7298  46.7298  50.2379  50.2379  50.2379  50.2379
    55.0012  55.0012  55.0012  55.0012  56.9321  56.9321  56.9321  56.9321
    61.0460  61.0460  61.0460  61.0460  61.9451  61.9451  61.9451  61.9451
    63.7805  63.7805  63.7805  63.7806  64.0497

          k = 0.3405 0.3405 0.3405 (  8204 PWs)   bands (ev):

   -42.0074 -41.6404 -41.6404 -41.6404 -41.4308 -41.4308 -41.4308 -41.3013
   -41.1758 -41.1638 -41.1638 -41.1638 -41.0726 -41.0726 -41.0725 -40.7980
    -9.2393  -9.2393  -9.2393  -8.9316  -8.9316  -8.9316  -8.8320  -8.7837
    -8.7837  -8.7837  -8.4692  -8.4692  -8.4180  -8.4180  -8.0354  -8.0354
    -8.0354  -7.8045  -7.8045  -7.8045  -7.5663  -7.5623  -7.5623  -7.5623
    -6.9251  -6.9251  -6.9160  -6.8696  -6.8696  -6.8696  -6.8366  -6.8366
    -6.8366  -6.6308  -6.6308  -6.6308  -6.4112  -6.2729  -6.2729  -6.2729
    -6.1139  -6.1139  -6.1139  -6.0383  -6.0382  -6.0382  -5.9578  -5.9578
    32.6289  32.6289  33.5695  33.5695  33.5695  33.6454  33.6454  33.6454
    34.1207  34.2114  34.2114  34.2114  34.7575  34.8009  34.8009  34.8009
    34.9743  34.9743  34.9743  35.3875  35.3875  35.4650  35.4650  35.4650
    35.5726  35.5726  35.5726  36.3004  36.3004  36.3004  36.7794  36.7794
    37.6525  37.6525  37.9152  37.9152  37.9152  38.0613  38.0613  38.0613
    38.6146  38.9727  38.9727  38.9727  40.3851  40.6136  40.6136  40.6136
    40.8966  41.2050  41.2050  41.2050  41.8053  41.8053  41.8053  41.9731
    41.9731  41.9731  42.3295  42.3295  42.6797  42.6797  42.6797  43.2831
    43.2831  43.2831  43.5112  43.5112  43.5112  43.5747  43.5747  43.7401
    43.7401  45.0299  45.0299  45.0299  45.2193  45.2193  45.2193  45.5161
    45.5161  46.0758  46.0758  46.0758  48.4352  48.4352  48.4352  53.5990
    53.5990  53.5990  53.8351  54.2540  54.2541  54.2541  59.5024  59.5024
    60.2909  60.2909  60.6705  60.6911  61.5773  61.5773  61.5773  62.9477
    62.9477  62.9477  63.8006  63.8006  63.8007

          k = 0.3405 0.3405 0.4767 (  8181 PWs)   bands (ev):

   -41.9393 -41.7520 -41.5998 -41.5998 -41.4920 -41.4920 -41.4045 -41.3373
   -41.1674 -41.1627 -41.1304 -41.1304 -41.0856 -41.0856 -40.9826 -40.8444
    -9.1419  -9.1419  -9.0931  -8.9023  -8.8863  -8.8863  -8.8516  -8.7695
    -8.7213  -8.7212  -8.6771  -8.6029  -8.3499  -8.2514  -8.2514  -8.2281
    -8.0127  -7.8318  -7.8318  -7.7828  -7.7577  -7.6914  -7.6914  -7.3822
    -7.1795  -7.0155  -6.9600  -6.9197  -6.7800  -6.7800  -6.6659  -6.6659
    -6.6639  -6.6639  -6.6507  -6.4206  -6.3799  -6.3799  -6.3276  -6.2574
    -6.1996  -6.0790  -6.0739  -6.0739  -6.0361  -6.0361  -6.0295  -5.9500
    32.9129  33.3006  33.7188  33.8718  33.8718  33.8974  33.9597  33.9597
    34.0747  34.2233  34.3648  34.3648  34.6670  34.6670  34.8582  34.8972
    35.0456  35.0482  35.0482  35.0828  35.1375  35.2969  35.6502  35.6502
    35.6606  35.8718  35.8718  35.9276  35.9276  36.4625  36.6060  36.6865
    36.8532  37.4470  37.4470  37.4721  38.0139  38.0139  38.1303  38.2658
    38.4083  38.4083  38.7277  38.7972  39.8843  40.1581  40.2224  40.2224
    41.0084  41.1841  41.1898  41.1898  41.8546  41.8546  41.8985  41.8985
    41.9383  42.3484  42.3484  42.4729  42.6318  42.7081  42.7690  42.8327
    43.3134  43.4090  43.5458  43.5644  43.5644  43.5825  43.7244  43.7244
    43.9287  44.0448  44.5551  45.2318  45.4483  45.4483  45.5302  45.5302
    45.5962  45.8065  46.0347  46.0347  47.4210  47.4210  49.8944  52.6380
    54.3586  54.3586  54.9017  54.9017  55.4625  55.5871  58.2586  58.9121
    60.5245  61.0761  61.2098  61.2856  61.6274  61.6274  61.8368  62.9519
    62.9519  63.0780  63.1968  63.5122  63.6706

          k = 0.3405 0.3405-0.6129 (  8166 PWs)   bands (ev):

   -41.8530 -41.8530 -41.5494 -41.5494 -41.5494 -41.5493 -41.3726 -41.3725
   -41.1635 -41.1634 -41.1046 -41.1046 -41.1045 -41.1045 -40.9062 -40.9061
    -9.0156  -9.0156  -9.0156  -9.0156  -8.9041  -8.9041  -8.8743  -8.8743
    -8.7065  -8.7065  -8.4878  -8.4878  -8.4878  -8.4878  -8.1963  -8.1963
    -8.0115  -8.0115  -7.7876  -7.7876  -7.7876  -7.7876  -7.4665  -7.4665
    -7.1981  -7.1980  -6.9554  -6.9554  -6.7136  -6.7136  -6.7136  -6.7136
    -6.5104  -6.5104  -6.5103  -6.5103  -6.4062  -6.4062  -6.2751  -6.2751
    -6.2350  -6.2349  -6.0475  -6.0475  -6.0475  -6.0475  -5.9740  -5.9739
    33.2801  33.2801  34.0455  34.0455  34.0972  34.0972  34.1857  34.1857
    34.1857  34.1857  34.3099  34.3099  34.3099  34.3099  34.8372  34.8373
    34.9649  34.9650  35.1455  35.1455  35.4504  35.4504  35.4505  35.4505
    35.9543  35.9543  35.9544  35.9544  36.1189  36.1189  36.5825  36.5825
    36.8925  36.8925  37.3867  37.3868  37.3868  37.3868  38.5189  38.5190
    38.9784  38.9784  39.2061  39.2061  39.2061  39.2061  39.2838  39.2838
    41.4773  41.4773  41.8054  41.8054  41.8054  41.8054  41.8575  41.8575
    41.8575  41.8575  42.0194  42.0194  42.9725  42.9725  43.0561  43.0562
    43.2045  43.2045  43.5666  43.5666  43.5720  43.5721  43.7236  43.7236
    43.7236  43.7236  44.5399  44.5399  45.7833  45.7833  45.7833  45.7833
    45.8175  45.8175  46.4185  46.4185  46.4185  46.4185  51.3115  51.3115
    54.8906  54.8906  54.8906  54.8906  56.9417  56.9417  57.2535  57.2535
    60.8578  60.8578  62.1387  62.1387  62.1387  62.1387  62.1595  62.1595
    62.2164  62.2164  63.5452  63.5452  64.0043

          k = 0.3405 0.4767 0.4767 (  8167 PWs)   bands (ev):

   -41.8760 -41.7026 -41.7026 -41.5693 -41.5617 -41.4612 -41.4612 -41.3813
   -41.1511 -41.1338 -41.1338 -41.0961 -41.0794 -41.0058 -41.0058 -40.8848
    -9.0652  -9.0091  -9.0091  -8.8853  -8.8469  -8.8469  -8.8117  -8.7404
    -8.7404  -8.6937  -8.6555  -8.4923  -8.3956  -8.3406  -8.2780  -8.0371
    -8.0370  -7.9894  -7.9894  -7.9518  -7.9155  -7.9155  -7.8515  -7.4342
    -7.1913  -6.8566  -6.8299  -6.8299  -6.8137  -6.8137  -6.7000  -6.6415
    -6.5458  -6.5221  -6.5094  -6.4602  -6.4602  -6.3173  -6.3173  -6.2913
    -6.1785  -6.1785  -6.1432  -6.1041  -6.0194  -6.0194  -6.0193  -5.9764
    33.3328  33.7993  34.0276  34.0276  34.0417  34.1658  34.2270  34.2270
    34.2847  34.4286  34.4286  34.6574  34.8824  34.8824  34.9085  34.9914
    35.1270  35.1270  35.1821  35.2422  35.3014  35.3014  35.3171  35.4407
    35.7557  35.7557  35.8649  35.9933  35.9933  36.2119  36.2303  36.7084
    36.7780  37.0349  37.2916  37.4664  37.4664  37.7637  37.8391  37.8391
    37.9502  37.9502  38.2025  38.4675  38.9059  39.3324  39.3324  39.4883
    41.5044  41.5045  41.5908  41.9924  42.0844  42.1098  42.2990  42.3446
    42.4452  42.4452  42.5395  42.5395  42.5865  42.5865  42.6468  43.1077
    43.2438  43.3509  43.3509  43.3584  43.5234  43.5542  43.5542  43.7725
    44.1165  44.1949  44.2430  44.2430  45.1704  45.2268  45.2268  45.7167
    45.7167  45.7298  46.1031  46.2948  46.5634  48.8168  48.8168  51.4617
    55.2525  56.1308  56.1308  56.1847  56.2670  56.2670  58.2794  59.4095
    60.6577  60.8640  61.0691  61.2316  61.2899  61.2899  62.2081  62.2081
    62.3471  62.3951  63.4924  63.4924  64.1882

          k = 0.3405 0.4767-0.6129 (  8166 PWs)   bands (ev):

   -41.7960 -41.7959 -41.6407 -41.6406 -41.5146 -41.5146 -41.4235 -41.4234
   -41.1402 -41.1402 -41.1118 -41.1118 -41.0380 -41.0379 -40.9387 -40.9386
    -8.9572  -8.9572  -8.9284  -8.9284  -8.8468  -8.8467  -8.7716  -8.7716
    -8.7624  -8.7624  -8.5651  -8.5651  -8.2420  -8.2420  -8.2129  -8.2129
    -8.1288  -8.1288  -7.9812  -7.9811  -7.9744  -7.9744  -7.7109  -7.7109
    -7.0066  -7.0066  -6.8365  -6.8364  -6.7447  -6.7447  -6.6599  -6.6599
    -6.5338  -6.5337  -6.4054  -6.4054  -6.3567  -6.3567  -6.2869  -6.2869
    -6.2820  -6.2820  -6.1431  -6.1431  -6.0145  -6.0145  -5.9889  -5.9889
    33.6778  33.6778  34.1224  34.1224  34.2867  34.2867  34.5541  34.5541
    34.5600  34.5600  34.6169  34.6169  34.6575  34.6575  34.7812  34.7812
    35.1687  35.1687  35.3280  35.3280  35.4986  35.4986  35.5441  35.5441
    35.5508  35.5508  36.0147  36.0147  36.0573  36.0573  36.1182  36.1182
    36.8207  36.8207  37.2165  37.2165  37.4093  37.4093  37.8355  37.8355
    38.0569  38.0569  38.5735  38.5735  38.6085  38.6085  38.6739  38.6739
    41.8576  41.8576  42.0105  42.0105  42.0762  42.0762  42.2849  42.2849
    42.4405  42.4405  42.8117  42.8117  42.9175  42.9175  42.9856  42.9856
    43.1456  43.1456  43.2744  43.2744  43.3934  43.3934  43.5401  43.5402
    43.6801  43.6801  44.5520  44.5520  45.1416  45.1416  45.2145  45.2145
    45.8106  45.8107  45.9619  45.9619  47.6960  47.6960  50.1785  50.1786
    55.9479  55.9479  56.6703  56.6703  57.3315  57.3315  58.0639  58.0639
    61.0111  61.0111  61.3398  61.3398  61.4119  61.4119  61.7777  61.7777
    62.2635  62.2635  63.4805  63.4805  64.0532

          k = 0.3405-0.6129-0.6129 (  8176 PWs)   bands (ev):

   -41.7241 -41.7241 -41.7241 -41.7240 -41.4718 -41.4718 -41.4718 -41.4717
   -41.1234 -41.1233 -41.1233 -41.1233 -40.9826 -40.9826 -40.9826 -40.9825
    -8.8627  -8.8627  -8.8627  -8.8627  -8.8551  -8.8551  -8.8551  -8.8551
    -8.6634  -8.6634  -8.6634  -8.6634  -8.1250  -8.1250  -8.1250  -8.1249
    -8.1162  -8.1162  -8.1162  -8.1162  -7.9767  -7.9767  -7.9767  -7.9767
    -6.8261  -6.8261  -6.8261  -6.8261  -6.7786  -6.7786  -6.7786  -6.7786
    -6.3860  -6.3860  -6.3860  -6.3860  -6.3298  -6.3298  -6.3298  -6.3298
    -6.2558  -6.2558  -6.2558  -6.2558  -5.9978  -5.9978  -5.9978  -5.9978
    33.9523  33.9523  33.9523  33.9523  34.6064  34.6064  34.6064  34.6064
    34.6927  34.6927  34.6927  34.6927  34.9631  34.9631  34.9631  34.9631
    35.2869  35.2869  35.2869  35.2870  35.5872  35.5872  35.5872  35.5872
    35.6625  35.6625  35.6625  35.6625  35.7627  35.7627  35.7627  35.7627
    37.2715  37.2715  37.2715  37.2715  37.4924  37.4924  37.4924  37.4924
    37.8742  37.8742  37.8742  37.8742  38.3434  38.3434  38.3434  38.3434
    42.1117  42.1117  42.1117  42.1118  42.4403  42.4403  42.4403  42.4403
    42.8472  42.8472  42.8472  42.8472  42.8520  42.8520  42.8520  42.8520
    42.9529  42.9529  42.9529  42.9529  43.6102  43.6102  43.6102  43.6102
    44.1191  44.1191  44.1191  44.1191  44.7044  44.7044  44.7044  44.7044
    45.9486  45.9486  45.9486  45.9486  48.9662  48.9662  48.9662  48.9662
    56.8697  56.8697  56.8697  56.8697  57.9982  57.9982  57.9982  57.9982
    60.8948  60.8948  60.8948  60.8948  61.4132  61.4132  61.4132  61.4132
    62.9361  62.9361  62.9361  62.9361  63.9498

          k = 0.4767 0.4767 0.4767 (  8186 PWs)   bands (ev):

   -41.8171 -41.6564 -41.6564 -41.6564 -41.5326 -41.5326 -41.5326 -41.4358
   -41.1239 -41.0890 -41.0890 -41.0890 -41.0255 -41.0255 -41.0255 -40.9196
    -8.9248  -8.9248  -8.9248  -8.8130  -8.8130  -8.8130  -8.7277  -8.5563
    -8.5563  -8.5563  -8.5295  -8.5295  -8.5257  -8.5257  -8.1725  -8.1725
    -8.1725  -8.1612  -8.1612  -8.1612  -8.0892  -8.0892  -8.0892  -7.6608
    -7.0028  -6.6655  -6.6655  -6.6655  -6.6440  -6.6440  -6.6440  -6.5970
    -6.5970  -6.4746  -6.4746  -6.4746  -6.4071  -6.4071  -6.4071  -6.2971
    -6.1714  -6.1713  -6.1713  -6.1071  -6.1071  -6.0847  -6.0847  -6.0847
    34.0151  34.0151  34.3853  34.5437  34.5437  34.5437  34.5905  34.5905
    34.5905  34.8073  34.8073  34.8073  34.9889  34.9889  34.9889  35.1801
    35.1801  35.1801  35.2963  35.2963  35.3791  35.3791  35.3791  35.8421
    35.8421  35.8421  35.9193  35.9407  35.9407  35.9407  36.1168  36.1168
    36.8015  36.8015  36.8015  36.8833  36.8833  37.0289  37.0289  37.0289
    37.5073  37.5073  37.5073  37.9616  38.0393  38.6104  38.6104  38.6104
    41.8755  41.8755  41.8755  42.4403  42.4403  42.5624  42.5624  42.5624
    42.7026  42.7026  42.7026  43.0187  43.0187  43.0187  43.1322  43.1800
    43.1800  43.2477  43.2477  43.2477  43.3401  43.3401  43.3401  43.8130
    43.8130  44.8052  44.8052  45.2409  45.2409  45.2409  45.2713  45.2713
    45.2713  45.3221  45.3221  45.3221  47.6533  47.6533  47.6533  50.2612
    57.2042  57.2042  57.2042  57.4383  57.4383  57.4383  59.9550  59.9550
    60.7277  60.8163  60.8163  60.8875  60.9386  60.9386  60.9386  61.8024
    61.8024  61.8024  63.2171  63.2171  63.2172

          k = 0.4767 0.4767-0.6129 (  8196 PWs)   bands (ev):

   -41.7428 -41.7428 -41.5988 -41.5988 -41.5987 -41.5987 -41.4872 -41.4872
   -41.1035 -41.1035 -41.0531 -41.0531 -41.0530 -41.0530 -40.9666 -40.9666
    -8.8408  -8.8408  -8.8408  -8.8408  -8.7433  -8.7433  -8.6911  -8.6911
    -8.6380  -8.6380  -8.3672  -8.3671  -8.3569  -8.3569  -8.3568  -8.3568
    -8.3200  -8.3200  -8.1915  -8.1915  -8.1915  -8.1915  -7.9101  -7.9100
    -6.8264  -6.8264  -6.6306  -6.6305  -6.5289  -6.5289  -6.5289  -6.5289
    -6.5232  -6.5232  -6.5231  -6.5231  -6.3660  -6.3660  -6.3353  -6.3353
    -6.2749  -6.2749  -6.1421  -6.1421  -6.1421  -6.1421  -6.0861  -6.0861
    34.2846  34.2846  34.6374  34.6374  34.7868  34.7868  34.7869  34.7869
    34.7997  34.7998  34.9744  34.9744  34.9744  34.9744  35.2126  35.2126
    35.2432  35.2432  35.4619  35.4619  35.5505  35.5505  35.5506  35.5506
    35.7177  35.7177  35.7178  35.7178  36.0234  36.0234  36.0910  36.0910
    36.4926  36.4926  36.4926  36.4927  36.7289  36.7289  36.9858  36.9859
    37.1706  37.1707  37.8856  37.8857  37.8857  37.8857  38.0475  38.0475
    42.1739  42.1739  42.2833  42.2833  42.2833  42.2833  42.8490  42.8491
    42.8728  42.8728  42.9908  42.9908  42.9908  42.9908  43.2283  43.2283
    43.2363  43.2363  43.2363  43.2363  43.3315  43.3315  43.8735  43.8735
    44.1980  44.1980  44.4525  44.4525  45.1652  45.1652  45.1699  45.1699
    45.1699  45.1699  46.4895  46.4895  46.4896  46.4896  48.9875  48.9876
    57.8046  57.8046  57.8046  57.8046  58.7259  58.7259  59.0845  59.0845
    60.7148  60.7148  61.1961  61.1961  61.1961  61.1961  61.2664  61.2664
    61.6828  61.6828  62.3146  62.3146  63.1911

          k = 0.4767-0.6129-0.6129 (  8176 PWs)   bands (ev):

   -41.6760 -41.6760 -41.6760 -41.6760 -41.5467 -41.5467 -41.5467 -41.5466
   -41.0746 -41.0746 -41.0746 -41.0746 -41.0046 -41.0046 -41.0046 -41.0046
    -8.7293  -8.7293  -8.7293  -8.7293  -8.7293  -8.7292  -8.7292  -8.7292
    -8.4942  -8.4942  -8.4942  -8.4941  -8.3508  -8.3508  -8.3508  -8.3508
    -8.3507  -8.3506  -8.3506  -8.3506  -8.1324  -8.1323  -8.1323  -8.1323
    -6.6639  -6.6639  -6.6639  -6.6639  -6.5358  -6.5358  -6.5358  -6.5358
    -6.4136  -6.4136  -6.4136  -6.4136  -6.3553  -6.3553  -6.3553  -6.3552
    -6.2859  -6.2858  -6.2858  -6.2858  -6.1391  -6.1391  -6.1391  -6.1391
    34.6690  34.6691  34.6691  34.6691  35.0752  35.0752  35.0752  35.0752
    35.1428  35.1428  35.1428  35.1428  35.4078  35.4078  35.4078  35.4079
    35.4599  35.4599  35.4599  35.4599  35.5561  35.5561  35.5561  35.5561
    35.6040  35.6040  35.6040  35.6040  35.6693  35.6694  35.6694  35.6694
    36.4348  36.4348  36.4348  36.4348  36.5240  36.5240  36.5240  36.5240
    37.1563  37.1563  37.1563  37.1563  37.6505  37.6505  37.6506  37.6506
    42.3988  42.3988  42.3988  42.3988  42.6106  42.6106  42.6106  42.6107
    42.8798  42.8799  42.8799  42.8799  43.1821  43.1821  43.1821  43.1821
    43.4403  43.4403  43.4403  43.4403  43.6122  43.6122  43.6122  43.6122
    44.5593  44.5593  44.5593  44.5593  45.0601  45.0601  45.0601  45.0601
    45.3354  45.3354  45.3354  45.3354  47.7579  47.7579  47.7579  47.7579
    58.7712  58.7712  58.7712  58.7713  59.2831  59.2831  59.2831  59.2831
    60.7879  60.7879  60.7879  60.7879  61.0233  61.0234  61.0234  61.0234
    61.8663  61.8663  61.8663  61.8663  62.3822

          k =-0.6129-0.6129-0.6129 (  8144 PWs)   bands (ev):

   -41.6160 -41.6159 -41.6159 -41.6159 -41.6158 -41.6158 -41.6158 -41.6157
   -41.0352 -41.0352 -41.0352 -41.0352 -41.0351 -41.0351 -41.0351 -41.0350
    -8.5572  -8.5572  -8.5572  -8.5572  -8.5572  -8.5572  -8.5572  -8.5572
    -8.5571  -8.5571  -8.5571  -8.5571  -8.5571  -8.5571  -8.5571  -8.5571
    -8.3108  -8.3108  -8.3108  -8.3107  -8.3107  -8.3106  -8.3106  -8.3106
    -6.5254  -6.5254  -6.5254  -6.5254  -6.5253  -6.5253  -6.5253  -6.5253
    -6.3204  -6.3204  -6.3204  -6.3204  -6.3204  -6.3204  -6.3203  -6.3203
    -6.3203  -6.3203  -6.3203  -6.3203  -6.3203  -6.3202  -6.3202  -6.3202
    35.5428  35.5428  35.5428  35.5428  35.5428  35.5428  35.5428  35.5428
    35.5428  35.5428  35.5428  35.5428  35.5428  35.5428  35.5428  35.5428
    35.5635  35.5635  35.5635  35.5635  35.5635  35.5635  35.5635  35.5635
    35.5636  35.5636  35.5636  35.5636  35.5636  35.5636  35.5636  35.5636
    35.6990  35.6990  35.6990  35.6990  35.6990  35.6990  35.6990  35.6990
    37.0582  37.0583  37.0583  37.0583  37.0583  37.0583  37.0583  37.0583
    42.7640  42.7640  42.7640  42.7640  42.7640  42.7640  42.7640  42.7640
    42.7641  42.7641  42.7641  42.7641  42.7641  42.7641  42.7641  42.7641
    44.1959  44.1959  44.1959  44.1959  44.1959  44.1959  44.1959  44.1959
    44.1959  44.1959  44.1959  44.1960  44.1960  44.1960  44.1960  44.1960
    46.5541  46.5541  46.5541  46.5541  46.5541  46.5541  46.5541  46.5541
    60.6162  60.6162  60.6162  60.6162  60.6162  60.6163  60.6163  60.6163
    60.6163  60.6163  60.6163  60.6163  60.6163  60.6163  60.6163  60.6163
    60.8314  60.8314  60.8314  60.8314  60.8314

     the Fermi energy is    45.9178 ev

!    total energy              =   -8181.42295293 Ry

     total all-electron energy =   -161461.849807 Ry
     estimated scf accuracy    <       0.00000057 Ry
     smearing contrib. (-TS)   =       0.00768816 Ry
     internal energy E=F+TS    =   -8181.43064109 Ry

     The total energy is F=E-TS. E is the sum of the following terms:
     one-electron contribution =      -0.23506360 Ry
     hartree contribution      =     460.79916782 Ry
     xc contribution           =    -510.87396441 Ry
     ewald contribution        =   -4046.76452786 Ry
     one-center paw contrib.   =   -4084.35625305 Ry

     convergence has been achieved in  10 iterations

     Forces acting on atoms (cartesian axes, Ry/au):

     atom    1 type  1   force =     0.00000000    0.00000000    0.00000000
     atom    2 type  1   force =     0.00000191    0.00000191    0.00000191
     atom    3 type  1   force =     0.00000000    0.00000000    0.00000000
     atom    4 type  1   force =     0.00000191    0.00000191   -0.00000191
     atom    5 type  1   force =     0.00000000    0.00000000    0.00000000
     atom    6 type  1   force =     0.00000191   -0.00000191    0.00000191
     atom    7 type  1   force =     0.00000000    0.00000000    0.00000000
     atom    8 type  1   force =     0.00000191   -0.00000191   -0.00000191
     atom    9 type  1   force =     0.00000000    0.00000000    0.00000000
     atom   10 type  1   force =    -0.00000191    0.00000191    0.00000191
     atom   11 type  1   force =     0.00000000    0.00000000    0.00000000
     atom   12 type  1   force =    -0.00000191    0.00000191   -0.00000191
     atom   13 type  1   force =     0.00000000    0.00000000    0.00000000
     atom   14 type  1   force =    -0.00000191   -0.00000191    0.00000191
     atom   15 type  1   force =     0.00000000    0.00000000    0.00000000
     atom   16 type  1   force =    -0.00000191   -0.00000191   -0.00000191

     Total force =     0.000009     Total SCF correction =     0.000297
     SCF correction compared to forces is large: reduce conv_thr to get better values


     Computing stress (Cartesian axis) and pressure

          total   stress  (Ry/bohr**3)                   (kbar)     P=     7662.67
   0.05208974   0.00000000   0.00000000         7662.67        0.00        0.00
   0.00000000   0.05208974   0.00000000            0.00     7662.67        0.00
   0.00000000   0.00000000   0.05208974            0.00        0.00     7662.67


     Writing output data file /scratch/VHDtQpmfGdNWwAWb.save/
 
     init_run     :      2.26s CPU      2.35s WALL (       1 calls)
     electrons    :    112.72s CPU    115.65s WALL (       1 calls)
     forces       :      1.02s CPU      1.04s WALL (       1 calls)
     stress       :      1.47s CPU      1.48s WALL (       1 calls)

     Called by init_run:
     wfcinit      :      1.84s CPU      1.89s WALL (       1 calls)
     potinit      :      0.27s CPU      0.29s WALL (       1 calls)
     hinit0       :      0.04s CPU      0.05s WALL (       1 calls)

     Called by electrons:
     c_bands      :    102.14s CPU    104.69s WALL (      11 calls)
     sum_band     :      9.22s CPU      9.48s WALL (      11 calls)
     v_of_rho     :      0.24s CPU      0.25s WALL (      11 calls)
     newd         :      0.22s CPU      0.26s WALL (      11 calls)
     PAW_pot      :      0.79s CPU      0.85s WALL (      11 calls)
     mix_rho      :      0.02s CPU      0.03s WALL (      11 calls)

     Called by c_bands:
     init_us_2    :      0.21s CPU      0.22s WALL (     875 calls)
     cegterg      :    101.22s CPU    103.74s WALL (     385 calls)

     Called by *egterg:
     cdiaghg      :     28.39s CPU     28.71s WALL (    1542 calls)
     h_psi        :     43.47s CPU     45.00s WALL (    1612 calls)
     s_psi        :      1.34s CPU      1.36s WALL (    1612 calls)
     g_psi        :      0.04s CPU      0.04s WALL (    1192 calls)

     Called by h_psi:
     h_psi:calbec :      5.29s CPU      5.33s WALL (    1612 calls)
     vloc_psi     :     36.49s CPU     37.95s WALL (    1612 calls)
     add_vuspsi   :      1.60s CPU      1.63s WALL (    1612 calls)

     General routines
     calbec       :      7.88s CPU      7.95s WALL (    2172 calls)
     fft          :      0.22s CPU      0.23s WALL (     167 calls)
     ffts         :      0.03s CPU      0.03s WALL (      22 calls)
     fftw         :     42.32s CPU     43.90s WALL (  403227 calls)
     interpolate  :      0.06s CPU      0.07s WALL (      11 calls)
 
     Parallel routines
     fft_scatt_xy :      1.96s CPU      2.03s WALL (  403416 calls)
     fft_scatt_yz :     34.72s CPU     36.05s WALL (  403416 calls)
 
     PWSCF        :   2m 2.92s CPU   2m 6.51s WALL

 
   This run was terminated on:  23:15: 9  29Nov2021            

=------------------------------------------------------------------------------=
   JOB DONE.
=------------------------------------------------------------------------------=
