
     Program PWSCF v.6.7MaX starts on 30Nov2021 at  0:18:30 

     This program is part of the open-source Quantum ESPRESSO suite
     for quantum simulation of materials; please cite
         "P. Giannozzi et al., J. Phys.:Condens. Matter 21 395502 (2009);
         "P. Giannozzi et al., J. Phys.:Condens. Matter 29 465901 (2017);
          URL http://www.quantum-espresso.org", 
     in publications or presentations arising from this work. More details at
     http://www.quantum-espresso.org/quote

     Parallel version (MPI & OpenMP), running on      72 processor cores
     Number of MPI processes:                72
     Threads/MPI process:                     1

     MPI processes distributed on     1 nodes
     R & G space division:  proc/nbgrp/npool/nimage =      72
     Reading input from bcc_15.in
Warning: card &CELL ignored
Warning: card CELL_DYNAMICS = 'BFGS', ignored
Warning: card CELL_FACTOR = 2.0, ignored
Warning: card PRESS = 0.0, ignored
Warning: card / ignored

     Current dimensions of program PWSCF are:
     Max number of different atomic species (ntypx) = 10
     Max number of k-points (npk) =  40000
     Max angular momentum in pseudopotentials (lmaxx) =  3
     file Pd.pbe-spn-kjpaw_psl.1.0.0.UPF: wavefunction(s)  4S 5S 4D renormalized

     Subspace diagonalization in iterative solution of the eigenvalue problem:
     one sub-group per band group will be used
     ELPA distributed-memory algorithm (size of sub-group:  8*  8 procs)

     Found symmetry operation: I + (  0.2500  0.2500  0.2500)
     This is a supercell, fractional translations are disabled
     Message from routine setup:
     using ibrav=0 with symmetry is DISCOURAGED, use correct ibrav instead
 
     Parallelization info
     --------------------
     sticks:   dense  smooth     PW     G-vecs:    dense   smooth      PW
     Min         173     114     30                14561     7818    1080
     Max         174     115     31                14565     7823    1087
     Sum       12485    8253   2217              1048555   563051   78013
 


     bravais-lattice index     =            0
     lattice parameter (alat)  =      11.4293  a.u.
     unit-cell volume          =    6966.6983 (a.u.)^3
     number of atoms/cell      =           16
     number of atomic types    =            1
     number of electrons       =       288.00
     number of Kohn-Sham states=          173
     kinetic-energy cutoff     =      71.0000  Ry
     charge density cutoff     =     430.0000  Ry
     scf convergence threshold =      1.0E-06
     mixing beta               =       0.1000
     number of iterations used =           10  TF        mixing
     Exchange-correlation= SLA  PW   PBX  PBC
                           (   1   4   3   4   0   0   0)

     celldm(1)=  11.429280  celldm(2)=   0.000000  celldm(3)=   0.000000
     celldm(4)=   0.000000  celldm(5)=   0.000000  celldm(6)=   0.000000

     crystal axes: (cart. coord. in units of alat)
               a(1) = (   1.671053   0.000000   0.000000 )  
               a(2) = (   0.000000   1.671053   0.000000 )  
               a(3) = (   0.000000   0.000000   1.671053 )  

     reciprocal axes: (cart. coord. in units 2 pi/alat)
               b(1) = (  0.598425  0.000000  0.000000 )  
               b(2) = (  0.000000  0.598425  0.000000 )  
               b(3) = (  0.000000  0.000000  0.598425 )  


     PseudoPot. # 1 for Pd read from file:
     /rds/homes/b/bxp912/pp/Pd.pbe-spn-kjpaw_psl.1.0.0.UPF
     MD5 check sum: 790f2ebce206edfd9790dcb9844eca51
     Pseudo is Projector augmented-wave + core cor, Zval = 18.0
     Generated using &quot;atomic&quot; code by A. Dal Corso  v.6.3
     Shape of augmentation charge: PSQ
     Using radial grid of 1235 points,  6 beta functions with: 
                l(1) =   0
                l(2) =   0
                l(3) =   1
                l(4) =   1
                l(5) =   2
                l(6) =   2
     Q(r) pseudized with 0 coefficients 


     atomic species   valence    mass     pseudopotential
        Pd            18.00   106.42000     Pd( 1.00)

     48 Sym. Ops., with inversion, found



   Cartesian axes

     site n.     atom                  positions (alat units)
         1           Pd  tau(   1) = (   0.0000000   0.0000000   0.0000000  )
         2           Pd  tau(   2) = (   0.4177632   0.4177632   0.4177632  )
         3           Pd  tau(   3) = (   0.0000000   0.0000000   0.8355263  )
         4           Pd  tau(   4) = (   0.4177632   0.4177632   1.2532895  )
         5           Pd  tau(   5) = (   0.0000000   0.8355263   0.0000000  )
         6           Pd  tau(   6) = (   0.4177632   1.2532895   0.4177632  )
         7           Pd  tau(   7) = (   0.0000000   0.8355263   0.8355263  )
         8           Pd  tau(   8) = (   0.4177632   1.2532895   1.2532895  )
         9           Pd  tau(   9) = (   0.8355263   0.0000000   0.0000000  )
        10           Pd  tau(  10) = (   1.2532895   0.4177632   0.4177632  )
        11           Pd  tau(  11) = (   0.8355263   0.0000000   0.8355263  )
        12           Pd  tau(  12) = (   1.2532895   0.4177632   1.2532895  )
        13           Pd  tau(  13) = (   0.8355263   0.8355263   0.0000000  )
        14           Pd  tau(  14) = (   1.2532895   1.2532895   0.4177632  )
        15           Pd  tau(  15) = (   0.8355263   0.8355263   0.8355263  )
        16           Pd  tau(  16) = (   1.2532895   1.2532895   1.2532895  )

     number of k points=    35  Marzari-Vanderbilt smearing, width (Ry)=  0.0400
                       cart. coord. in units 2pi/alat
        k(    1) = (   0.0332458   0.0332458   0.0332458), wk =   0.0219479
        k(    2) = (   0.0332458   0.0332458   0.0997375), wk =   0.0658436
        k(    3) = (   0.0332458   0.0332458   0.1662292), wk =   0.0658436
        k(    4) = (   0.0332458   0.0332458   0.2327209), wk =   0.0658436
        k(    5) = (   0.0332458   0.0332458  -0.2992126), wk =   0.0329218
        k(    6) = (   0.0332458   0.0997375   0.0997375), wk =   0.0658436
        k(    7) = (   0.0332458   0.0997375   0.1662292), wk =   0.1316872
        k(    8) = (   0.0332458   0.0997375   0.2327209), wk =   0.1316872
        k(    9) = (   0.0332458   0.0997375  -0.2992126), wk =   0.0658436
        k(   10) = (   0.0332458   0.1662292   0.1662292), wk =   0.0658436
        k(   11) = (   0.0332458   0.1662292   0.2327209), wk =   0.1316872
        k(   12) = (   0.0332458   0.1662292  -0.2992126), wk =   0.0658436
        k(   13) = (   0.0332458   0.2327209   0.2327209), wk =   0.0658436
        k(   14) = (   0.0332458   0.2327209  -0.2992126), wk =   0.0658436
        k(   15) = (   0.0332458  -0.2992126  -0.2992126), wk =   0.0164609
        k(   16) = (   0.0997375   0.0997375   0.0997375), wk =   0.0219479
        k(   17) = (   0.0997375   0.0997375   0.1662292), wk =   0.0658436
        k(   18) = (   0.0997375   0.0997375   0.2327209), wk =   0.0658436
        k(   19) = (   0.0997375   0.0997375  -0.2992126), wk =   0.0329218
        k(   20) = (   0.0997375   0.1662292   0.1662292), wk =   0.0658436
        k(   21) = (   0.0997375   0.1662292   0.2327209), wk =   0.1316872
        k(   22) = (   0.0997375   0.1662292  -0.2992126), wk =   0.0658436
        k(   23) = (   0.0997375   0.2327209   0.2327209), wk =   0.0658436
        k(   24) = (   0.0997375   0.2327209  -0.2992126), wk =   0.0658436
        k(   25) = (   0.0997375  -0.2992126  -0.2992126), wk =   0.0164609
        k(   26) = (   0.1662292   0.1662292   0.1662292), wk =   0.0219479
        k(   27) = (   0.1662292   0.1662292   0.2327209), wk =   0.0658436
        k(   28) = (   0.1662292   0.1662292  -0.2992126), wk =   0.0329218
        k(   29) = (   0.1662292   0.2327209   0.2327209), wk =   0.0658436
        k(   30) = (   0.1662292   0.2327209  -0.2992126), wk =   0.0658436
        k(   31) = (   0.1662292  -0.2992126  -0.2992126), wk =   0.0164609
        k(   32) = (   0.2327209   0.2327209   0.2327209), wk =   0.0219479
        k(   33) = (   0.2327209   0.2327209  -0.2992126), wk =   0.0329218
        k(   34) = (   0.2327209  -0.2992126  -0.2992126), wk =   0.0164609
        k(   35) = (  -0.2992126  -0.2992126  -0.2992126), wk =   0.0027435

     Dense  grid:  1048555 G-vectors     FFT dimensions: ( 128, 128, 128)

     Smooth grid:   563051 G-vectors     FFT dimensions: ( 108, 108, 108)

     Estimated max dynamical RAM per process >     159.67 MB

     Estimated total dynamical RAM >      11.23 GB

     Initial potential from superposition of free atoms

     starting charge  287.99388, renormalised to  288.00000
     Starting wfcs are  160 randomized atomic wfcs +   13 random wfcs
     Checking if some PAW data can be deallocated... 

     total cpu time spent up to now is       11.6 secs

     Self-consistent Calculation

     iteration #  1     ecut=    71.00 Ry     beta= 0.10
     Davidson diagonalization with overlap
     ethr =  1.00E-02,  avg # of iterations =  4.8

     total cpu time spent up to now is       45.3 secs

     total energy              =   -8190.65239918 Ry
     estimated scf accuracy    <      11.99251530 Ry

     iteration #  2     ecut=    71.00 Ry     beta= 0.10
     Davidson diagonalization with overlap
     ethr =  4.16E-03,  avg # of iterations =  1.1

     total cpu time spent up to now is       66.1 secs

     total energy              =   -8187.16624663 Ry
     estimated scf accuracy    <       8.95925978 Ry

     iteration #  3     ecut=    71.00 Ry     beta= 0.10
     Davidson diagonalization with overlap
     ethr =  3.11E-03,  avg # of iterations =  2.1

     total cpu time spent up to now is       97.0 secs

     total energy              =   -8188.40621801 Ry
     estimated scf accuracy    <       4.88790458 Ry

     iteration #  4     ecut=    71.00 Ry     beta= 0.10
     Davidson diagonalization with overlap
     ethr =  1.70E-03,  avg # of iterations =  1.2

     total cpu time spent up to now is      117.6 secs

     total energy              =   -8188.40167296 Ry
     estimated scf accuracy    <       1.58850545 Ry

     iteration #  5     ecut=    71.00 Ry     beta= 0.10
     Davidson diagonalization with overlap
     ethr =  5.52E-04,  avg # of iterations =  1.8

     total cpu time spent up to now is      140.5 secs

     total energy              =   -8188.27581877 Ry
     estimated scf accuracy    <       0.37565111 Ry

     iteration #  6     ecut=    71.00 Ry     beta= 0.10
     Davidson diagonalization with overlap
     ethr =  1.30E-04,  avg # of iterations =  3.5

     total cpu time spent up to now is      175.9 secs

     total energy              =   -8188.79716077 Ry
     estimated scf accuracy    <       7.61369512 Ry

     iteration #  7     ecut=    71.00 Ry     beta= 0.10
     Davidson diagonalization with overlap
     ethr =  1.30E-04,  avg # of iterations =  1.1

     total cpu time spent up to now is      195.3 secs

     total energy              =   -8188.53623203 Ry
     estimated scf accuracy    <       4.15574975 Ry

     iteration #  8     ecut=    71.00 Ry     beta= 0.10
     Davidson diagonalization with overlap
     ethr =  1.30E-04,  avg # of iterations =  1.3

     total cpu time spent up to now is      216.9 secs

     total energy              =   -8188.54305566 Ry
     estimated scf accuracy    <       1.94189879 Ry

     iteration #  9     ecut=    71.00 Ry     beta= 0.10
     Davidson diagonalization with overlap
     ethr =  1.30E-04,  avg # of iterations =  1.0

     total cpu time spent up to now is      240.1 secs

     total energy              =   -8188.55573114 Ry
     estimated scf accuracy    <       1.90938563 Ry

     iteration # 10     ecut=    71.00 Ry     beta= 0.10
     Davidson diagonalization with overlap
     ethr =  1.30E-04,  avg # of iterations =  1.0

     total cpu time spent up to now is      258.6 secs

     total energy              =   -8188.39352819 Ry
     estimated scf accuracy    <       5.93395021 Ry

     iteration # 11     ecut=    71.00 Ry     beta= 0.10
     Davidson diagonalization with overlap
     ethr =  1.30E-04,  avg # of iterations =  1.7

     total cpu time spent up to now is      280.8 secs

     total energy              =   -8188.22119694 Ry
     estimated scf accuracy    <       1.00153294 Ry

     iteration # 12     ecut=    71.00 Ry     beta= 0.10
     Davidson diagonalization with overlap
     ethr =  1.30E-04,  avg # of iterations =  2.3

     total cpu time spent up to now is      307.2 secs

     total energy              =   -8188.31670980 Ry
     estimated scf accuracy    <       0.38233891 Ry

     iteration # 13     ecut=    71.00 Ry     beta= 0.10
     Davidson diagonalization with overlap
     ethr =  1.30E-04,  avg # of iterations =  1.0

     total cpu time spent up to now is      326.4 secs

     total energy              =   -8188.23421605 Ry
     estimated scf accuracy    <       0.91275792 Ry

     iteration # 14     ecut=    71.00 Ry     beta= 0.10
     Davidson diagonalization with overlap
     ethr =  1.30E-04,  avg # of iterations =  2.1

     total cpu time spent up to now is      350.7 secs

     total energy              =   -8188.27825264 Ry
     estimated scf accuracy    <       0.46020976 Ry

     iteration # 15     ecut=    71.00 Ry     beta= 0.10
     Davidson diagonalization with overlap
     ethr =  1.30E-04,  avg # of iterations =  1.0

     total cpu time spent up to now is      370.2 secs

     total energy              =   -8188.27809666 Ry
     estimated scf accuracy    <       0.50479870 Ry

     iteration # 16     ecut=    71.00 Ry     beta= 0.10
     Davidson diagonalization with overlap
     ethr =  1.30E-04,  avg # of iterations =  1.0

     total cpu time spent up to now is      390.1 secs

     total energy              =   -8188.27900789 Ry
     estimated scf accuracy    <       0.12225774 Ry

     iteration # 17     ecut=    71.00 Ry     beta= 0.10
     Davidson diagonalization with overlap
     ethr =  4.25E-05,  avg # of iterations =  2.4

     total cpu time spent up to now is      411.4 secs

     total energy              =   -8188.27604384 Ry
     estimated scf accuracy    <       0.13709740 Ry

     iteration # 18     ecut=    71.00 Ry     beta= 0.10
     Davidson diagonalization with overlap
     ethr =  4.25E-05,  avg # of iterations =  1.3

     total cpu time spent up to now is      430.4 secs

     total energy              =   -8188.27766032 Ry
     estimated scf accuracy    <       0.00870883 Ry

     iteration # 19     ecut=    71.00 Ry     beta= 0.10
     Davidson diagonalization with overlap
     c_bands:  1 eigenvalues not converged
     ethr =  3.02E-06,  avg # of iterations =  4.0

     total cpu time spent up to now is      453.9 secs

     total energy              =   -8188.27638918 Ry
     estimated scf accuracy    <       0.03854602 Ry

     iteration # 20     ecut=    71.00 Ry     beta= 0.10
     Davidson diagonalization with overlap
     ethr =  3.02E-06,  avg # of iterations =  1.0

     total cpu time spent up to now is      472.4 secs

     total energy              =   -8188.27733872 Ry
     estimated scf accuracy    <       0.03087616 Ry

     iteration # 21     ecut=    71.00 Ry     beta= 0.10
     Davidson diagonalization with overlap
     ethr =  3.02E-06,  avg # of iterations =  1.2

     total cpu time spent up to now is      491.6 secs

     total energy              =   -8188.27753655 Ry
     estimated scf accuracy    <       0.00155124 Ry

     iteration # 22     ecut=    71.00 Ry     beta= 0.10
     Davidson diagonalization with overlap
     ethr =  5.39E-07,  avg # of iterations =  1.3

     total cpu time spent up to now is      510.7 secs

     total energy              =   -8188.27756410 Ry
     estimated scf accuracy    <       0.00005514 Ry

     iteration # 23     ecut=    71.00 Ry     beta= 0.10
     Davidson diagonalization with overlap
     ethr =  1.91E-08,  avg # of iterations =  1.0

     total cpu time spent up to now is      531.7 secs

     total energy              =   -8188.27756686 Ry
     estimated scf accuracy    <       0.00047796 Ry

     iteration # 24     ecut=    71.00 Ry     beta= 0.10
     Davidson diagonalization with overlap
     ethr =  1.91E-08,  avg # of iterations =  1.0

     total cpu time spent up to now is      549.9 secs

     total energy              =   -8188.27756960 Ry
     estimated scf accuracy    <       0.00016752 Ry

     iteration # 25     ecut=    71.00 Ry     beta= 0.10
     Davidson diagonalization with overlap
     ethr =  1.91E-08,  avg # of iterations =  1.3

     total cpu time spent up to now is      569.0 secs

     total energy              =   -8188.27755618 Ry
     estimated scf accuracy    <       0.00033557 Ry

     iteration # 26     ecut=    71.00 Ry     beta= 0.10
     Davidson diagonalization with overlap
     ethr =  1.91E-08,  avg # of iterations =  1.3

     total cpu time spent up to now is      588.0 secs

     total energy              =   -8188.27756128 Ry
     estimated scf accuracy    <       0.00001219 Ry

     iteration # 27     ecut=    71.00 Ry     beta= 0.10
     Davidson diagonalization with overlap
     ethr =  4.23E-09,  avg # of iterations =  1.0

     total cpu time spent up to now is      607.7 secs

     total energy              =   -8188.27755444 Ry
     estimated scf accuracy    <       0.00001472 Ry

     iteration # 28     ecut=    71.00 Ry     beta= 0.10
     Davidson diagonalization with overlap
     ethr =  4.23E-09,  avg # of iterations =  2.0

     total cpu time spent up to now is      635.0 secs

     total energy              =   -8188.27756173 Ry
     estimated scf accuracy    <       0.00001257 Ry

     iteration # 29     ecut=    71.00 Ry     beta= 0.10
     Davidson diagonalization with overlap
     ethr =  4.23E-09,  avg # of iterations =  1.0

     total cpu time spent up to now is      656.0 secs

     total energy              =   -8188.27756228 Ry
     estimated scf accuracy    <       0.00000986 Ry

     iteration # 30     ecut=    71.00 Ry     beta= 0.10
     Davidson diagonalization with overlap
     ethr =  3.42E-09,  avg # of iterations =  1.0

     total cpu time spent up to now is      675.0 secs

     total energy              =   -8188.27756391 Ry
     estimated scf accuracy    <       0.00000605 Ry

     iteration # 31     ecut=    71.00 Ry     beta= 0.10
     Davidson diagonalization with overlap
     ethr =  2.10E-09,  avg # of iterations =  2.0

     total cpu time spent up to now is      696.3 secs

     total energy              =   -8188.27756447 Ry
     estimated scf accuracy    <       0.00000243 Ry

     iteration # 32     ecut=    71.00 Ry     beta= 0.10
     Davidson diagonalization with overlap
     ethr =  8.43E-10,  avg # of iterations =  2.0

     total cpu time spent up to now is      718.6 secs

     End of self-consistent calculation

          k = 0.0332 0.0332 0.0332 ( 70418 PWs)   bands (ev):

   -81.2618 -81.2618 -81.2618 -81.2618 -81.2618 -81.2618 -81.2617 -81.2617
   -81.2617 -81.2617 -81.2617 -81.2617 -81.2617 -81.2617 -81.2614 -81.2611
   -47.0751 -47.0751 -47.0751 -47.0750 -47.0750 -47.0750 -47.0750 -47.0750
   -47.0750 -47.0749 -47.0748 -47.0748 -47.0748 -47.0748 -47.0748 -47.0748
   -47.0748 -47.0747 -47.0747 -47.0747 -47.0747 -47.0747 -47.0747 -47.0747
   -47.0747 -47.0747 -47.0747 -47.0747 -47.0746 -47.0746 -47.0746 -47.0746
   -47.0746 -47.0746 -47.0746 -47.0746 -47.0744 -47.0744 -47.0744 -47.0744
   -47.0744 -47.0744 -47.0743 -47.0743 -47.0743 -47.0741 -47.0741 -47.0741
    -0.2735   0.1346   0.1346   0.1346   0.1361   0.1361   0.1361   0.1626
     0.1626   0.2053   0.2053   0.2053   0.2069   0.2069   0.2069   0.2744
     0.2889   0.2889   0.2890   0.2890   0.2929   0.2997   0.2997   0.2997
     0.3163   0.3163   0.3232   0.3232   0.3232   0.3254   0.3254   0.3254
     0.3279   0.3279   0.3279   0.3292   0.3624   0.3624   0.3625   0.3635
     0.3635   0.3635   0.3740   0.3740   0.3740   0.3813   0.3813   0.3813
     0.4146   0.4146   0.4146   0.4361   0.4361   0.4361   0.4417   0.4417
     0.4417   0.4425   0.4425   0.4425   0.4543   0.4543   0.4574   0.4574
     0.4574   0.4603   0.4604   0.4604   0.4624   0.4624   0.4625   0.4625
     0.5365   0.5412   0.5412   0.5649   0.5649   0.5649   0.5671   0.5671
     0.5671   1.1501   1.1502   1.1502   1.4693   1.4694   1.4694   2.3715
     2.3717   2.3717   2.4738   2.4739   2.4739   2.8953   2.9051   3.5262
     3.5262   3.5262   3.6286   3.6287   3.6287   4.1637   5.0353   5.1838
     5.1838   5.5546   5.5546   5.7664   5.7974

          k = 0.0332 0.0332 0.0997 ( 70401 PWs)   bands (ev):

   -81.2618 -81.2618 -81.2618 -81.2618 -81.2618 -81.2618 -81.2617 -81.2617
   -81.2617 -81.2617 -81.2617 -81.2617 -81.2617 -81.2617 -81.2614 -81.2611
   -47.0751 -47.0751 -47.0751 -47.0750 -47.0750 -47.0750 -47.0750 -47.0750
   -47.0750 -47.0749 -47.0749 -47.0749 -47.0748 -47.0748 -47.0748 -47.0748
   -47.0748 -47.0747 -47.0747 -47.0747 -47.0747 -47.0747 -47.0747 -47.0747
   -47.0746 -47.0746 -47.0746 -47.0746 -47.0746 -47.0746 -47.0746 -47.0746
   -47.0746 -47.0746 -47.0746 -47.0745 -47.0744 -47.0744 -47.0744 -47.0744
   -47.0744 -47.0743 -47.0743 -47.0743 -47.0743 -47.0741 -47.0741 -47.0741
    -0.2367   0.1402   0.1403   0.1446   0.1447   0.1447   0.1457   0.1673
     0.1703   0.2068   0.2086   0.2094   0.2095   0.2143   0.2143   0.2555
     0.2660   0.2749   0.2871   0.2881   0.2903   0.2904   0.2904   0.2941
     0.2941   0.2991   0.3024   0.3083   0.3146   0.3200   0.3200   0.3222
     0.3222   0.3336   0.3480   0.3499   0.3499   0.3524   0.3549   0.3549
     0.3583   0.3587   0.3885   0.3885   0.3925   0.3925   0.3939   0.3939
     0.4040   0.4367   0.4368   0.4376   0.4376   0.4401   0.4401   0.4431
     0.4438   0.4491   0.4491   0.4502   0.4558   0.4573   0.4573   0.4574
     0.4574   0.4575   0.4575   0.4605   0.4614   0.4615   0.4623   0.4625
     0.5264   0.5341   0.5405   0.5522   0.5547   0.5578   0.5578   0.5642
     0.5642   0.8713   1.1902   1.1903   1.5094   1.5095   1.8207   2.1633
     2.1634   2.3929   2.3972   2.3973   2.4911   2.8407   2.8690   3.5786
     3.6742   3.6742   3.6769   3.9088   3.9089   4.0159   4.8165   4.8436
     5.3604   5.5731   5.7123   5.8449   5.9541

          k = 0.0332 0.0332 0.1662 ( 70395 PWs)   bands (ev):

   -81.2618 -81.2618 -81.2618 -81.2618 -81.2618 -81.2617 -81.2617 -81.2617
   -81.2617 -81.2617 -81.2617 -81.2617 -81.2617 -81.2617 -81.2614 -81.2611
   -47.0751 -47.0750 -47.0750 -47.0750 -47.0750 -47.0750 -47.0750 -47.0750
   -47.0749 -47.0749 -47.0749 -47.0749 -47.0749 -47.0748 -47.0748 -47.0748
   -47.0748 -47.0748 -47.0747 -47.0747 -47.0747 -47.0747 -47.0747 -47.0746
   -47.0746 -47.0746 -47.0746 -47.0746 -47.0746 -47.0746 -47.0746 -47.0746
   -47.0745 -47.0745 -47.0745 -47.0745 -47.0744 -47.0744 -47.0744 -47.0744
   -47.0744 -47.0743 -47.0743 -47.0743 -47.0743 -47.0741 -47.0741 -47.0741
    -0.1638   0.1529   0.1529   0.1598   0.1598   0.1634   0.1634   0.1766
     0.1852   0.2099   0.2124   0.2192   0.2192   0.2272   0.2272   0.2381
     0.2476   0.2506   0.2599   0.2599   0.2649   0.2649   0.2709   0.2825
     0.2844   0.2883   0.2895   0.2930   0.3020   0.3020   0.3084   0.3152
     0.3153   0.3235   0.3400   0.3444   0.3444   0.3579   0.3579   0.3743
     0.3772   0.3831   0.3849   0.4061   0.4061   0.4095   0.4096   0.4178
     0.4259   0.4259   0.4288   0.4323   0.4323   0.4406   0.4406   0.4423
     0.4457   0.4462   0.4514   0.4514   0.4572   0.4593   0.4594   0.4595
     0.4607   0.4621   0.4623   0.4623   0.4627   0.4777   0.4822   0.4822
     0.5111   0.5206   0.5285   0.5317   0.5350   0.5460   0.5461   0.5564
     0.5564   0.6509   1.2694   1.2695   1.5884   1.5884   1.9358   1.9359
     2.1981   2.2210   2.2211   2.4346   2.5257   2.7571   2.8015   3.6816
     3.7438   3.7722   3.9923   3.9923   4.2791   4.2792   4.5358   4.5587
     5.6197   5.6884   5.7746   5.8271   5.8272

          k = 0.0332 0.0332 0.2327 ( 70398 PWs)   bands (ev):

   -81.2618 -81.2618 -81.2618 -81.2618 -81.2618 -81.2617 -81.2617 -81.2617
   -81.2617 -81.2617 -81.2617 -81.2617 -81.2617 -81.2617 -81.2614 -81.2611
   -47.0751 -47.0750 -47.0750 -47.0750 -47.0750 -47.0750 -47.0750 -47.0750
   -47.0750 -47.0749 -47.0749 -47.0749 -47.0749 -47.0749 -47.0749 -47.0748
   -47.0748 -47.0748 -47.0747 -47.0747 -47.0747 -47.0747 -47.0747 -47.0747
   -47.0746 -47.0746 -47.0746 -47.0746 -47.0746 -47.0746 -47.0745 -47.0745
   -47.0745 -47.0745 -47.0745 -47.0745 -47.0744 -47.0744 -47.0744 -47.0744
   -47.0744 -47.0744 -47.0743 -47.0743 -47.0743 -47.0741 -47.0741 -47.0741
    -0.0574   0.1720   0.1721   0.1808   0.1808   0.1860   0.1888   0.1902
     0.2059   0.2105   0.2150   0.2199   0.2229   0.2268   0.2269   0.2279
     0.2333   0.2342   0.2342   0.2353   0.2353   0.2450   0.2451   0.2463
     0.2577   0.2582   0.2769   0.2770   0.2919   0.2919   0.2936   0.2975
     0.3126   0.3149   0.3207   0.3542   0.3603   0.3603   0.3766   0.3766
     0.3974   0.4061   0.4061   0.4175   0.4175   0.4175   0.4175   0.4195
     0.4217   0.4252   0.4252   0.4306   0.4340   0.4340   0.4431   0.4446
     0.4446   0.4492   0.4495   0.4543   0.4562   0.4566   0.4566   0.4610
     0.4617   0.4639   0.4660   0.4872   0.4872   0.4913   0.4962   0.4966
     0.5015   0.5018   0.5059   0.5060   0.5251   0.5255   0.5300   0.5300
     0.5438   0.5438   1.3861   1.3862   1.7037   1.7038   1.7233   1.7234
     2.0286   2.0287   2.4955   2.5771   2.5941   2.6633   2.7215   3.3904
     3.8324   3.9123   4.2628   4.3118   4.3951   4.3951   4.7032   4.7032
     5.3298   5.3299   5.6534   5.6555   5.9582

          k = 0.0332 0.0332-0.2992 ( 70418 PWs)   bands (ev):

   -81.2618 -81.2618 -81.2618 -81.2618 -81.2618 -81.2617 -81.2617 -81.2617
   -81.2617 -81.2617 -81.2617 -81.2617 -81.2617 -81.2617 -81.2614 -81.2611
   -47.0750 -47.0750 -47.0750 -47.0750 -47.0750 -47.0750 -47.0749 -47.0749
   -47.0749 -47.0749 -47.0749 -47.0749 -47.0749 -47.0749 -47.0749 -47.0749
   -47.0748 -47.0748 -47.0747 -47.0747 -47.0747 -47.0747 -47.0747 -47.0747
   -47.0747 -47.0747 -47.0746 -47.0746 -47.0746 -47.0746 -47.0745 -47.0745
   -47.0745 -47.0745 -47.0745 -47.0745 -47.0745 -47.0745 -47.0744 -47.0744
   -47.0744 -47.0744 -47.0743 -47.0743 -47.0743 -47.0741 -47.0741 -47.0741
     0.0755   0.0756   0.1971   0.1971   0.1971   0.1971   0.2065   0.2065
     0.2065   0.2065   0.2071   0.2071   0.2074   0.2075   0.2176   0.2176
     0.2226   0.2226   0.2308   0.2308   0.2348   0.2348   0.2537   0.2537
     0.2538   0.2538   0.2670   0.2671   0.2671   0.2671   0.3012   0.3012
     0.3039   0.3039   0.3360   0.3360   0.3830   0.3830   0.3830   0.3830
     0.3977   0.3977   0.3977   0.3977   0.4155   0.4155   0.4266   0.4266
     0.4266   0.4266   0.4364   0.4364   0.4365   0.4365   0.4489   0.4489
     0.4529   0.4529   0.4530   0.4530   0.4601   0.4602   0.4614   0.4614
     0.4681   0.4681   0.4726   0.4726   0.4792   0.4792   0.4811   0.4811
     0.5101   0.5101   0.5101   0.5101   0.5123   0.5124   0.5267   0.5267
     0.5268   0.5268   1.5383   1.5383   1.5384   1.5384   1.8523   1.8523
     1.8524   1.8524   2.5732   2.5732   2.6438   2.6438   2.9975   2.9975
     4.0273   4.0273   4.0938   4.0938   4.8468   4.8469   4.8469   4.8469
     5.1650   5.1651   5.1651   5.1651   5.8316

          k = 0.0332 0.0997 0.0997 ( 70420 PWs)   bands (ev):

   -81.2618 -81.2618 -81.2618 -81.2618 -81.2618 -81.2618 -81.2617 -81.2617
   -81.2617 -81.2617 -81.2617 -81.2617 -81.2617 -81.2617 -81.2614 -81.2611
   -47.0751 -47.0750 -47.0750 -47.0750 -47.0750 -47.0750 -47.0750 -47.0750
   -47.0750 -47.0749 -47.0749 -47.0749 -47.0749 -47.0748 -47.0748 -47.0748
   -47.0748 -47.0748 -47.0747 -47.0747 -47.0747 -47.0747 -47.0747 -47.0747
   -47.0747 -47.0746 -47.0746 -47.0746 -47.0746 -47.0746 -47.0746 -47.0746
   -47.0746 -47.0745 -47.0745 -47.0745 -47.0744 -47.0744 -47.0744 -47.0744
   -47.0744 -47.0744 -47.0743 -47.0743 -47.0743 -47.0741 -47.0741 -47.0741
    -0.2005   0.1425   0.1498   0.1499   0.1531   0.1531   0.1553   0.1733
     0.1766   0.2103   0.2110   0.2111   0.2164   0.2164   0.2248   0.2393
     0.2546   0.2728   0.2728   0.2790   0.2817   0.2817   0.2838   0.2865
     0.2913   0.2933   0.2950   0.3083   0.3083   0.3090   0.3092   0.3114
     0.3148   0.3148   0.3540   0.3605   0.3605   0.3624   0.3651   0.3711
     0.3715   0.3715   0.3803   0.3872   0.3872   0.3915   0.4062   0.4062
     0.4179   0.4179   0.4336   0.4344   0.4393   0.4393   0.4402   0.4415
     0.4415   0.4488   0.4488   0.4494   0.4515   0.4545   0.4574   0.4574
     0.4599   0.4606   0.4610   0.4620   0.4627   0.4688   0.4775   0.4775
     0.5122   0.5287   0.5428   0.5452   0.5452   0.5468   0.5525   0.5525
     0.5657   0.9089   0.9090   1.2304   1.5492   1.8595   1.8596   1.9047
     2.1906   2.1907   2.4184   2.4185   2.5210   2.7607   2.8406   3.6211
     3.7220   3.7221   3.9128   3.9501   3.9501   4.2400   4.7681   4.7946
     5.2624   5.5433   5.6312   6.0268   6.0268

          k = 0.0332 0.0997 0.1662 ( 70362 PWs)   bands (ev):

   -81.2618 -81.2618 -81.2618 -81.2618 -81.2618 -81.2618 -81.2617 -81.2617
   -81.2617 -81.2617 -81.2617 -81.2617 -81.2617 -81.2617 -81.2614 -81.2611
   -47.0750 -47.0750 -47.0750 -47.0750 -47.0750 -47.0750 -47.0750 -47.0749
   -47.0749 -47.0749 -47.0749 -47.0749 -47.0748 -47.0748 -47.0748 -47.0748
   -47.0748 -47.0748 -47.0747 -47.0747 -47.0747 -47.0747 -47.0747 -47.0747
   -47.0746 -47.0746 -47.0746 -47.0746 -47.0746 -47.0746 -47.0746 -47.0746
   -47.0745 -47.0745 -47.0745 -47.0745 -47.0744 -47.0744 -47.0744 -47.0744
   -47.0744 -47.0743 -47.0743 -47.0743 -47.0743 -47.0741 -47.0741 -47.0741
    -0.1292   0.1514   0.1612   0.1665   0.1675   0.1680   0.1716   0.1826
     0.1910   0.2147   0.2167   0.2213   0.2217   0.2245   0.2297   0.2386
     0.2405   0.2475   0.2518   0.2522   0.2578   0.2604   0.2643   0.2781
     0.2814   0.2875   0.2896   0.2951   0.2967   0.2985   0.2986   0.3034
     0.3164   0.3225   0.3453   0.3618   0.3654   0.3702   0.3740   0.3790
     0.3840   0.3868   0.3940   0.4007   0.4027   0.4036   0.4097   0.4130
     0.4142   0.4270   0.4274   0.4290   0.4341   0.4361   0.4405   0.4423
     0.4430   0.4430   0.4442   0.4478   0.4506   0.4570   0.4570   0.4575
     0.4585   0.4590   0.4622   0.4640   0.4688   0.4853   0.4930   0.4963
     0.5008   0.5154   0.5221   0.5312   0.5315   0.5342   0.5417   0.5457
     0.5621   0.6791   0.9849   1.3094   1.6271   1.6583   1.9355   1.9677
     2.2339   2.2439   2.2481   2.4601   2.4749   2.6500   2.7715   3.6976
     3.8082   3.8166   4.0315   4.0327   4.3137   4.5858   4.6299   4.6457
     5.4186   5.4424   5.5459   5.7676   5.7782

          k = 0.0332 0.0997 0.2327 ( 70364 PWs)   bands (ev):

   -81.2618 -81.2618 -81.2618 -81.2618 -81.2618 -81.2618 -81.2617 -81.2617
   -81.2617 -81.2617 -81.2617 -81.2617 -81.2617 -81.2617 -81.2614 -81.2611
   -47.0750 -47.0750 -47.0750 -47.0750 -47.0750 -47.0750 -47.0749 -47.0749
   -47.0749 -47.0749 -47.0749 -47.0749 -47.0749 -47.0749 -47.0749 -47.0748
   -47.0748 -47.0748 -47.0747 -47.0747 -47.0747 -47.0747 -47.0747 -47.0747
   -47.0747 -47.0746 -47.0746 -47.0746 -47.0746 -47.0746 -47.0746 -47.0745
   -47.0745 -47.0745 -47.0745 -47.0745 -47.0744 -47.0744 -47.0744 -47.0744
   -47.0744 -47.0743 -47.0743 -47.0743 -47.0743 -47.0741 -47.0741 -47.0741
    -0.0266   0.1670   0.1780   0.1848   0.1853   0.1896   0.1923   0.1955
     0.2037   0.2114   0.2116   0.2159   0.2221   0.2243   0.2248   0.2284
     0.2309   0.2329   0.2353   0.2370   0.2396   0.2474   0.2588   0.2607
     0.2622   0.2657   0.2761   0.2792   0.2818   0.2868   0.2930   0.3023
     0.3099   0.3386   0.3415   0.3426   0.3683   0.3815   0.3818   0.3902
     0.3920   0.4028   0.4078   0.4092   0.4140   0.4142   0.4164   0.4192
     0.4195   0.4196   0.4239   0.4261   0.4323   0.4324   0.4342   0.4429
     0.4433   0.4476   0.4478   0.4507   0.4525   0.4553   0.4554   0.4557
     0.4633   0.4636   0.4672   0.4680   0.4703   0.4862   0.4926   0.4968
     0.5031   0.5043   0.5125   0.5128   0.5199   0.5222   0.5332   0.5347
     0.5361   0.5534   1.0992   1.4253   1.4384   1.7408   1.7585   2.0452
     2.0602   2.3208   2.3365   2.5207   2.5308   2.6239   2.6845   3.3854
     3.9555   4.1504   4.1558   4.3493   4.4272   4.4747   4.7301   5.0543
     5.0627   5.3294   5.3960   5.5984   5.6472

          k = 0.0332 0.0997-0.2992 ( 70392 PWs)   bands (ev):

   -81.2618 -81.2618 -81.2618 -81.2618 -81.2618 -81.2618 -81.2617 -81.2617
   -81.2617 -81.2617 -81.2617 -81.2617 -81.2617 -81.2617 -81.2614 -81.2611
   -47.0750 -47.0750 -47.0750 -47.0750 -47.0750 -47.0750 -47.0750 -47.0750
   -47.0749 -47.0749 -47.0749 -47.0749 -47.0749 -47.0749 -47.0749 -47.0749
   -47.0748 -47.0748 -47.0747 -47.0747 -47.0747 -47.0747 -47.0747 -47.0747
   -47.0746 -47.0746 -47.0746 -47.0746 -47.0746 -47.0746 -47.0745 -47.0745
   -47.0745 -47.0745 -47.0745 -47.0745 -47.0744 -47.0744 -47.0744 -47.0744
   -47.0744 -47.0744 -47.0743 -47.0743 -47.0743 -47.0741 -47.0741 -47.0741
     0.0960   0.0961   0.1887   0.1887   0.1992   0.1992   0.1996   0.1996
     0.2086   0.2086   0.2095   0.2095   0.2119   0.2119   0.2157   0.2157
     0.2359   0.2359   0.2371   0.2371   0.2450   0.2450   0.2521   0.2521
     0.2570   0.2570   0.2677   0.2677   0.2846   0.2846   0.2856   0.2856
     0.3162   0.3162   0.3582   0.3582   0.3650   0.3650   0.3863   0.3863
     0.4006   0.4006   0.4105   0.4105   0.4186   0.4187   0.4188   0.4188
     0.4265   0.4265   0.4331   0.4331   0.4332   0.4332   0.4439   0.4439
     0.4448   0.4448   0.4452   0.4452   0.4516   0.4516   0.4517   0.4517
     0.4688   0.4688   0.4746   0.4746   0.4797   0.4798   0.4802   0.4802
     0.4907   0.4907   0.5035   0.5035   0.5201   0.5201   0.5263   0.5263
     0.5400   0.5400   1.2509   1.2509   1.5759   1.5760   1.8870   1.8871
     2.1830   2.1830   2.4182   2.4182   2.5974   2.5974   3.0154   3.0154
     4.1349   4.1350   4.3017   4.3017   4.5834   4.5834   4.8675   4.8675
     5.1806   5.1806   5.4629   5.5282   5.5290

          k = 0.0332 0.1662 0.1662 ( 70389 PWs)   bands (ev):

   -81.2618 -81.2618 -81.2618 -81.2618 -81.2618 -81.2618 -81.2617 -81.2617
   -81.2617 -81.2617 -81.2617 -81.2617 -81.2617 -81.2617 -81.2614 -81.2611
   -47.0751 -47.0750 -47.0750 -47.0750 -47.0750 -47.0750 -47.0750 -47.0750
   -47.0750 -47.0749 -47.0749 -47.0749 -47.0749 -47.0748 -47.0748 -47.0748
   -47.0748 -47.0748 -47.0747 -47.0747 -47.0747 -47.0747 -47.0747 -47.0747
   -47.0747 -47.0747 -47.0746 -47.0746 -47.0746 -47.0746 -47.0746 -47.0745
   -47.0745 -47.0745 -47.0745 -47.0745 -47.0744 -47.0744 -47.0744 -47.0744
   -47.0744 -47.0744 -47.0743 -47.0743 -47.0743 -47.0741 -47.0741 -47.0741
    -0.0622   0.1558   0.1754   0.1754   0.1772   0.1772   0.1872   0.1921
     0.2040   0.2128   0.2196   0.2256   0.2267   0.2267   0.2282   0.2282
     0.2364   0.2365   0.2370   0.2485   0.2485   0.2513   0.2586   0.2742
     0.2795   0.2796   0.2831   0.2898   0.2955   0.2979   0.2979   0.3024
     0.3036   0.3402   0.3652   0.3653   0.3704   0.3794   0.3819   0.3879
     0.3889   0.3890   0.3938   0.4009   0.4071   0.4073   0.4073   0.4219
     0.4226   0.4226   0.4286   0.4286   0.4299   0.4299   0.4364   0.4372
     0.4373   0.4412   0.4412   0.4421   0.4486   0.4486   0.4550   0.4562
     0.4571   0.4590   0.4636   0.4666   0.4702   0.4770   0.4912   0.5024
     0.5132   0.5135   0.5135   0.5171   0.5172   0.5268   0.5268   0.5458
     0.5629   0.7429   0.7429   1.3876   1.4047   1.7029   2.0298   2.0299
     2.3009   2.3010   2.3029   2.3030   2.5112   2.6183   2.6874   3.5777
     3.8046   4.1119   4.1119   4.3808   4.3808   4.6078   4.7106   5.0281
     5.1671   5.3132   5.3133   5.4177   5.6181

          k = 0.0332 0.1662 0.2327 ( 70404 PWs)   bands (ev):

   -81.2618 -81.2618 -81.2618 -81.2618 -81.2618 -81.2618 -81.2617 -81.2617
   -81.2617 -81.2617 -81.2617 -81.2617 -81.2617 -81.2617 -81.2614 -81.2611
   -47.0750 -47.0750 -47.0750 -47.0750 -47.0750 -47.0750 -47.0750 -47.0749
   -47.0749 -47.0749 -47.0749 -47.0749 -47.0749 -47.0749 -47.0748 -47.0748
   -47.0748 -47.0748 -47.0747 -47.0747 -47.0747 -47.0747 -47.0747 -47.0747
   -47.0747 -47.0747 -47.0746 -47.0746 -47.0746 -47.0746 -47.0746 -47.0745
   -47.0745 -47.0745 -47.0745 -47.0745 -47.0745 -47.0744 -47.0744 -47.0744
   -47.0744 -47.0744 -47.0744 -47.0743 -47.0743 -47.0741 -47.0741 -47.0741
     0.0299   0.1659   0.1868   0.1877   0.1907   0.1911   0.1940   0.2025
     0.2037   0.2039   0.2050   0.2140   0.2189   0.2238   0.2278   0.2301
     0.2334   0.2381   0.2382   0.2444   0.2503   0.2546   0.2584   0.2701
     0.2726   0.2736   0.2742   0.2808   0.2844   0.2856   0.2913   0.3158
     0.3183   0.3370   0.3615   0.3687   0.3758   0.3802   0.3868   0.3904
     0.3973   0.4034   0.4066   0.4089   0.4097   0.4149   0.4175   0.4181
     0.4186   0.4191   0.4221   0.4255   0.4316   0.4322   0.4353   0.4354
     0.4383   0.4396   0.4417   0.4441   0.4445   0.4454   0.4503   0.4526
     0.4535   0.4567   0.4592   0.4667   0.4724   0.4843   0.4853   0.4901
     0.4919   0.4996   0.5038   0.5042   0.5191   0.5304   0.5353   0.5452
     0.5586   0.5621   0.8484   1.1824   1.5017   1.8134   1.8272   2.1197
     2.1217   2.3672   2.3770   2.3995   2.5801   2.6070   2.6787   3.3550
     4.0237   4.2263   4.4751   4.4879   4.5138   4.6807   4.7794   4.8356
     5.0356   5.1378   5.3017   5.4649   5.6263

          k = 0.0332 0.1662-0.2992 ( 70356 PWs)   bands (ev):

   -81.2618 -81.2618 -81.2618 -81.2618 -81.2618 -81.2618 -81.2617 -81.2617
   -81.2617 -81.2617 -81.2617 -81.2617 -81.2617 -81.2617 -81.2614 -81.2611
   -47.0750 -47.0750 -47.0750 -47.0750 -47.0750 -47.0750 -47.0749 -47.0749
   -47.0749 -47.0749 -47.0749 -47.0749 -47.0749 -47.0749 -47.0749 -47.0749
   -47.0748 -47.0748 -47.0747 -47.0747 -47.0747 -47.0747 -47.0747 -47.0747
   -47.0747 -47.0747 -47.0746 -47.0746 -47.0746 -47.0746 -47.0746 -47.0746
   -47.0745 -47.0745 -47.0745 -47.0745 -47.0744 -47.0744 -47.0744 -47.0744
   -47.0743 -47.0743 -47.0743 -47.0743 -47.0743 -47.0741 -47.0741 -47.0741
     0.1266   0.1266   0.1816   0.1816   0.1960   0.1960   0.2016   0.2016
     0.2032   0.2032   0.2091   0.2091   0.2180   0.2180   0.2228   0.2228
     0.2409   0.2409   0.2479   0.2479   0.2560   0.2560   0.2652   0.2652
     0.2695   0.2695   0.2704   0.2704   0.2728   0.2728   0.3061   0.3061
     0.3429   0.3429   0.3485   0.3485   0.3894   0.3894   0.3896   0.3896
     0.4030   0.4030   0.4148   0.4148   0.4169   0.4170   0.4174   0.4174
     0.4212   0.4212   0.4240   0.4240   0.4247   0.4247   0.4276   0.4276
     0.4288   0.4288   0.4483   0.4483   0.4488   0.4488   0.4497   0.4497
     0.4633   0.4633   0.4696   0.4696   0.4738   0.4738   0.4784   0.4784
     0.4845   0.4845   0.4942   0.4942   0.5095   0.5095   0.5399   0.5400
     0.5494   0.5494   0.9958   0.9958   1.6492   1.6492   1.9550   1.9550
     2.2338   2.2338   2.4724   2.4724   2.5110   2.5110   3.0413   3.0413
     4.3674   4.3674   4.3923   4.3923   4.5844   4.5844   4.8993   4.8993
     5.0358   5.0358   5.2007   5.2007   5.9876

          k = 0.0332 0.2327 0.2327 ( 70382 PWs)   bands (ev):

   -81.2618 -81.2618 -81.2618 -81.2618 -81.2618 -81.2618 -81.2617 -81.2617
   -81.2617 -81.2617 -81.2617 -81.2617 -81.2617 -81.2617 -81.2614 -81.2611
   -47.0750 -47.0750 -47.0750 -47.0750 -47.0750 -47.0750 -47.0750 -47.0750
   -47.0749 -47.0749 -47.0749 -47.0749 -47.0749 -47.0749 -47.0748 -47.0748
   -47.0748 -47.0748 -47.0747 -47.0747 -47.0747 -47.0747 -47.0747 -47.0747
   -47.0747 -47.0747 -47.0747 -47.0746 -47.0746 -47.0746 -47.0746 -47.0746
   -47.0745 -47.0745 -47.0745 -47.0745 -47.0745 -47.0744 -47.0744 -47.0744
   -47.0744 -47.0744 -47.0743 -47.0743 -47.0743 -47.0741 -47.0741 -47.0741
     0.0973   0.1687   0.1838   0.1839   0.1946   0.1946   0.1950   0.1950
     0.1992   0.2064   0.2102   0.2134   0.2170   0.2187   0.2320   0.2320
     0.2323   0.2431   0.2552   0.2552   0.2578   0.2578   0.2614   0.2684
     0.2684   0.2807   0.2860   0.2876   0.2926   0.2926   0.2955   0.3046
     0.3433   0.3514   0.3606   0.3606   0.3801   0.3890   0.3926   0.3934
     0.3991   0.4057   0.4058   0.4137   0.4137   0.4165   0.4176   0.4184
     0.4184   0.4202   0.4204   0.4205   0.4236   0.4312   0.4312   0.4327
     0.4375   0.4388   0.4388   0.4390   0.4390   0.4460   0.4460   0.4482
     0.4496   0.4558   0.4578   0.4674   0.4687   0.4709   0.4782   0.4853
     0.4880   0.4880   0.4980   0.5018   0.5018   0.5446   0.5446   0.5498
     0.5589   0.6408   0.6408   0.9606   1.6126   1.9189   1.9264   1.9265
     2.2026   2.2105   2.2106   2.4504   2.7462   2.7464   2.7709   3.2560
     4.0661   4.5671   4.5671   4.6374   4.6911   4.6912   4.7676   4.8363
     4.8385   4.8386   5.1793   5.4704   5.6461

          k = 0.0332 0.2327-0.2992 ( 70376 PWs)   bands (ev):

   -81.2618 -81.2618 -81.2618 -81.2618 -81.2618 -81.2618 -81.2617 -81.2617
   -81.2617 -81.2617 -81.2617 -81.2617 -81.2617 -81.2617 -81.2614 -81.2611
   -47.0750 -47.0750 -47.0750 -47.0750 -47.0750 -47.0750 -47.0750 -47.0750
   -47.0749 -47.0749 -47.0749 -47.0749 -47.0749 -47.0749 -47.0748 -47.0748
   -47.0748 -47.0748 -47.0747 -47.0747 -47.0747 -47.0747 -47.0747 -47.0747
   -47.0747 -47.0747 -47.0746 -47.0746 -47.0746 -47.0746 -47.0746 -47.0746
   -47.0745 -47.0745 -47.0745 -47.0745 -47.0745 -47.0744 -47.0744 -47.0744
   -47.0744 -47.0744 -47.0743 -47.0743 -47.0743 -47.0741 -47.0741 -47.0741
     0.1519   0.1519   0.1750   0.1750   0.1969   0.1969   0.2005   0.2005
     0.2015   0.2015   0.2058   0.2059   0.2231   0.2231   0.2264   0.2264
     0.2416   0.2416   0.2563   0.2563   0.2670   0.2670   0.2731   0.2731
     0.2761   0.2761   0.2826   0.2826   0.2851   0.2851   0.3167   0.3168
     0.3318   0.3318   0.3880   0.3880   0.3881   0.3881   0.3890   0.3890
     0.3981   0.3981   0.3994   0.3994   0.4067   0.4067   0.4224   0.4224
     0.4276   0.4276   0.4286   0.4286   0.4299   0.4299   0.4319   0.4319
     0.4424   0.4424   0.4427   0.4427   0.4430   0.4430   0.4444   0.4444
     0.4486   0.4487   0.4563   0.4564   0.4773   0.4773   0.4863   0.4863
     0.4875   0.4875   0.4925   0.4925   0.4991   0.4991   0.5496   0.5496
     0.5543   0.5543   0.7776   0.7776   1.7554   1.7554   2.0531   2.0531
     2.0534   2.0534   2.3225   2.3226   2.7974   2.7974   3.0482   3.0482
     4.3103   4.3103   4.6379   4.6379   4.6542   4.6542   4.8771   4.8772
     4.9130   4.9130   5.1945   5.1945   5.8859

          k = 0.0332-0.2992-0.2992 ( 70392 PWs)   bands (ev):

   -81.2618 -81.2618 -81.2618 -81.2618 -81.2618 -81.2618 -81.2617 -81.2617
   -81.2617 -81.2617 -81.2617 -81.2617 -81.2617 -81.2617 -81.2614 -81.2611
   -47.0750 -47.0750 -47.0750 -47.0750 -47.0750 -47.0750 -47.0750 -47.0750
   -47.0749 -47.0749 -47.0749 -47.0749 -47.0749 -47.0749 -47.0748 -47.0748
   -47.0748 -47.0748 -47.0748 -47.0747 -47.0747 -47.0747 -47.0747 -47.0747
   -47.0747 -47.0747 -47.0746 -47.0746 -47.0746 -47.0746 -47.0746 -47.0746
   -47.0745 -47.0745 -47.0745 -47.0745 -47.0745 -47.0745 -47.0744 -47.0744
   -47.0744 -47.0743 -47.0743 -47.0743 -47.0743 -47.0741 -47.0741 -47.0741
     0.1666   0.1666   0.1666   0.1666   0.2004   0.2004   0.2004   0.2004
     0.2008   0.2008   0.2008   0.2008   0.2262   0.2263   0.2263   0.2263
     0.2468   0.2468   0.2468   0.2468   0.2812   0.2812   0.2812   0.2812
     0.2896   0.2896   0.2896   0.2896   0.2910   0.2910   0.2911   0.2911
     0.3589   0.3589   0.3589   0.3589   0.3892   0.3892   0.3893   0.3893
     0.3972   0.3972   0.3972   0.3972   0.4176   0.4176   0.4176   0.4176
     0.4311   0.4312   0.4312   0.4312   0.4339   0.4339   0.4339   0.4339
     0.4362   0.4362   0.4362   0.4362   0.4383   0.4383   0.4383   0.4383
     0.4567   0.4568   0.4568   0.4568   0.4810   0.4810   0.4810   0.4810
     0.4918   0.4918   0.4918   0.4918   0.5544   0.5544   0.5544   0.5544
     0.6022   0.6022   0.6022   0.6022   1.8912   1.8913   1.8913   1.8913
     2.1781   2.1782   2.1782   2.1782   2.9834   2.9834   2.9835   2.9835
     4.3924   4.3924   4.3925   4.3925   4.8427   4.8427   4.8428   4.8428
     5.0998   5.0998   5.0999   5.0999   5.9417

          k = 0.0997 0.0997 0.0997 ( 70394 PWs)   bands (ev):

   -81.2618 -81.2618 -81.2618 -81.2618 -81.2618 -81.2618 -81.2617 -81.2617
   -81.2617 -81.2617 -81.2617 -81.2617 -81.2617 -81.2617 -81.2614 -81.2611
   -47.0751 -47.0750 -47.0750 -47.0750 -47.0750 -47.0750 -47.0750 -47.0749
   -47.0749 -47.0749 -47.0749 -47.0749 -47.0749 -47.0748 -47.0748 -47.0748
   -47.0747 -47.0747 -47.0747 -47.0747 -47.0747 -47.0747 -47.0747 -47.0747
   -47.0747 -47.0747 -47.0747 -47.0746 -47.0746 -47.0746 -47.0746 -47.0746
   -47.0746 -47.0745 -47.0745 -47.0745 -47.0744 -47.0744 -47.0744 -47.0744
   -47.0744 -47.0743 -47.0743 -47.0743 -47.0743 -47.0741 -47.0741 -47.0741
    -0.1648   0.1526   0.1526   0.1526   0.1623   0.1623   0.1623   0.1810
     0.1810   0.2116   0.2116   0.2116   0.2247   0.2271   0.2272   0.2272
     0.2624   0.2624   0.2624   0.2655   0.2655   0.2759   0.2759   0.2759
     0.2849   0.2849   0.2987   0.2987   0.2987   0.3133   0.3133   0.3133
     0.3219   0.3396   0.3396   0.3627   0.3627   0.3627   0.3685   0.3685
     0.3685   0.3698   0.3811   0.3811   0.3811   0.4103   0.4103   0.4103
     0.4338   0.4338   0.4338   0.4359   0.4359   0.4359   0.4381   0.4381
     0.4381   0.4416   0.4416   0.4416   0.4510   0.4510   0.4599   0.4599
     0.4599   0.4605   0.4605   0.4622   0.4622   0.4867   0.4868   0.4868
     0.4952   0.5333   0.5334   0.5334   0.5357   0.5357   0.5549   0.5549
     0.5549   0.9480   0.9480   0.9480   1.8975   1.8976   1.8976   1.9367
     1.9368   1.9368   2.5383   2.5385   2.5385   2.6338   2.8583   3.6726
     3.6726   3.6726   3.8339   4.2752   4.2753   4.2753   4.7871   4.9243
     4.9243   5.5897   5.5897   5.8599   5.8600

          k = 0.0997 0.0997 0.1662 ( 70401 PWs)   bands (ev):

   -81.2618 -81.2618 -81.2618 -81.2618 -81.2618 -81.2618 -81.2617 -81.2617
   -81.2617 -81.2617 -81.2617 -81.2617 -81.2617 -81.2617 -81.2614 -81.2611
   -47.0751 -47.0750 -47.0750 -47.0750 -47.0750 -47.0750 -47.0750 -47.0749
   -47.0749 -47.0749 -47.0749 -47.0749 -47.0749 -47.0748 -47.0748 -47.0748
   -47.0748 -47.0748 -47.0748 -47.0747 -47.0747 -47.0747 -47.0747 -47.0747
   -47.0747 -47.0746 -47.0746 -47.0746 -47.0746 -47.0746 -47.0746 -47.0746
   -47.0745 -47.0745 -47.0745 -47.0745 -47.0744 -47.0744 -47.0744 -47.0744
   -47.0744 -47.0743 -47.0743 -47.0743 -47.0743 -47.0741 -47.0741 -47.0741
    -0.0952   0.1612   0.1612   0.1716   0.1736   0.1769   0.1769   0.1895
     0.1957   0.2125   0.2143   0.2181   0.2181   0.2338   0.2386   0.2387
     0.2422   0.2426   0.2426   0.2486   0.2554   0.2642   0.2663   0.2663
     0.2809   0.2871   0.2872   0.2956   0.2956   0.2960   0.2960   0.3090
     0.3191   0.3394   0.3508   0.3524   0.3524   0.3694   0.3748   0.3767
     0.3767   0.3843   0.3922   0.3996   0.3996   0.4139   0.4139   0.4145
     0.4145   0.4291   0.4316   0.4316   0.4319   0.4329   0.4377   0.4377
     0.4401   0.4441   0.4442   0.4545   0.4557   0.4557   0.4570   0.4571
     0.4582   0.4600   0.4600   0.4604   0.4651   0.4733   0.5017   0.5017
     0.5035   0.5089   0.5180   0.5180   0.5223   0.5354   0.5383   0.5523
     0.5523   0.7126   1.0254   1.0255   1.6939   1.6940   1.9720   1.9720
     1.9992   2.2687   2.4861   2.4959   2.4960   2.5732   2.8230   3.6573
     3.7740   3.8550   3.8550   4.3441   4.6188   4.6592   4.6593   4.7684
     5.1666   5.3907   5.5042   5.5043   5.6302

          k = 0.0997 0.0997 0.2327 ( 70385 PWs)   bands (ev):

   -81.2618 -81.2618 -81.2618 -81.2618 -81.2618 -81.2618 -81.2617 -81.2617
   -81.2617 -81.2617 -81.2617 -81.2617 -81.2617 -81.2617 -81.2614 -81.2611
   -47.0750 -47.0750 -47.0750 -47.0750 -47.0750 -47.0750 -47.0749 -47.0749
   -47.0749 -47.0749 -47.0749 -47.0749 -47.0749 -47.0749 -47.0749 -47.0749
   -47.0748 -47.0748 -47.0747 -47.0747 -47.0747 -47.0747 -47.0747 -47.0747
   -47.0747 -47.0746 -47.0746 -47.0746 -47.0746 -47.0746 -47.0746 -47.0746
   -47.0745 -47.0745 -47.0745 -47.0745 -47.0744 -47.0744 -47.0744 -47.0744
   -47.0744 -47.0744 -47.0743 -47.0743 -47.0743 -47.0741 -47.0741 -47.0741
     0.0036   0.1750   0.1751   0.1851   0.1962   0.1962   0.1966   0.2018
     0.2028   0.2033   0.2150   0.2150   0.2161   0.2189   0.2306   0.2307
     0.2355   0.2355   0.2436   0.2436   0.2477   0.2486   0.2612   0.2612
     0.2652   0.2713   0.2713   0.2818   0.2906   0.2944   0.2945   0.2946
     0.3021   0.3191   0.3522   0.3523   0.3616   0.3909   0.3909   0.3939
     0.3939   0.3968   0.3971   0.4070   0.4098   0.4164   0.4185   0.4185
     0.4206   0.4206   0.4271   0.4271   0.4275   0.4281   0.4281   0.4342
     0.4455   0.4473   0.4486   0.4499   0.4500   0.4552   0.4562   0.4572
     0.4602   0.4604   0.4614   0.4703   0.4703   0.4723   0.4773   0.5009
     0.5010   0.5037   0.5109   0.5179   0.5182   0.5182   0.5359   0.5449
     0.5449   0.5489   1.1402   1.1402   1.4767   1.4767   2.0794   2.0795
     2.0893   2.3386   2.3631   2.3632   2.6241   2.6523   2.7591   3.3799
     3.9227   4.1940   4.1941   4.3483   4.4424   4.6816   5.0605   5.0605
     5.0847   5.0848   5.3105   5.4533   5.5031

          k = 0.0997 0.0997-0.2992 ( 70394 PWs)   bands (ev):

   -81.2618 -81.2618 -81.2618 -81.2618 -81.2618 -81.2618 -81.2617 -81.2617
   -81.2617 -81.2617 -81.2617 -81.2617 -81.2617 -81.2617 -81.2614 -81.2611
   -47.0750 -47.0750 -47.0750 -47.0750 -47.0750 -47.0750 -47.0750 -47.0750
   -47.0749 -47.0749 -47.0749 -47.0749 -47.0749 -47.0749 -47.0749 -47.0749
   -47.0748 -47.0748 -47.0747 -47.0747 -47.0747 -47.0747 -47.0747 -47.0747
   -47.0746 -47.0746 -47.0746 -47.0746 -47.0746 -47.0746 -47.0745 -47.0745
   -47.0745 -47.0745 -47.0744 -47.0744 -47.0744 -47.0744 -47.0744 -47.0744
   -47.0744 -47.0744 -47.0743 -47.0743 -47.0743 -47.0741 -47.0741 -47.0741
     0.1164   0.1164   0.1933   0.1933   0.1934   0.1934   0.1944   0.1944
     0.2173   0.2174   0.2191   0.2191   0.2191   0.2191   0.2239   0.2239
     0.2257   0.2257   0.2401   0.2401   0.2487   0.2487   0.2487   0.2487
     0.2691   0.2691   0.2804   0.2804   0.2804   0.2804   0.2921   0.2921
     0.2957   0.2957   0.3682   0.3682   0.3682   0.3682   0.3898   0.3898
     0.4126   0.4126   0.4126   0.4126   0.4172   0.4172   0.4215   0.4215
     0.4224   0.4224   0.4227   0.4227   0.4227   0.4227   0.4380   0.4381
     0.4381   0.4381   0.4416   0.4417   0.4512   0.4512   0.4522   0.4522
     0.4603   0.4603   0.4799   0.4800   0.4814   0.4814   0.4847   0.4847
     0.4847   0.4847   0.4877   0.4877   0.5289   0.5289   0.5332   0.5332
     0.5332   0.5332   1.2911   1.2911   1.2912   1.2912   2.2039   2.2039
     2.2139   2.2139   2.2140   2.2140   2.6883   2.6883   3.0320   3.0320
     4.1152   4.1152   4.5612   4.5612   4.6101   4.6101   4.6101   4.6101
     5.3402   5.3403   5.5395   5.5395   5.5396

          k = 0.0997 0.1662 0.1662 ( 70378 PWs)   bands (ev):

   -81.2618 -81.2618 -81.2618 -81.2618 -81.2618 -81.2618 -81.2617 -81.2617
   -81.2617 -81.2617 -81.2617 -81.2617 -81.2617 -81.2617 -81.2614 -81.2611
   -47.0751 -47.0750 -47.0750 -47.0750 -47.0750 -47.0750 -47.0750 -47.0750
   -47.0749 -47.0749 -47.0749 -47.0749 -47.0749 -47.0748 -47.0748 -47.0748
   -47.0748 -47.0748 -47.0747 -47.0747 -47.0747 -47.0747 -47.0747 -47.0747
   -47.0747 -47.0747 -47.0746 -47.0746 -47.0746 -47.0746 -47.0746 -47.0745
   -47.0745 -47.0745 -47.0745 -47.0745 -47.0744 -47.0744 -47.0744 -47.0744
   -47.0744 -47.0743 -47.0743 -47.0743 -47.0743 -47.0741 -47.0741 -47.0741
    -0.0298   0.1664   0.1787   0.1787   0.1847   0.1847   0.1917   0.1998
     0.2039   0.2076   0.2206   0.2216   0.2216   0.2239   0.2239   0.2258
     0.2401   0.2494   0.2495   0.2554   0.2554   0.2591   0.2655   0.2678
     0.2750   0.2790   0.2884   0.2887   0.2887   0.2920   0.2921   0.2955
     0.3258   0.3530   0.3530   0.3551   0.3630   0.3680   0.3703   0.3703
     0.3769   0.3867   0.3930   0.4028   0.4032   0.4032   0.4124   0.4124
     0.4209   0.4266   0.4326   0.4326   0.4367   0.4367   0.4379   0.4406
     0.4406   0.4439   0.4484   0.4484   0.4488   0.4524   0.4554   0.4554
     0.4562   0.4589   0.4599   0.4602   0.4657   0.4679   0.4947   0.4947
     0.4979   0.5054   0.5153   0.5163   0.5163   0.5346   0.5347   0.5388
     0.5538   0.7828   0.7828   1.1044   1.4434   1.7631   1.7631   2.0434
     2.3099   2.3357   2.3358   2.5371   2.5372   2.6358   2.8048   3.5518
     3.8546   3.9473   3.9473   4.6229   4.7150   4.7150   4.8795   5.0519
     5.0835   5.2130   5.2816   5.2816   5.3557

          k = 0.0997 0.1662 0.2327 ( 70380 PWs)   bands (ev):

   -81.2618 -81.2618 -81.2618 -81.2618 -81.2618 -81.2618 -81.2617 -81.2617
   -81.2617 -81.2617 -81.2617 -81.2617 -81.2617 -81.2617 -81.2614 -81.2611
   -47.0750 -47.0750 -47.0750 -47.0750 -47.0750 -47.0750 -47.0750 -47.0749
   -47.0749 -47.0749 -47.0749 -47.0749 -47.0749 -47.0749 -47.0748 -47.0748
   -47.0748 -47.0748 -47.0748 -47.0747 -47.0747 -47.0747 -47.0747 -47.0747
   -47.0747 -47.0746 -47.0746 -47.0746 -47.0746 -47.0746 -47.0745 -47.0745
   -47.0745 -47.0745 -47.0745 -47.0745 -47.0745 -47.0744 -47.0744 -47.0744
   -47.0744 -47.0744 -47.0743 -47.0743 -47.0743 -47.0741 -47.0741 -47.0741
     0.0586   0.1763   0.1881   0.1908   0.1984   0.1995   0.2003   0.2007
     0.2061   0.2096   0.2114   0.2121   0.2271   0.2281   0.2290   0.2291
     0.2366   0.2402   0.2443   0.2451   0.2594   0.2640   0.2641   0.2660
     0.2713   0.2742   0.2776   0.2800   0.2805   0.2837   0.2963   0.3019
     0.3089   0.3374   0.3448   0.3586   0.3687   0.3702   0.3836   0.3896
     0.3906   0.3943   0.3999   0.4001   0.4080   0.4144   0.4153   0.4167
     0.4220   0.4245   0.4260   0.4287   0.4312   0.4333   0.4334   0.4371
     0.4427   0.4433   0.4434   0.4444   0.4476   0.4528   0.4541   0.4544
     0.4563   0.4576   0.4599   0.4611   0.4714   0.4725   0.4762   0.4778
     0.4843   0.4983   0.5126   0.5128   0.5279   0.5297   0.5303   0.5392
     0.5504   0.5952   0.8917   1.2194   1.2238   1.5508   1.8628   2.1409
     2.1462   2.4149   2.4292   2.5962   2.6275   2.7047   2.7438   3.3502
     4.0688   4.0824   4.2680   4.4534   4.7897   4.8502   4.9116   5.0474
     5.0632   5.1200   5.1231   5.3181   5.4814

          k = 0.0997 0.1662-0.2992 ( 70396 PWs)   bands (ev):

   -81.2618 -81.2618 -81.2618 -81.2618 -81.2618 -81.2618 -81.2617 -81.2617
   -81.2617 -81.2617 -81.2617 -81.2617 -81.2617 -81.2617 -81.2614 -81.2611
   -47.0750 -47.0750 -47.0750 -47.0750 -47.0750 -47.0750 -47.0750 -47.0750
   -47.0749 -47.0749 -47.0749 -47.0749 -47.0749 -47.0749 -47.0749 -47.0749
   -47.0748 -47.0748 -47.0747 -47.0747 -47.0747 -47.0747 -47.0747 -47.0747
   -47.0747 -47.0747 -47.0746 -47.0746 -47.0746 -47.0746 -47.0746 -47.0746
   -47.0745 -47.0745 -47.0745 -47.0745 -47.0744 -47.0744 -47.0744 -47.0744
   -47.0744 -47.0744 -47.0743 -47.0743 -47.0743 -47.0741 -47.0741 -47.0741
     0.1468   0.1468   0.1898   0.1898   0.1947   0.1947   0.1993   0.1993
     0.2161   0.2161   0.2209   0.2209   0.2251   0.2251   0.2284   0.2284
     0.2435   0.2435   0.2437   0.2437   0.2505   0.2505   0.2575   0.2575
     0.2735   0.2735   0.2794   0.2794   0.2854   0.2854   0.2955   0.2955
     0.3146   0.3146   0.3457   0.3457   0.3708   0.3708   0.3950   0.3950
     0.3988   0.3988   0.4118   0.4118   0.4228   0.4228   0.4241   0.4241
     0.4253   0.4253   0.4261   0.4261   0.4288   0.4288   0.4299   0.4299
     0.4301   0.4301   0.4355   0.4355   0.4488   0.4488   0.4504   0.4504
     0.4631   0.4631   0.4670   0.4670   0.4771   0.4771   0.4779   0.4779
     0.4864   0.4864   0.4917   0.4917   0.5216   0.5216   0.5357   0.5357
     0.5423   0.5423   1.0391   1.0391   1.3687   1.3687   1.9900   1.9900
     2.2743   2.2743   2.5365   2.5365   2.6682   2.6682   3.0553   3.0553
     4.2551   4.2552   4.4265   4.4265   4.6555   4.6555   4.8665   4.8665
     5.0377   5.0377   5.5487   5.6988   5.6989

          k = 0.0997 0.2327 0.2327 ( 70338 PWs)   bands (ev):

   -81.2618 -81.2618 -81.2618 -81.2618 -81.2618 -81.2618 -81.2617 -81.2617
   -81.2617 -81.2617 -81.2617 -81.2617 -81.2617 -81.2617 -81.2614 -81.2611
   -47.0750 -47.0750 -47.0750 -47.0750 -47.0750 -47.0750 -47.0750 -47.0749
   -47.0749 -47.0749 -47.0749 -47.0749 -47.0749 -47.0749 -47.0748 -47.0748
   -47.0748 -47.0748 -47.0748 -47.0747 -47.0747 -47.0747 -47.0747 -47.0747
   -47.0747 -47.0746 -47.0746 -47.0746 -47.0746 -47.0746 -47.0745 -47.0745
   -47.0745 -47.0745 -47.0745 -47.0745 -47.0744 -47.0744 -47.0744 -47.0744
   -47.0744 -47.0743 -47.0743 -47.0743 -47.0743 -47.0741 -47.0741 -47.0741
     0.1230   0.1809   0.1945   0.1946   0.1977   0.2007   0.2007   0.2016
     0.2016   0.2077   0.2187   0.2213   0.2230   0.2326   0.2330   0.2399
     0.2399   0.2456   0.2482   0.2482   0.2589   0.2589   0.2618   0.2674
     0.2787   0.2787   0.2817   0.2856   0.2916   0.2916   0.2961   0.3103
     0.3163   0.3433   0.3437   0.3438   0.3628   0.3778   0.3817   0.3817
     0.3862   0.3877   0.3877   0.3940   0.3954   0.4219   0.4229   0.4229
     0.4232   0.4232   0.4272   0.4322   0.4334   0.4340   0.4389   0.4389
     0.4412   0.4412   0.4451   0.4451   0.4487   0.4495   0.4503   0.4541
     0.4543   0.4554   0.4554   0.4574   0.4634   0.4724   0.4724   0.4734
     0.4826   0.4834   0.5090   0.5114   0.5114   0.5387   0.5387   0.5428
     0.5510   0.6870   0.6870   1.0052   1.3334   1.6574   1.6575   1.9562
     2.2420   2.4884   2.4885   2.6707   2.7686   2.7687   2.7873   3.2566
     4.1145   4.3704   4.3704   4.5337   4.7167   4.7167   4.8138   4.9447
     5.0932   5.1628   5.1629   5.3167   5.9741

          k = 0.0997 0.2327-0.2992 ( 70358 PWs)   bands (ev):

   -81.2618 -81.2618 -81.2618 -81.2618 -81.2618 -81.2618 -81.2617 -81.2617
   -81.2617 -81.2617 -81.2617 -81.2617 -81.2617 -81.2617 -81.2614 -81.2611
   -47.0750 -47.0750 -47.0750 -47.0750 -47.0750 -47.0750 -47.0750 -47.0750
   -47.0749 -47.0749 -47.0749 -47.0749 -47.0749 -47.0749 -47.0748 -47.0748
   -47.0748 -47.0748 -47.0748 -47.0748 -47.0747 -47.0747 -47.0747 -47.0747
   -47.0747 -47.0747 -47.0746 -47.0746 -47.0746 -47.0746 -47.0745 -47.0745
   -47.0745 -47.0745 -47.0745 -47.0745 -47.0744 -47.0744 -47.0744 -47.0744
   -47.0743 -47.0743 -47.0743 -47.0743 -47.0743 -47.0741 -47.0741 -47.0741
     0.1710   0.1710   0.1875   0.1875   0.1996   0.1996   0.2035   0.2035
     0.2102   0.2102   0.2162   0.2162   0.2311   0.2311   0.2338   0.2338
     0.2428   0.2428   0.2576   0.2576   0.2619   0.2619   0.2686   0.2687
     0.2687   0.2687   0.2869   0.2869   0.2965   0.2965   0.3113   0.3113
     0.3234   0.3234   0.3493   0.3493   0.3667   0.3667   0.3714   0.3714
     0.3821   0.3821   0.3995   0.3995   0.4045   0.4046   0.4173   0.4173
     0.4307   0.4307   0.4309   0.4309   0.4312   0.4312   0.4348   0.4348
     0.4383   0.4383   0.4437   0.4437   0.4489   0.4489   0.4532   0.4533
     0.4580   0.4580   0.4645   0.4645   0.4666   0.4666   0.4732   0.4732
     0.4945   0.4945   0.5091   0.5091   0.5374   0.5374   0.5429   0.5429
     0.5469   0.5469   0.8250   0.8250   1.4800   1.4800   1.7936   1.7936
     2.3604   2.3604   2.5778   2.5778   2.8155   2.8155   3.0596   3.0597
     4.3529   4.3529   4.4802   4.4802   4.6927   4.6927   4.6938   4.6938
     5.1705   5.1706   5.5238   5.5718   5.5718

          k = 0.0997-0.2992-0.2992 ( 70368 PWs)   bands (ev):

   -81.2618 -81.2618 -81.2618 -81.2618 -81.2618 -81.2618 -81.2617 -81.2617
   -81.2617 -81.2617 -81.2617 -81.2617 -81.2617 -81.2617 -81.2614 -81.2611
   -47.0750 -47.0750 -47.0750 -47.0750 -47.0750 -47.0750 -47.0750 -47.0750
   -47.0749 -47.0749 -47.0749 -47.0749 -47.0749 -47.0749 -47.0748 -47.0748
   -47.0748 -47.0748 -47.0748 -47.0748 -47.0747 -47.0747 -47.0747 -47.0747
   -47.0747 -47.0747 -47.0747 -47.0747 -47.0746 -47.0746 -47.0745 -47.0745
   -47.0745 -47.0745 -47.0745 -47.0745 -47.0744 -47.0744 -47.0744 -47.0744
   -47.0743 -47.0743 -47.0743 -47.0743 -47.0743 -47.0741 -47.0741 -47.0741
     0.1830   0.1830   0.1831   0.1831   0.2065   0.2065   0.2065   0.2065
     0.2076   0.2076   0.2076   0.2076   0.2344   0.2344   0.2344   0.2344
     0.2473   0.2473   0.2473   0.2473   0.2725   0.2725   0.2725   0.2725
     0.2922   0.2922   0.2922   0.2922   0.2963   0.2963   0.2963   0.2963
     0.3399   0.3400   0.3400   0.3400   0.3730   0.3730   0.3730   0.3730
     0.3868   0.3868   0.3868   0.3868   0.3938   0.3939   0.3939   0.3939
     0.4336   0.4336   0.4336   0.4336   0.4373   0.4373   0.4374   0.4374
     0.4451   0.4451   0.4451   0.4451   0.4489   0.4490   0.4490   0.4490
     0.4558   0.4558   0.4558   0.4558   0.4698   0.4698   0.4698   0.4698
     0.4996   0.4996   0.4996   0.4996   0.5471   0.5471   0.5471   0.5471
     0.6549   0.6549   0.6549   0.6549   1.6223   1.6223   1.6224   1.6224
     2.4659   2.4659   2.4660   2.4660   2.9955   2.9955   2.9956   2.9956
     4.4395   4.4395   4.4395   4.4395   4.6565   4.6565   4.6565   4.6565
     5.4072   5.6165   5.6169   5.6170   5.6171

          k = 0.1662 0.1662 0.1662 ( 70398 PWs)   bands (ev):

   -81.2618 -81.2618 -81.2618 -81.2618 -81.2618 -81.2618 -81.2617 -81.2617
   -81.2617 -81.2617 -81.2617 -81.2617 -81.2617 -81.2617 -81.2614 -81.2611
   -47.0750 -47.0750 -47.0750 -47.0750 -47.0750 -47.0750 -47.0749 -47.0749
   -47.0749 -47.0749 -47.0749 -47.0749 -47.0749 -47.0749 -47.0749 -47.0749
   -47.0748 -47.0748 -47.0748 -47.0748 -47.0748 -47.0747 -47.0747 -47.0747
   -47.0747 -47.0746 -47.0746 -47.0746 -47.0746 -47.0746 -47.0745 -47.0745
   -47.0745 -47.0745 -47.0745 -47.0745 -47.0744 -47.0744 -47.0744 -47.0744
   -47.0743 -47.0743 -47.0743 -47.0743 -47.0743 -47.0741 -47.0741 -47.0741
     0.0316   0.1859   0.1859   0.1859   0.1974   0.1974   0.1974   0.1992
     0.2145   0.2145   0.2171   0.2172   0.2172   0.2228   0.2228   0.2228
     0.2512   0.2512   0.2638   0.2639   0.2639   0.2653   0.2653   0.2653
     0.2764   0.2764   0.2810   0.2810   0.2810   0.2918   0.2918   0.2918
     0.3416   0.3416   0.3416   0.3477   0.3477   0.3592   0.3593   0.3593
     0.3839   0.3911   0.3911   0.3911   0.3957   0.4103   0.4103   0.4103
     0.4223   0.4347   0.4347   0.4347   0.4402   0.4402   0.4402   0.4405
     0.4405   0.4405   0.4473   0.4473   0.4567   0.4567   0.4587   0.4587
     0.4587   0.4590   0.4590   0.4590   0.4661   0.4661   0.4716   0.4717
     0.4717   0.5175   0.5175   0.5175   0.5254   0.5254   0.5373   0.5373
     0.5373   0.8601   0.8602   0.8602   1.5180   1.5181   1.5181   2.1091
     2.3986   2.3988   2.3988   2.6698   2.6700   2.6700   2.8452   3.4791
     3.9534   3.9534   3.9534   4.7821   4.7821   5.0517   5.0951   5.0951
     5.0952   5.1499   5.1501   5.1501   5.3039

          k = 0.1662 0.1662 0.2327 ( 70379 PWs)   bands (ev):

   -81.2618 -81.2618 -81.2618 -81.2618 -81.2618 -81.2618 -81.2617 -81.2617
   -81.2617 -81.2617 -81.2617 -81.2617 -81.2617 -81.2617 -81.2614 -81.2611
   -47.0750 -47.0750 -47.0750 -47.0750 -47.0750 -47.0750 -47.0749 -47.0749
   -47.0749 -47.0749 -47.0749 -47.0749 -47.0749 -47.0749 -47.0749 -47.0748
   -47.0748 -47.0748 -47.0748 -47.0748 -47.0748 -47.0748 -47.0747 -47.0747
   -47.0747 -47.0746 -47.0746 -47.0746 -47.0745 -47.0745 -47.0745 -47.0745
   -47.0745 -47.0745 -47.0745 -47.0745 -47.0744 -47.0744 -47.0744 -47.0744
   -47.0743 -47.0743 -47.0743 -47.0743 -47.0743 -47.0741 -47.0741 -47.0741
     0.1106   0.1942   0.1942   0.1980   0.1998   0.2067   0.2095   0.2096
     0.2106   0.2146   0.2146   0.2244   0.2264   0.2325   0.2325   0.2345
     0.2402   0.2506   0.2507   0.2558   0.2558   0.2727   0.2740   0.2740
     0.2768   0.2772   0.2772   0.2772   0.2789   0.2833   0.2833   0.2870
     0.3234   0.3264   0.3381   0.3381   0.3457   0.3663   0.3679   0.3679
     0.3775   0.3775   0.3871   0.3898   0.3943   0.4198   0.4198   0.4203
     0.4352   0.4352   0.4365   0.4365   0.4379   0.4382   0.4398   0.4398
     0.4398   0.4410   0.4410   0.4443   0.4465   0.4530   0.4552   0.4568
     0.4573   0.4584   0.4612   0.4624   0.4638   0.4638   0.4643   0.4643
     0.4777   0.5071   0.5164   0.5227   0.5227   0.5263   0.5307   0.5353
     0.5353   0.6642   0.9729   0.9729   1.3026   1.3026   1.6249   1.9237
     2.4861   2.4862   2.6667   2.6668   2.7181   2.7521   2.8244   3.3252
     4.0985   4.1573   4.1573   4.5157   4.8565   4.8566   5.0150   5.0665
     5.0713   5.1466   5.1614   5.4406   5.5074

          k = 0.1662 0.1662-0.2992 ( 70352 PWs)   bands (ev):

   -81.2618 -81.2618 -81.2618 -81.2618 -81.2618 -81.2618 -81.2617 -81.2617
   -81.2617 -81.2617 -81.2617 -81.2617 -81.2617 -81.2617 -81.2614 -81.2611
   -47.0750 -47.0750 -47.0750 -47.0750 -47.0750 -47.0750 -47.0750 -47.0749
   -47.0749 -47.0749 -47.0749 -47.0749 -47.0749 -47.0749 -47.0749 -47.0749
   -47.0748 -47.0748 -47.0748 -47.0748 -47.0748 -47.0748 -47.0747 -47.0747
   -47.0747 -47.0747 -47.0746 -47.0746 -47.0746 -47.0746 -47.0745 -47.0745
   -47.0745 -47.0745 -47.0745 -47.0745 -47.0744 -47.0744 -47.0744 -47.0744
   -47.0743 -47.0743 -47.0743 -47.0743 -47.0743 -47.0741 -47.0741 -47.0741
     0.1781   0.1781   0.1990   0.1990   0.2019   0.2019   0.2019   0.2019
     0.2320   0.2321   0.2348   0.2349   0.2349   0.2349   0.2349   0.2349
     0.2367   0.2367   0.2508   0.2508   0.2508   0.2508   0.2570   0.2570
     0.2825   0.2825   0.2854   0.2854   0.2854   0.2854   0.2885   0.2885
     0.2985   0.2985   0.3476   0.3477   0.3477   0.3477   0.3672   0.3672
     0.3794   0.3794   0.4082   0.4082   0.4082   0.4082   0.4099   0.4099
     0.4292   0.4292   0.4292   0.4292   0.4306   0.4306   0.4379   0.4379
     0.4379   0.4379   0.4491   0.4491   0.4513   0.4513   0.4537   0.4537
     0.4579   0.4579   0.4649   0.4649   0.4650   0.4650   0.4854   0.4854
     0.4952   0.4952   0.5281   0.5281   0.5298   0.5298   0.5298   0.5298
     0.5309   0.5309   1.1204   1.1204   1.1205   1.1205   1.7610   1.7610
     2.5852   2.5852   2.5853   2.5853   2.7740   2.7740   3.0743   3.0743
     4.2869   4.2869   4.4891   4.4891   4.4892   4.4892   4.9757   4.9757
     5.1823   5.1823   5.4570   5.4570   5.6145

          k = 0.1662 0.2327 0.2327 ( 70357 PWs)   bands (ev):

   -81.2618 -81.2618 -81.2618 -81.2618 -81.2618 -81.2618 -81.2617 -81.2617
   -81.2617 -81.2617 -81.2617 -81.2617 -81.2617 -81.2617 -81.2614 -81.2611
   -47.0750 -47.0750 -47.0750 -47.0750 -47.0750 -47.0750 -47.0749 -47.0749
   -47.0749 -47.0749 -47.0749 -47.0749 -47.0749 -47.0749 -47.0749 -47.0748
   -47.0748 -47.0748 -47.0748 -47.0748 -47.0748 -47.0748 -47.0747 -47.0747
   -47.0747 -47.0746 -47.0746 -47.0746 -47.0746 -47.0745 -47.0745 -47.0745
   -47.0745 -47.0745 -47.0745 -47.0745 -47.0744 -47.0744 -47.0744 -47.0743
   -47.0743 -47.0743 -47.0743 -47.0743 -47.0743 -47.0741 -47.0741 -47.0741
     0.1693   0.2017   0.2025   0.2093   0.2094   0.2112   0.2129   0.2130
     0.2139   0.2139   0.2310   0.2344   0.2345   0.2364   0.2404   0.2404
     0.2503   0.2512   0.2545   0.2545   0.2563   0.2629   0.2676   0.2676
     0.2766   0.2803   0.2863   0.2868   0.2868   0.2868   0.2868   0.2873
     0.3233   0.3250   0.3250   0.3404   0.3430   0.3494   0.3494   0.3570
     0.3655   0.3655   0.3655   0.3688   0.3824   0.4126   0.4126   0.4178
     0.4269   0.4275   0.4275   0.4384   0.4404   0.4410   0.4410   0.4416
     0.4471   0.4471   0.4490   0.4502   0.4507   0.4566   0.4572   0.4582
     0.4582   0.4602   0.4602   0.4604   0.4604   0.4635   0.4644   0.4826
     0.4994   0.5097   0.5164   0.5164   0.5166   0.5289   0.5289   0.5294
     0.5364   0.7687   0.7688   1.0878   1.0879   1.4144   1.4145   1.7271
     2.5645   2.7203   2.7204   2.8089   2.8090   2.8178   2.8246   3.2463
     4.2103   4.2851   4.2851   4.5671   4.7501   4.7501   4.7831   4.9052
     5.0203   5.4088   5.6853   5.7200   5.7207

          k = 0.1662 0.2327-0.2992 ( 70342 PWs)   bands (ev):

   -81.2618 -81.2618 -81.2618 -81.2618 -81.2618 -81.2618 -81.2617 -81.2617
   -81.2617 -81.2617 -81.2617 -81.2617 -81.2617 -81.2617 -81.2614 -81.2611
   -47.0750 -47.0750 -47.0750 -47.0750 -47.0750 -47.0750 -47.0750 -47.0749
   -47.0749 -47.0749 -47.0749 -47.0749 -47.0749 -47.0749 -47.0749 -47.0749
   -47.0748 -47.0748 -47.0748 -47.0748 -47.0748 -47.0748 -47.0747 -47.0747
   -47.0746 -47.0746 -47.0746 -47.0746 -47.0745 -47.0745 -47.0745 -47.0745
   -47.0745 -47.0745 -47.0745 -47.0745 -47.0744 -47.0744 -47.0744 -47.0744
   -47.0743 -47.0743 -47.0743 -47.0743 -47.0743 -47.0741 -47.0741 -47.0741
     0.2035   0.2035   0.2081   0.2081   0.2081   0.2082   0.2119   0.2120
     0.2254   0.2254   0.2320   0.2320   0.2462   0.2462   0.2462   0.2462
     0.2466   0.2466   0.2524   0.2524   0.2615   0.2615   0.2618   0.2618
     0.2718   0.2719   0.2882   0.2882   0.2949   0.2949   0.3053   0.3053
     0.3127   0.3127   0.3219   0.3219   0.3391   0.3391   0.3485   0.3485
     0.3611   0.3611   0.3846   0.3846   0.3850   0.3850   0.3898   0.3899
     0.4343   0.4343   0.4344   0.4344   0.4352   0.4352   0.4457   0.4457
     0.4500   0.4500   0.4512   0.4513   0.4538   0.4538   0.4574   0.4574
     0.4575   0.4575   0.4586   0.4586   0.4630   0.4630   0.4809   0.4809
     0.4972   0.4972   0.5151   0.5151   0.5309   0.5309   0.5336   0.5336
     0.6139   0.6139   0.9096   0.9096   1.2351   1.2351   1.5566   1.5566
     2.6517   2.6517   2.7792   2.7792   2.8483   2.8483   3.0751   3.0751
     4.4352   4.4352   4.4405   4.4405   4.5600   4.5600   4.7605   4.7605
     5.2979   5.2979   5.5492   5.6172   5.6175

          k = 0.1662-0.2992-0.2992 ( 70360 PWs)   bands (ev):

   -81.2618 -81.2618 -81.2618 -81.2618 -81.2618 -81.2618 -81.2617 -81.2617
   -81.2617 -81.2617 -81.2617 -81.2617 -81.2617 -81.2617 -81.2614 -81.2611
   -47.0750 -47.0750 -47.0750 -47.0750 -47.0750 -47.0750 -47.0749 -47.0749
   -47.0749 -47.0749 -47.0749 -47.0749 -47.0749 -47.0749 -47.0749 -47.0749
   -47.0748 -47.0748 -47.0748 -47.0748 -47.0748 -47.0748 -47.0747 -47.0747
   -47.0746 -47.0746 -47.0746 -47.0746 -47.0745 -47.0745 -47.0745 -47.0745
   -47.0745 -47.0745 -47.0745 -47.0745 -47.0744 -47.0744 -47.0744 -47.0744
   -47.0743 -47.0743 -47.0743 -47.0743 -47.0743 -47.0741 -47.0741 -47.0741
     0.2122   0.2122   0.2123   0.2123   0.2189   0.2190   0.2190   0.2190
     0.2203   0.2203   0.2203   0.2203   0.2483   0.2483   0.2484   0.2484
     0.2496   0.2497   0.2497   0.2497   0.2646   0.2646   0.2646   0.2646
     0.2943   0.2944   0.2944   0.2944   0.3001   0.3001   0.3001   0.3001
     0.3145   0.3145   0.3145   0.3145   0.3497   0.3497   0.3497   0.3497
     0.3509   0.3509   0.3509   0.3509   0.3772   0.3773   0.3773   0.3773
     0.4373   0.4373   0.4373   0.4373   0.4403   0.4403   0.4403   0.4403
     0.4539   0.4539   0.4540   0.4540   0.4574   0.4574   0.4574   0.4574
     0.4608   0.4608   0.4608   0.4608   0.4671   0.4671   0.4671   0.4671
     0.5029   0.5030   0.5030   0.5030   0.5334   0.5334   0.5334   0.5334
     0.7402   0.7402   0.7403   0.7403   1.3807   1.3807   1.3808   1.3808
     2.7243   2.7243   2.7244   2.7244   3.0144   3.0144   3.0145   3.0145
     4.5326   4.5326   4.5327   4.5327   4.5720   4.5720   4.5720   4.5720
     5.3255   5.3255   5.3255   5.3255   5.6527

          k = 0.2327 0.2327 0.2327 ( 70341 PWs)   bands (ev):

   -81.2618 -81.2618 -81.2618 -81.2618 -81.2618 -81.2618 -81.2617 -81.2617
   -81.2617 -81.2617 -81.2617 -81.2617 -81.2617 -81.2617 -81.2614 -81.2611
   -47.0750 -47.0750 -47.0750 -47.0750 -47.0750 -47.0750 -47.0749 -47.0749
   -47.0749 -47.0749 -47.0749 -47.0749 -47.0749 -47.0749 -47.0749 -47.0748
   -47.0748 -47.0748 -47.0748 -47.0748 -47.0748 -47.0748 -47.0748 -47.0747
   -47.0747 -47.0746 -47.0746 -47.0746 -47.0745 -47.0745 -47.0745 -47.0745
   -47.0745 -47.0745 -47.0745 -47.0745 -47.0745 -47.0744 -47.0744 -47.0744
   -47.0743 -47.0743 -47.0743 -47.0743 -47.0743 -47.0741 -47.0741 -47.0741
     0.2102   0.2202   0.2203   0.2203   0.2236   0.2280   0.2280   0.2280
     0.2310   0.2311   0.2311   0.2372   0.2372   0.2372   0.2477   0.2477
     0.2568   0.2568   0.2648   0.2648   0.2716   0.2716   0.2716   0.2723
     0.2723   0.2723   0.2729   0.2729   0.2729   0.2908   0.2908   0.2908
     0.3167   0.3167   0.3167   0.3330   0.3330   0.3363   0.3364   0.3365
     0.3365   0.3419   0.3419   0.3419   0.3680   0.3872   0.3872   0.3872
     0.4333   0.4333   0.4333   0.4423   0.4423   0.4423   0.4459   0.4459
     0.4520   0.4520   0.4554   0.4554   0.4554   0.4564   0.4564   0.4564
     0.4577   0.4577   0.4577   0.4687   0.4687   0.4687   0.4781   0.4781
     0.5112   0.5112   0.5173   0.5173   0.5174   0.5198   0.5198   0.5198
     0.5959   0.8812   0.8812   0.8812   1.2029   1.2030   1.2030   1.5234
     2.8561   2.8562   2.8563   2.8563   2.8564   2.8564   2.8908   3.1990
     4.3513   4.3513   4.3513   4.7228   4.7229   4.7229   4.7590   4.7590
     5.0403   5.0403   5.4331   5.4331   5.5065

          k = 0.2327 0.2327-0.2992 ( 70310 PWs)   bands (ev):

   -81.2618 -81.2618 -81.2618 -81.2618 -81.2618 -81.2618 -81.2617 -81.2617
   -81.2617 -81.2617 -81.2617 -81.2617 -81.2617 -81.2617 -81.2614 -81.2611
   -47.0750 -47.0750 -47.0750 -47.0750 -47.0749 -47.0749 -47.0749 -47.0749
   -47.0749 -47.0749 -47.0749 -47.0749 -47.0749 -47.0749 -47.0749 -47.0748
   -47.0748 -47.0748 -47.0748 -47.0748 -47.0748 -47.0748 -47.0747 -47.0747
   -47.0746 -47.0746 -47.0746 -47.0746 -47.0746 -47.0745 -47.0745 -47.0745
   -47.0745 -47.0745 -47.0745 -47.0745 -47.0744 -47.0744 -47.0744 -47.0744
   -47.0743 -47.0743 -47.0743 -47.0743 -47.0743 -47.0741 -47.0741 -47.0741
     0.2215   0.2215   0.2266   0.2266   0.2267   0.2267   0.2335   0.2335
     0.2414   0.2414   0.2469   0.2469   0.2516   0.2516   0.2516   0.2516
     0.2550   0.2550   0.2550   0.2550   0.2647   0.2647   0.2677   0.2677
     0.2776   0.2776   0.2874   0.2874   0.2874   0.2874   0.2916   0.2916
     0.3090   0.3090   0.3116   0.3116   0.3227   0.3227   0.3227   0.3227
     0.3389   0.3389   0.3567   0.3567   0.3567   0.3568   0.3673   0.3673
     0.4390   0.4390   0.4390   0.4390   0.4399   0.4399   0.4471   0.4471
     0.4517   0.4517   0.4538   0.4539   0.4558   0.4559   0.4559   0.4559
     0.4661   0.4661   0.4661   0.4661   0.4690   0.4690   0.4902   0.4903
     0.4968   0.4969   0.5167   0.5167   0.5167   0.5167   0.5181   0.5181
     0.7174   0.7174   1.0253   1.0253   1.0254   1.0254   1.3483   1.3483
     2.8867   2.8867   2.8868   2.8868   2.8892   2.8892   3.0759   3.0759
     4.5351   4.5351   4.5463   4.5463   4.5464   4.5464   4.8021   4.8021
     5.0869   5.0869   5.2170   5.2170   5.3805

          k = 0.2327-0.2992-0.2992 ( 70320 PWs)   bands (ev):

   -81.2618 -81.2618 -81.2618 -81.2618 -81.2618 -81.2618 -81.2617 -81.2617
   -81.2617 -81.2617 -81.2617 -81.2617 -81.2617 -81.2617 -81.2614 -81.2611
   -47.0750 -47.0750 -47.0749 -47.0749 -47.0749 -47.0749 -47.0749 -47.0749
   -47.0749 -47.0749 -47.0749 -47.0749 -47.0749 -47.0749 -47.0748 -47.0748
   -47.0748 -47.0748 -47.0748 -47.0748 -47.0748 -47.0748 -47.0748 -47.0748
   -47.0746 -47.0746 -47.0746 -47.0746 -47.0745 -47.0745 -47.0745 -47.0745
   -47.0745 -47.0745 -47.0744 -47.0744 -47.0744 -47.0744 -47.0744 -47.0744
   -47.0743 -47.0743 -47.0743 -47.0743 -47.0743 -47.0741 -47.0741 -47.0741
     0.2366   0.2366   0.2366   0.2366   0.2380   0.2380   0.2380   0.2380
     0.2445   0.2445   0.2446   0.2446   0.2503   0.2503   0.2504   0.2504
     0.2582   0.2582   0.2582   0.2582   0.2686   0.2686   0.2686   0.2686
     0.2903   0.2903   0.2903   0.2903   0.2970   0.2970   0.2971   0.2971
     0.3009   0.3009   0.3009   0.3009   0.3201   0.3201   0.3201   0.3201
     0.3254   0.3254   0.3254   0.3254   0.3498   0.3498   0.3499   0.3499
     0.4422   0.4422   0.4422   0.4422   0.4440   0.4441   0.4441   0.4441
     0.4512   0.4512   0.4513   0.4513   0.4539   0.4539   0.4539   0.4539
     0.4745   0.4745   0.4745   0.4745   0.4829   0.4829   0.4829   0.4829
     0.5013   0.5014   0.5014   0.5014   0.5151   0.5151   0.5151   0.5151
     0.8530   0.8530   0.8531   0.8531   1.1712   1.1713   1.1713   1.1713
     2.9118   2.9118   2.9120   2.9120   3.0266   3.0266   3.0267   3.0267
     4.6296   4.6296   4.6296   4.6296   4.6701   4.6701   4.6702   4.6702
     5.0690   5.0690   5.0690   5.0690   5.2061

          k =-0.2992-0.2992-0.2992 ( 70320 PWs)   bands (ev):

   -81.2618 -81.2618 -81.2618 -81.2618 -81.2618 -81.2618 -81.2617 -81.2617
   -81.2617 -81.2617 -81.2617 -81.2617 -81.2617 -81.2617 -81.2614 -81.2611
   -47.0750 -47.0750 -47.0750 -47.0749 -47.0749 -47.0749 -47.0749 -47.0749
   -47.0749 -47.0749 -47.0749 -47.0749 -47.0749 -47.0749 -47.0749 -47.0749
   -47.0748 -47.0748 -47.0748 -47.0748 -47.0748 -47.0748 -47.0748 -47.0748
   -47.0746 -47.0746 -47.0746 -47.0746 -47.0746 -47.0746 -47.0746 -47.0746
   -47.0744 -47.0744 -47.0744 -47.0744 -47.0744 -47.0744 -47.0743 -47.0743
   -47.0743 -47.0743 -47.0743 -47.0743 -47.0743 -47.0741 -47.0741 -47.0741
     0.2535   0.2535   0.2535   0.2535   0.2535   0.2535   0.2535   0.2535
     0.2535   0.2535   0.2535   0.2536   0.2536   0.2536   0.2536   0.2536
     0.2593   0.2593   0.2593   0.2593   0.2593   0.2593   0.2593   0.2593
     0.2995   0.2995   0.2995   0.2995   0.2995   0.2995   0.2995   0.2996
     0.2996   0.2996   0.2996   0.2996   0.2996   0.2996   0.2996   0.2996
     0.3208   0.3208   0.3209   0.3209   0.3209   0.3209   0.3209   0.3209
     0.4478   0.4478   0.4478   0.4478   0.4478   0.4478   0.4478   0.4479
     0.4479   0.4479   0.4479   0.4479   0.4479   0.4479   0.4479   0.4479
     0.4945   0.4945   0.4945   0.4946   0.4946   0.4946   0.4946   0.4946
     0.4946   0.4946   0.4946   0.4946   0.4946   0.4946   0.4946   0.4946
     0.9956   0.9957   0.9957   0.9957   0.9957   0.9957   0.9957   0.9957
     3.0052   3.0052   3.0055   3.0055   3.0055   3.0055   3.0055   3.0055
     4.8497   4.8497   4.8497   4.8497   4.8497   4.8497   4.8497   4.8497
     4.8498   4.8498   4.8498   4.8498   4.8498

     the Fermi energy is     0.8491 ev

!    total energy              =   -8188.27756516 Ry

     total all-electron energy =   -161468.704419 Ry
     estimated scf accuracy    <       0.00000081 Ry
     smearing contrib. (-TS)   =       0.38782475 Ry
     internal energy E=F+TS    =   -8188.66538991 Ry

     The total energy is F=E-TS. E is the sum of the following terms:
     one-electron contribution =   -3343.02854693 Ry
     hartree contribution      =    1704.88400007 Ry
     xc contribution           =    -491.62512296 Ry
     ewald contribution        =   -1975.58583250 Ry
     one-center paw contrib.   =   -4083.30988760 Ry

     convergence has been achieved in  32 iterations

     Forces acting on atoms (cartesian axes, Ry/au):

     atom    1 type  1   force =     0.00000000    0.00000000    0.00000000
     atom    2 type  1   force =     0.00002919    0.00002919    0.00002919
     atom    3 type  1   force =     0.00000000    0.00000000    0.00000000
     atom    4 type  1   force =     0.00002919    0.00002919   -0.00002919
     atom    5 type  1   force =     0.00000000    0.00000000    0.00000000
     atom    6 type  1   force =     0.00002919   -0.00002919    0.00002919
     atom    7 type  1   force =     0.00000000    0.00000000    0.00000000
     atom    8 type  1   force =     0.00002919   -0.00002919   -0.00002919
     atom    9 type  1   force =     0.00000000    0.00000000    0.00000000
     atom   10 type  1   force =    -0.00002919    0.00002919    0.00002919
     atom   11 type  1   force =     0.00000000    0.00000000    0.00000000
     atom   12 type  1   force =    -0.00002919    0.00002919   -0.00002919
     atom   13 type  1   force =     0.00000000    0.00000000    0.00000000
     atom   14 type  1   force =    -0.00002919   -0.00002919    0.00002919
     atom   15 type  1   force =     0.00000000    0.00000000    0.00000000
     atom   16 type  1   force =    -0.00002919   -0.00002919   -0.00002919

     Total force =     0.000143     Total SCF correction =     0.001501
     SCF correction compared to forces is large: reduce conv_thr to get better values


     Computing stress (Cartesian axis) and pressure

          total   stress  (Ry/bohr**3)                   (kbar)     P=      -35.49
  -0.00024125   0.00000000   0.00000000          -35.49        0.00        0.00
   0.00000000  -0.00024125   0.00000000            0.00      -35.49        0.00
   0.00000000   0.00000000  -0.00024125            0.00        0.00      -35.49


     Writing output data file /scratch/VCBVNwMEiFBsgwyv.save/
 
     init_run     :      8.53s CPU      8.90s WALL (       1 calls)
     electrons    :    696.62s CPU    707.10s WALL (       1 calls)
     forces       :      2.57s CPU      2.63s WALL (       1 calls)
     stress       :     22.24s CPU     22.42s WALL (       1 calls)

     Called by init_run:
     wfcinit      :      7.20s CPU      7.40s WALL (       1 calls)
     potinit      :      0.13s CPU      0.15s WALL (       1 calls)
     hinit0       :      0.44s CPU      0.48s WALL (       1 calls)

     Called by electrons:
     c_bands      :    592.63s CPU    599.54s WALL (      32 calls)
     sum_band     :     98.60s CPU    101.07s WALL (      32 calls)
     v_of_rho     :      1.03s CPU      1.08s WALL (      33 calls)
     newd         :      1.66s CPU      2.27s WALL (      33 calls)
     PAW_pot      :      2.02s CPU      2.26s WALL (      33 calls)
     mix_rho      :      0.29s CPU      0.32s WALL (      32 calls)

     Called by c_bands:
     init_us_2    :      5.09s CPU      5.16s WALL (    2345 calls)
     cegterg      :    573.05s CPU    579.52s WALL (    1120 calls)

     Called by *egterg:
     cdiaghg      :     38.87s CPU     39.22s WALL (    2967 calls)
     h_psi        :    360.40s CPU    365.04s WALL (    3002 calls)
     s_psi        :     20.93s CPU     21.07s WALL (    3002 calls)
     g_psi        :      1.06s CPU      1.08s WALL (    1847 calls)

     Called by h_psi:
     h_psi:calbec :     30.02s CPU     30.26s WALL (    3002 calls)
     vloc_psi     :    307.84s CPU    312.00s WALL (    3002 calls)
     add_vuspsi   :     19.41s CPU     19.59s WALL (    3002 calls)

     General routines
     calbec       :     47.46s CPU     47.84s WALL (    4297 calls)
     fft          :      1.03s CPU      1.14s WALL (     452 calls)
     ffts         :      0.19s CPU      0.30s WALL (      65 calls)
     fftw         :    367.96s CPU    372.99s WALL ( 1013916 calls)
     interpolate  :      0.23s CPU      0.35s WALL (      33 calls)
 
     Parallel routines
     fft_scatt_xy :     29.98s CPU     30.34s WALL ( 1014433 calls)
     fft_scatt_yz :    281.03s CPU    285.32s WALL ( 1014433 calls)
 
     PWSCF        :  12m18.26s CPU  12m31.64s WALL

 
   This run was terminated on:   0:31: 2  30Nov2021            

=------------------------------------------------------------------------------=
   JOB DONE.
=------------------------------------------------------------------------------=
