
     Program PWSCF v.6.7MaX starts on 30Nov2021 at  0:31: 7 

     This program is part of the open-source Quantum ESPRESSO suite
     for quantum simulation of materials; please cite
         "P. Giannozzi et al., J. Phys.:Condens. Matter 21 395502 (2009);
         "P. Giannozzi et al., J. Phys.:Condens. Matter 29 465901 (2017);
          URL http://www.quantum-espresso.org", 
     in publications or presentations arising from this work. More details at
     http://www.quantum-espresso.org/quote

     Parallel version (MPI & OpenMP), running on      72 processor cores
     Number of MPI processes:                72
     Threads/MPI process:                     1

     MPI processes distributed on     1 nodes
     R & G space division:  proc/nbgrp/npool/nimage =      72
     Reading input from bcc_16.in
Warning: card &CELL ignored
Warning: card CELL_DYNAMICS = 'BFGS', ignored
Warning: card CELL_FACTOR = 2.0, ignored
Warning: card PRESS = 0.0, ignored
Warning: card / ignored

     Current dimensions of program PWSCF are:
     Max number of different atomic species (ntypx) = 10
     Max number of k-points (npk) =  40000
     Max angular momentum in pseudopotentials (lmaxx) =  3
     file Pd.pbe-spn-kjpaw_psl.1.0.0.UPF: wavefunction(s)  4S 5S 4D renormalized

     Subspace diagonalization in iterative solution of the eigenvalue problem:
     one sub-group per band group will be used
     ELPA distributed-memory algorithm (size of sub-group:  8*  8 procs)

     Found symmetry operation: I + (  0.2500  0.2500  0.2500)
     This is a supercell, fractional translations are disabled
     Message from routine setup:
     using ibrav=0 with symmetry is DISCOURAGED, use correct ibrav instead
 
     Parallelization info
     --------------------
     sticks:   dense  smooth     PW     G-vecs:    dense   smooth      PW
     Min         187     123     33                16365     8779    1207
     Max         188     125     34                16370     8786    1213
     Sum       13501    8921   2377              1178439   632299   87079
 


     bravais-lattice index     =            0
     lattice parameter (alat)  =      11.4293  a.u.
     unit-cell volume          =    7822.3570 (a.u.)^3
     number of atoms/cell      =           16
     number of atomic types    =            1
     number of electrons       =       288.00
     number of Kohn-Sham states=          173
     kinetic-energy cutoff     =      71.0000  Ry
     charge density cutoff     =     430.0000  Ry
     scf convergence threshold =      1.0E-06
     mixing beta               =       0.1000
     number of iterations used =           10  TF        mixing
     Exchange-correlation= SLA  PW   PBX  PBC
                           (   1   4   3   4   0   0   0)

     celldm(1)=  11.429280  celldm(2)=   0.000000  celldm(3)=   0.000000
     celldm(4)=   0.000000  celldm(5)=   0.000000  celldm(6)=   0.000000

     crystal axes: (cart. coord. in units of alat)
               a(1) = (   1.736842   0.000000   0.000000 )  
               a(2) = (   0.000000   1.736842   0.000000 )  
               a(3) = (   0.000000   0.000000   1.736842 )  

     reciprocal axes: (cart. coord. in units 2 pi/alat)
               b(1) = (  0.575758  0.000000  0.000000 )  
               b(2) = (  0.000000  0.575758  0.000000 )  
               b(3) = (  0.000000  0.000000  0.575758 )  


     PseudoPot. # 1 for Pd read from file:
     /rds/homes/b/bxp912/pp/Pd.pbe-spn-kjpaw_psl.1.0.0.UPF
     MD5 check sum: 790f2ebce206edfd9790dcb9844eca51
     Pseudo is Projector augmented-wave + core cor, Zval = 18.0
     Generated using &quot;atomic&quot; code by A. Dal Corso  v.6.3
     Shape of augmentation charge: PSQ
     Using radial grid of 1235 points,  6 beta functions with: 
                l(1) =   0
                l(2) =   0
                l(3) =   1
                l(4) =   1
                l(5) =   2
                l(6) =   2
     Q(r) pseudized with 0 coefficients 


     atomic species   valence    mass     pseudopotential
        Pd            18.00   106.42000     Pd( 1.00)

     48 Sym. Ops., with inversion, found



   Cartesian axes

     site n.     atom                  positions (alat units)
         1           Pd  tau(   1) = (   0.0000000   0.0000000   0.0000000  )
         2           Pd  tau(   2) = (   0.4342105   0.4342105   0.4342105  )
         3           Pd  tau(   3) = (   0.0000000   0.0000000   0.8684211  )
         4           Pd  tau(   4) = (   0.4342105   0.4342105   1.3026316  )
         5           Pd  tau(   5) = (   0.0000000   0.8684211   0.0000000  )
         6           Pd  tau(   6) = (   0.4342105   1.3026316   0.4342105  )
         7           Pd  tau(   7) = (   0.0000000   0.8684211   0.8684211  )
         8           Pd  tau(   8) = (   0.4342105   1.3026316   1.3026316  )
         9           Pd  tau(   9) = (   0.8684211   0.0000000   0.0000000  )
        10           Pd  tau(  10) = (   1.3026316   0.4342105   0.4342105  )
        11           Pd  tau(  11) = (   0.8684211   0.0000000   0.8684211  )
        12           Pd  tau(  12) = (   1.3026316   0.4342105   1.3026316  )
        13           Pd  tau(  13) = (   0.8684211   0.8684211   0.0000000  )
        14           Pd  tau(  14) = (   1.3026316   1.3026316   0.4342105  )
        15           Pd  tau(  15) = (   0.8684211   0.8684211   0.8684211  )
        16           Pd  tau(  16) = (   1.3026316   1.3026316   1.3026316  )

     number of k points=    35  Marzari-Vanderbilt smearing, width (Ry)=  0.0400
                       cart. coord. in units 2pi/alat
        k(    1) = (   0.0319865   0.0319865   0.0319865), wk =   0.0219479
        k(    2) = (   0.0319865   0.0319865   0.0959596), wk =   0.0658436
        k(    3) = (   0.0319865   0.0319865   0.1599327), wk =   0.0658436
        k(    4) = (   0.0319865   0.0319865   0.2239057), wk =   0.0658436
        k(    5) = (   0.0319865   0.0319865  -0.2878788), wk =   0.0329218
        k(    6) = (   0.0319865   0.0959596   0.0959596), wk =   0.0658436
        k(    7) = (   0.0319865   0.0959596   0.1599327), wk =   0.1316872
        k(    8) = (   0.0319865   0.0959596   0.2239057), wk =   0.1316872
        k(    9) = (   0.0319865   0.0959596  -0.2878788), wk =   0.0658436
        k(   10) = (   0.0319865   0.1599327   0.1599327), wk =   0.0658436
        k(   11) = (   0.0319865   0.1599327   0.2239057), wk =   0.1316872
        k(   12) = (   0.0319865   0.1599327  -0.2878788), wk =   0.0658436
        k(   13) = (   0.0319865   0.2239057   0.2239057), wk =   0.0658436
        k(   14) = (   0.0319865   0.2239057  -0.2878788), wk =   0.0658436
        k(   15) = (   0.0319865  -0.2878788  -0.2878788), wk =   0.0164609
        k(   16) = (   0.0959596   0.0959596   0.0959596), wk =   0.0219479
        k(   17) = (   0.0959596   0.0959596   0.1599327), wk =   0.0658436
        k(   18) = (   0.0959596   0.0959596   0.2239057), wk =   0.0658436
        k(   19) = (   0.0959596   0.0959596  -0.2878788), wk =   0.0329218
        k(   20) = (   0.0959596   0.1599327   0.1599327), wk =   0.0658436
        k(   21) = (   0.0959596   0.1599327   0.2239057), wk =   0.1316872
        k(   22) = (   0.0959596   0.1599327  -0.2878788), wk =   0.0658436
        k(   23) = (   0.0959596   0.2239057   0.2239057), wk =   0.0658436
        k(   24) = (   0.0959596   0.2239057  -0.2878788), wk =   0.0658436
        k(   25) = (   0.0959596  -0.2878788  -0.2878788), wk =   0.0164609
        k(   26) = (   0.1599327   0.1599327   0.1599327), wk =   0.0219479
        k(   27) = (   0.1599327   0.1599327   0.2239057), wk =   0.0658436
        k(   28) = (   0.1599327   0.1599327  -0.2878788), wk =   0.0329218
        k(   29) = (   0.1599327   0.2239057   0.2239057), wk =   0.0658436
        k(   30) = (   0.1599327   0.2239057  -0.2878788), wk =   0.0658436
        k(   31) = (   0.1599327  -0.2878788  -0.2878788), wk =   0.0164609
        k(   32) = (   0.2239057   0.2239057   0.2239057), wk =   0.0219479
        k(   33) = (   0.2239057   0.2239057  -0.2878788), wk =   0.0329218
        k(   34) = (   0.2239057  -0.2878788  -0.2878788), wk =   0.0164609
        k(   35) = (  -0.2878788  -0.2878788  -0.2878788), wk =   0.0027435

     Dense  grid:  1178439 G-vectors     FFT dimensions: ( 135, 135, 135)

     Smooth grid:   632299 G-vectors     FFT dimensions: ( 108, 108, 108)

     Estimated max dynamical RAM per process >     179.11 MB

     Estimated total dynamical RAM >      12.59 GB

     Initial potential from superposition of free atoms

     starting charge  287.99388, renormalised to  288.00000
     Starting wfcs are  160 randomized atomic wfcs +   13 random wfcs
     Checking if some PAW data can be deallocated... 

     total cpu time spent up to now is       11.8 secs

     Self-consistent Calculation

     iteration #  1     ecut=    71.00 Ry     beta= 0.10
     Davidson diagonalization with overlap
     ethr =  1.00E-02,  avg # of iterations =  5.1

     total cpu time spent up to now is       49.4 secs

     total energy              =   -8190.68252738 Ry
     estimated scf accuracy    <      12.21341962 Ry

     iteration #  2     ecut=    71.00 Ry     beta= 0.10
     Davidson diagonalization with overlap
     ethr =  4.24E-03,  avg # of iterations =  1.0

     total cpu time spent up to now is       72.1 secs

     total energy              =   -8187.15184611 Ry
     estimated scf accuracy    <       9.15078481 Ry

     iteration #  3     ecut=    71.00 Ry     beta= 0.10
     Davidson diagonalization with overlap
     ethr =  3.18E-03,  avg # of iterations =  2.0

     total cpu time spent up to now is      104.9 secs

     total energy              =   -8188.22425198 Ry
     estimated scf accuracy    <       5.59170039 Ry

     iteration #  4     ecut=    71.00 Ry     beta= 0.10
     Davidson diagonalization with overlap
     ethr =  1.94E-03,  avg # of iterations =  1.3

     total cpu time spent up to now is      128.3 secs

     total energy              =   -8188.26660520 Ry
     estimated scf accuracy    <       1.88483672 Ry

     iteration #  5     ecut=    71.00 Ry     beta= 0.10
     Davidson diagonalization with overlap
     ethr =  6.54E-04,  avg # of iterations =  1.6

     total cpu time spent up to now is      152.3 secs

     total energy              =   -8188.12388549 Ry
     estimated scf accuracy    <       0.47253669 Ry

     iteration #  6     ecut=    71.00 Ry     beta= 0.10
     Davidson diagonalization with overlap
     ethr =  1.64E-04,  avg # of iterations =  2.7

     total cpu time spent up to now is      186.9 secs

     total energy              =   -8188.65628083 Ry
     estimated scf accuracy    <      10.53413449 Ry

     iteration #  7     ecut=    71.00 Ry     beta= 0.10
     Davidson diagonalization with overlap
     ethr =  1.64E-04,  avg # of iterations =  2.2

     total cpu time spent up to now is      212.7 secs

     total energy              =   -8188.46984008 Ry
     estimated scf accuracy    <       5.63062833 Ry

     iteration #  8     ecut=    71.00 Ry     beta= 0.10
     Davidson diagonalization with overlap
     ethr =  1.64E-04,  avg # of iterations =  1.0

     total cpu time spent up to now is      233.8 secs

     total energy              =   -8188.46078516 Ry
     estimated scf accuracy    <       2.69189344 Ry

     iteration #  9     ecut=    71.00 Ry     beta= 0.10
     Davidson diagonalization with overlap
     ethr =  1.64E-04,  avg # of iterations =  1.1

     total cpu time spent up to now is      255.3 secs

     total energy              =   -8188.48403288 Ry
     estimated scf accuracy    <       2.58179404 Ry

     iteration # 10     ecut=    71.00 Ry     beta= 0.10
     Davidson diagonalization with overlap
     ethr =  1.64E-04,  avg # of iterations =  1.1

     total cpu time spent up to now is      277.1 secs

     total energy              =   -8188.43209487 Ry
     estimated scf accuracy    <       3.17331943 Ry

     iteration # 11     ecut=    71.00 Ry     beta= 0.10
     Davidson diagonalization with overlap
     ethr =  1.64E-04,  avg # of iterations =  1.5

     total cpu time spent up to now is      297.7 secs

     total energy              =   -8188.49655656 Ry
     estimated scf accuracy    <       2.10954893 Ry

     iteration # 12     ecut=    71.00 Ry     beta= 0.10
     Davidson diagonalization with overlap
     ethr =  1.64E-04,  avg # of iterations =  1.3

     total cpu time spent up to now is      320.9 secs

     total energy              =   -8188.05447971 Ry
     estimated scf accuracy    <       2.20160648 Ry

     iteration # 13     ecut=    71.00 Ry     beta= 0.10
     Davidson diagonalization with overlap
     ethr =  1.64E-04,  avg # of iterations =  2.1

     total cpu time spent up to now is      347.5 secs

     total energy              =   -8187.90302712 Ry
     estimated scf accuracy    <       8.64077417 Ry

     iteration # 14     ecut=    71.00 Ry     beta= 0.10
     Davidson diagonalization with overlap
     ethr =  1.64E-04,  avg # of iterations =  1.2

     total cpu time spent up to now is      369.8 secs

     total energy              =   -8188.16089701 Ry
     estimated scf accuracy    <       1.07610651 Ry

     iteration # 15     ecut=    71.00 Ry     beta= 0.10
     Davidson diagonalization with overlap
     ethr =  1.64E-04,  avg # of iterations =  1.1

     total cpu time spent up to now is      390.9 secs

     total energy              =   -8188.12146784 Ry
     estimated scf accuracy    <       0.73980161 Ry

     iteration # 16     ecut=    71.00 Ry     beta= 0.10
     Davidson diagonalization with overlap
     ethr =  1.64E-04,  avg # of iterations =  1.1

     total cpu time spent up to now is      411.4 secs

     total energy              =   -8188.14032825 Ry
     estimated scf accuracy    <       0.71055451 Ry

     iteration # 17     ecut=    71.00 Ry     beta= 0.10
     Davidson diagonalization with overlap
     ethr =  1.64E-04,  avg # of iterations =  1.0

     total cpu time spent up to now is      433.6 secs

     total energy              =   -8188.13203773 Ry
     estimated scf accuracy    <       0.69734265 Ry

     iteration # 18     ecut=    71.00 Ry     beta= 0.10
     Davidson diagonalization with overlap
     ethr =  1.64E-04,  avg # of iterations =  1.1

     total cpu time spent up to now is      455.4 secs

     total energy              =   -8188.13917679 Ry
     estimated scf accuracy    <       0.59699982 Ry

     iteration # 19     ecut=    71.00 Ry     beta= 0.10
     Davidson diagonalization with overlap
     ethr =  1.64E-04,  avg # of iterations =  1.3

     total cpu time spent up to now is      476.8 secs

     total energy              =   -8188.12251771 Ry
     estimated scf accuracy    <       0.69367327 Ry

     iteration # 20     ecut=    71.00 Ry     beta= 0.10
     Davidson diagonalization with overlap
     ethr =  1.64E-04,  avg # of iterations =  1.0

     total cpu time spent up to now is      496.9 secs

     total energy              =   -8188.12836000 Ry
     estimated scf accuracy    <       0.31060430 Ry

     iteration # 21     ecut=    71.00 Ry     beta= 0.10
     Davidson diagonalization with overlap
     ethr =  1.08E-04,  avg # of iterations =  1.8

     total cpu time spent up to now is      518.5 secs

     total energy              =   -8188.12684525 Ry
     estimated scf accuracy    <       0.51873889 Ry

     iteration # 22     ecut=    71.00 Ry     beta= 0.10
     Davidson diagonalization with overlap
     ethr =  1.08E-04,  avg # of iterations =  1.0

     total cpu time spent up to now is      538.2 secs

     total energy              =   -8188.12383847 Ry
     estimated scf accuracy    <       0.40565912 Ry

     iteration # 23     ecut=    71.00 Ry     beta= 0.10
     Davidson diagonalization with overlap
     ethr =  1.08E-04,  avg # of iterations =  1.3

     total cpu time spent up to now is      559.7 secs

     total energy              =   -8188.11743693 Ry
     estimated scf accuracy    <       0.29880647 Ry

     iteration # 24     ecut=    71.00 Ry     beta= 0.10
     Davidson diagonalization with overlap
     ethr =  1.04E-04,  avg # of iterations =  1.5

     total cpu time spent up to now is      581.0 secs

     total energy              =   -8188.12106502 Ry
     estimated scf accuracy    <       0.00623969 Ry

     iteration # 25     ecut=    71.00 Ry     beta= 0.10
     Davidson diagonalization with overlap
     c_bands:  1 eigenvalues not converged
     c_bands:  1 eigenvalues not converged
     c_bands:  1 eigenvalues not converged
     ethr =  2.17E-06,  avg # of iterations =  8.6

     total cpu time spent up to now is      610.0 secs

     total energy              =   -8188.12176228 Ry
     estimated scf accuracy    <       0.02613054 Ry

     iteration # 26     ecut=    71.00 Ry     beta= 0.10
     Davidson diagonalization with overlap
     ethr =  2.17E-06,  avg # of iterations =  1.3

     total cpu time spent up to now is      631.6 secs

     total energy              =   -8188.11949816 Ry
     estimated scf accuracy    <       0.07003224 Ry

     iteration # 27     ecut=    71.00 Ry     beta= 0.10
     Davidson diagonalization with overlap
     ethr =  2.17E-06,  avg # of iterations =  1.0

     total cpu time spent up to now is      652.3 secs

     total energy              =   -8188.12076172 Ry
     estimated scf accuracy    <       0.02023564 Ry

     iteration # 28     ecut=    71.00 Ry     beta= 0.10
     Davidson diagonalization with overlap
     ethr =  2.17E-06,  avg # of iterations =  1.4

     total cpu time spent up to now is      675.9 secs

     total energy              =   -8188.12122682 Ry
     estimated scf accuracy    <       0.00691083 Ry

     iteration # 29     ecut=    71.00 Ry     beta= 0.10
     Davidson diagonalization with overlap
     ethr =  2.17E-06,  avg # of iterations =  1.0

     total cpu time spent up to now is      695.8 secs

     total energy              =   -8188.12125636 Ry
     estimated scf accuracy    <       0.00074219 Ry

     iteration # 30     ecut=    71.00 Ry     beta= 0.10
     Davidson diagonalization with overlap
     ethr =  2.58E-07,  avg # of iterations =  1.0

     total cpu time spent up to now is      718.8 secs

     total energy              =   -8188.12125078 Ry
     estimated scf accuracy    <       0.00012607 Ry

     iteration # 31     ecut=    71.00 Ry     beta= 0.10
     Davidson diagonalization with overlap
     ethr =  4.38E-08,  avg # of iterations =  1.0

     total cpu time spent up to now is      740.1 secs

     total energy              =   -8188.12125330 Ry
     estimated scf accuracy    <       0.00119804 Ry

     iteration # 32     ecut=    71.00 Ry     beta= 0.10
     Davidson diagonalization with overlap
     ethr =  4.38E-08,  avg # of iterations =  1.3

     total cpu time spent up to now is      761.6 secs

     total energy              =   -8188.12126348 Ry
     estimated scf accuracy    <       0.00004382 Ry

     iteration # 33     ecut=    71.00 Ry     beta= 0.10
     Davidson diagonalization with overlap
     ethr =  1.52E-08,  avg # of iterations =  1.0

     total cpu time spent up to now is      782.5 secs

     total energy              =   -8188.12126552 Ry
     estimated scf accuracy    <       0.00000407 Ry

     iteration # 34     ecut=    71.00 Ry     beta= 0.10
     Davidson diagonalization with overlap
     ethr =  1.41E-09,  avg # of iterations =  3.8

     total cpu time spent up to now is      811.5 secs

     total energy              =   -8188.12126523 Ry
     estimated scf accuracy    <       0.00015819 Ry

     iteration # 35     ecut=    71.00 Ry     beta= 0.10
     Davidson diagonalization with overlap
     ethr =  1.41E-09,  avg # of iterations =  1.3

     total cpu time spent up to now is      831.8 secs

     total energy              =   -8188.12126600 Ry
     estimated scf accuracy    <       0.00001473 Ry

     iteration # 36     ecut=    71.00 Ry     beta= 0.10
     Davidson diagonalization with overlap
     ethr =  1.41E-09,  avg # of iterations =  1.0

     total cpu time spent up to now is      853.5 secs

     total energy              =   -8188.12126585 Ry
     estimated scf accuracy    <       0.00001364 Ry

     iteration # 37     ecut=    71.00 Ry     beta= 0.10
     Davidson diagonalization with overlap
     ethr =  1.41E-09,  avg # of iterations =  1.0

     total cpu time spent up to now is      873.0 secs

     total energy              =   -8188.12126623 Ry
     estimated scf accuracy    <       0.00000215 Ry

     iteration # 38     ecut=    71.00 Ry     beta= 0.10
     Davidson diagonalization with overlap
     ethr =  7.46E-10,  avg # of iterations =  1.9

     total cpu time spent up to now is      895.7 secs

     End of self-consistent calculation

          k = 0.0320 0.0320 0.0320 ( 79093 PWs)   bands (ev):

   -81.6985 -81.6985 -81.6985 -81.6985 -81.6984 -81.6984 -81.6984 -81.6984
   -81.6984 -81.6984 -81.6984 -81.6984 -81.6984 -81.6984 -81.6984 -81.6984
   -47.5194 -47.5194 -47.5194 -47.5194 -47.5194 -47.5194 -47.5194 -47.5194
   -47.5194 -47.5194 -47.5194 -47.5194 -47.5194 -47.5194 -47.5194 -47.5193
   -47.5193 -47.5193 -47.5193 -47.5193 -47.5193 -47.5193 -47.5193 -47.5193
   -47.5193 -47.5193 -47.5193 -47.5193 -47.5193 -47.5193 -47.5193 -47.5193
   -47.5193 -47.5193 -47.5193 -47.5193 -47.5193 -47.5193 -47.5193 -47.5192
   -47.5192 -47.5192 -47.5192 -47.5192 -47.5192 -47.5192 -47.5191 -47.5191
    -0.5912  -0.2963  -0.2963  -0.2963  -0.2951  -0.2951  -0.2951  -0.2765
    -0.2765  -0.2461  -0.2460  -0.2460  -0.2447  -0.2447  -0.2447  -0.1865
    -0.1800  -0.1800  -0.1768  -0.1748  -0.1748  -0.1683  -0.1683  -0.1683
    -0.1522  -0.1522  -0.1498  -0.1498  -0.1498  -0.1416  -0.1416  -0.1416
    -0.1416  -0.1405  -0.1405  -0.1405  -0.1191  -0.1191  -0.1191  -0.1143
    -0.1143  -0.1143  -0.1094  -0.1094  -0.1094  -0.1037  -0.1037  -0.1037
    -0.0784  -0.0784  -0.0784  -0.0611  -0.0611  -0.0611  -0.0570  -0.0570
    -0.0570  -0.0563  -0.0563  -0.0563  -0.0467  -0.0467  -0.0448  -0.0448
    -0.0448  -0.0425  -0.0425  -0.0425  -0.0409  -0.0409  -0.0409  -0.0409
     0.0196   0.0233   0.0233   0.0424   0.0424   0.0424   0.0441   0.0442
     0.0442   0.6710   0.6710   0.6710   0.9594   0.9594   0.9594   1.7024
     1.7025   1.7025   1.7758   1.7759   1.7759   2.1385   2.1458   3.0369
     3.0370   3.0370   3.1107   3.1107   3.1108   3.2174   4.3856   4.5237
     4.5237   4.8614   4.8614   5.0530   5.0867

          k = 0.0320 0.0320 0.0960 ( 79072 PWs)   bands (ev):

   -81.6985 -81.6985 -81.6985 -81.6985 -81.6984 -81.6984 -81.6984 -81.6984
   -81.6984 -81.6984 -81.6984 -81.6984 -81.6984 -81.6984 -81.6984 -81.6984
   -47.5194 -47.5194 -47.5194 -47.5194 -47.5194 -47.5194 -47.5194 -47.5194
   -47.5194 -47.5194 -47.5194 -47.5194 -47.5194 -47.5194 -47.5193 -47.5193
   -47.5193 -47.5193 -47.5193 -47.5193 -47.5193 -47.5193 -47.5193 -47.5193
   -47.5193 -47.5193 -47.5193 -47.5193 -47.5193 -47.5193 -47.5193 -47.5193
   -47.5193 -47.5193 -47.5193 -47.5193 -47.5193 -47.5193 -47.5193 -47.5192
   -47.5192 -47.5192 -47.5192 -47.5192 -47.5192 -47.5192 -47.5192 -47.5192
    -0.5578  -0.2916  -0.2916  -0.2883  -0.2883  -0.2883  -0.2875  -0.2727
    -0.2702  -0.2447  -0.2431  -0.2427  -0.2427  -0.2387  -0.2387  -0.2022
    -0.1938  -0.1878  -0.1807  -0.1789  -0.1759  -0.1743  -0.1743  -0.1717
    -0.1689  -0.1689  -0.1634  -0.1566  -0.1516  -0.1507  -0.1507  -0.1485
    -0.1485  -0.1420  -0.1265  -0.1263  -0.1263  -0.1242  -0.1242  -0.1227
    -0.1221  -0.1126  -0.0965  -0.0965  -0.0947  -0.0947  -0.0943  -0.0936
    -0.0853  -0.0604  -0.0604  -0.0602  -0.0602  -0.0582  -0.0582  -0.0558
    -0.0553  -0.0510  -0.0510  -0.0499  -0.0455  -0.0447  -0.0446  -0.0446
    -0.0439  -0.0439  -0.0439  -0.0424  -0.0417  -0.0416  -0.0410  -0.0409
     0.0117   0.0178   0.0228   0.0329   0.0348   0.0368   0.0368   0.0418
     0.0418   0.4132   0.7069   0.7069   0.9945   0.9945   1.2733   1.5433
     1.5433   1.7206   1.7255   1.7256   1.7915   2.0954   2.1167   3.0829
     3.1094   3.1515   3.1515   3.1540   3.3348   3.3349   4.1838   4.2149
     4.6808   4.8740   4.9976   5.1275   5.2261

          k = 0.0320 0.0320 0.1599 ( 79043 PWs)   bands (ev):

   -81.6985 -81.6985 -81.6985 -81.6985 -81.6984 -81.6984 -81.6984 -81.6984
   -81.6984 -81.6984 -81.6984 -81.6984 -81.6984 -81.6984 -81.6984 -81.6984
   -47.5194 -47.5194 -47.5194 -47.5194 -47.5194 -47.5194 -47.5194 -47.5194
   -47.5194 -47.5194 -47.5194 -47.5193 -47.5193 -47.5193 -47.5193 -47.5193
   -47.5193 -47.5193 -47.5193 -47.5193 -47.5193 -47.5193 -47.5193 -47.5193
   -47.5193 -47.5193 -47.5193 -47.5193 -47.5193 -47.5193 -47.5193 -47.5193
   -47.5193 -47.5193 -47.5193 -47.5193 -47.5192 -47.5192 -47.5192 -47.5192
   -47.5192 -47.5192 -47.5192 -47.5192 -47.5192 -47.5192 -47.5192 -47.5192
    -0.4919  -0.2813  -0.2813  -0.2761  -0.2761  -0.2736  -0.2733  -0.2654
    -0.2581  -0.2419  -0.2396  -0.2348  -0.2348  -0.2283  -0.2283  -0.2166
    -0.2092  -0.2070  -0.1955  -0.1955  -0.1928  -0.1928  -0.1885  -0.1793
    -0.1793  -0.1767  -0.1765  -0.1678  -0.1678  -0.1652  -0.1642  -0.1566
    -0.1566  -0.1507  -0.1307  -0.1307  -0.1223  -0.1202  -0.1202  -0.1073
    -0.1068  -0.0984  -0.0967  -0.0841  -0.0841  -0.0806  -0.0806  -0.0744
    -0.0690  -0.0690  -0.0654  -0.0642  -0.0642  -0.0576  -0.0576  -0.0561
    -0.0538  -0.0534  -0.0492  -0.0492  -0.0448  -0.0432  -0.0431  -0.0426
    -0.0422  -0.0412  -0.0406  -0.0399  -0.0399  -0.0276  -0.0238  -0.0238
    -0.0004   0.0072   0.0150   0.0174   0.0184   0.0274   0.0274   0.0356
     0.0356   0.1951   0.7777   0.7777   1.0633   1.0633   1.3571   1.3571
     1.5941   1.5941   1.6067   1.7562   1.8227   2.0279   2.0613   2.9031
     3.1737   3.2396   3.4107   3.4108   3.6496   3.6497   3.9368   3.9494
     4.9093   4.9474   5.0158   5.0158   5.0487

          k = 0.0320 0.0320 0.2239 ( 79038 PWs)   bands (ev):

   -81.6985 -81.6985 -81.6985 -81.6985 -81.6984 -81.6984 -81.6984 -81.6984
   -81.6984 -81.6984 -81.6984 -81.6984 -81.6984 -81.6984 -81.6984 -81.6984
   -47.5194 -47.5194 -47.5194 -47.5194 -47.5194 -47.5194 -47.5194 -47.5194
   -47.5194 -47.5194 -47.5194 -47.5194 -47.5193 -47.5193 -47.5193 -47.5193
   -47.5193 -47.5193 -47.5193 -47.5193 -47.5193 -47.5193 -47.5193 -47.5193
   -47.5193 -47.5193 -47.5193 -47.5193 -47.5193 -47.5193 -47.5193 -47.5193
   -47.5193 -47.5193 -47.5192 -47.5192 -47.5192 -47.5192 -47.5192 -47.5192
   -47.5192 -47.5192 -47.5192 -47.5192 -47.5192 -47.5192 -47.5192 -47.5192
    -0.3962  -0.2657  -0.2657  -0.2592  -0.2592  -0.2564  -0.2547  -0.2532
    -0.2412  -0.2373  -0.2325  -0.2290  -0.2250  -0.2227  -0.2227  -0.2216
    -0.2216  -0.2214  -0.2158  -0.2158  -0.2138  -0.2138  -0.2078  -0.1989
    -0.1988  -0.1909  -0.1881  -0.1881  -0.1760  -0.1760  -0.1755  -0.1727
    -0.1599  -0.1541  -0.1478  -0.1246  -0.1186  -0.1186  -0.1063  -0.1063
    -0.0915  -0.0840  -0.0840  -0.0755  -0.0755  -0.0753  -0.0753  -0.0698
    -0.0689  -0.0689  -0.0676  -0.0653  -0.0627  -0.0627  -0.0543  -0.0543
    -0.0542  -0.0511  -0.0509  -0.0454  -0.0454  -0.0453  -0.0451  -0.0420
    -0.0414  -0.0394  -0.0364  -0.0198  -0.0198  -0.0161  -0.0127  -0.0093
    -0.0076  -0.0060  -0.0048  -0.0048   0.0108   0.0145   0.0145   0.0255
     0.0255   0.0420   0.8814   0.8814   1.1634   1.1634   1.1764   1.1764
     1.4390   1.4390   1.8083   1.8685   1.9502   1.9517   1.9940   2.6220
     3.3070   3.3656   3.6912   3.7259   3.7552   3.7553   4.0207   4.0208
     4.5771   4.5771   4.8640   4.8640   4.9537

          k = 0.0320 0.0320-0.2879 ( 79046 PWs)   bands (ev):

   -81.6985 -81.6985 -81.6985 -81.6985 -81.6984 -81.6984 -81.6984 -81.6984
   -81.6984 -81.6984 -81.6984 -81.6984 -81.6984 -81.6984 -81.6984 -81.6984
   -47.5194 -47.5194 -47.5194 -47.5194 -47.5194 -47.5194 -47.5194 -47.5194
   -47.5194 -47.5194 -47.5194 -47.5194 -47.5193 -47.5193 -47.5193 -47.5193
   -47.5193 -47.5193 -47.5193 -47.5193 -47.5193 -47.5193 -47.5193 -47.5193
   -47.5193 -47.5193 -47.5193 -47.5193 -47.5193 -47.5193 -47.5193 -47.5193
   -47.5193 -47.5193 -47.5193 -47.5193 -47.5192 -47.5192 -47.5192 -47.5192
   -47.5192 -47.5192 -47.5192 -47.5192 -47.5192 -47.5192 -47.5192 -47.5192
    -0.2811  -0.2811  -0.2455  -0.2455  -0.2455  -0.2455  -0.2411  -0.2411
    -0.2411  -0.2410  -0.2387  -0.2387  -0.2387  -0.2387  -0.2306  -0.2306
    -0.2304  -0.2304  -0.2209  -0.2209  -0.2186  -0.2186  -0.2069  -0.2069
    -0.2069  -0.2069  -0.1960  -0.1960  -0.1960  -0.1960  -0.1679  -0.1679
    -0.1672  -0.1672  -0.1413  -0.1413  -0.1015  -0.1015  -0.1015  -0.1015
    -0.0904  -0.0904  -0.0904  -0.0904  -0.0772  -0.0772  -0.0684  -0.0684
    -0.0684  -0.0683  -0.0605  -0.0605  -0.0605  -0.0605  -0.0493  -0.0493
    -0.0482  -0.0482  -0.0482  -0.0481  -0.0417  -0.0417  -0.0376  -0.0375
    -0.0344  -0.0344  -0.0300  -0.0300  -0.0254  -0.0254  -0.0193  -0.0193
    -0.0014  -0.0014  -0.0014  -0.0014   0.0002   0.0002   0.0119   0.0119
     0.0119   0.0119   1.0155   1.0155   1.0156   1.0156   1.2909   1.2909
     1.2909   1.2909   1.8744   1.8745   1.9271   1.9271   2.2962   2.2962
     3.4804   3.4805   3.5290   3.5291   4.1506   4.1507   4.1507   4.1507
     4.4299   4.4300   4.4300   4.4300   5.0175

          k = 0.0320 0.0960 0.0960 ( 79050 PWs)   bands (ev):

   -81.6985 -81.6985 -81.6985 -81.6985 -81.6984 -81.6984 -81.6984 -81.6984
   -81.6984 -81.6984 -81.6984 -81.6984 -81.6984 -81.6984 -81.6984 -81.6984
   -47.5194 -47.5194 -47.5194 -47.5194 -47.5194 -47.5194 -47.5194 -47.5194
   -47.5194 -47.5194 -47.5194 -47.5193 -47.5193 -47.5193 -47.5193 -47.5193
   -47.5193 -47.5193 -47.5193 -47.5193 -47.5193 -47.5193 -47.5193 -47.5193
   -47.5193 -47.5193 -47.5193 -47.5193 -47.5193 -47.5193 -47.5193 -47.5193
   -47.5193 -47.5193 -47.5193 -47.5193 -47.5193 -47.5192 -47.5192 -47.5192
   -47.5192 -47.5192 -47.5192 -47.5192 -47.5192 -47.5192 -47.5192 -47.5192
    -0.5251  -0.2895  -0.2840  -0.2840  -0.2817  -0.2817  -0.2798  -0.2680
    -0.2652  -0.2421  -0.2412  -0.2412  -0.2367  -0.2367  -0.2302  -0.2155
    -0.2030  -0.1890  -0.1890  -0.1841  -0.1815  -0.1778  -0.1768  -0.1767
    -0.1767  -0.1717  -0.1699  -0.1635  -0.1608  -0.1573  -0.1573  -0.1571
    -0.1571  -0.1563  -0.1216  -0.1177  -0.1177  -0.1147  -0.1142  -0.1118
    -0.1118  -0.1078  -0.1051  -0.0958  -0.0956  -0.0956  -0.0837  -0.0837
    -0.0750  -0.0749  -0.0633  -0.0622  -0.0588  -0.0588  -0.0582  -0.0571
    -0.0571  -0.0513  -0.0513  -0.0506  -0.0486  -0.0466  -0.0447  -0.0447
    -0.0429  -0.0423  -0.0420  -0.0412  -0.0406  -0.0347  -0.0276  -0.0276
     0.0004   0.0135   0.0246   0.0273   0.0273   0.0280   0.0330   0.0330
     0.0430   0.4487   0.4487   0.7426   1.0290   1.3063   1.3063   1.3299
     1.5659   1.5659   1.7436   1.7436   1.8197   2.0335   2.0942   3.0278
     3.1207   3.1945   3.1945   3.3726   3.3727   3.6140   4.1270   4.1657
     4.5950   4.8547   4.9310   5.1846   5.1846

          k = 0.0320 0.0960 0.1599 ( 79045 PWs)   bands (ev):

   -81.6985 -81.6985 -81.6985 -81.6985 -81.6984 -81.6984 -81.6984 -81.6984
   -81.6984 -81.6984 -81.6984 -81.6984 -81.6984 -81.6984 -81.6984 -81.6984
   -47.5195 -47.5194 -47.5194 -47.5194 -47.5194 -47.5194 -47.5194 -47.5194
   -47.5194 -47.5194 -47.5194 -47.5193 -47.5193 -47.5193 -47.5193 -47.5193
   -47.5193 -47.5193 -47.5193 -47.5193 -47.5193 -47.5193 -47.5193 -47.5193
   -47.5193 -47.5193 -47.5193 -47.5193 -47.5193 -47.5193 -47.5193 -47.5193
   -47.5193 -47.5193 -47.5193 -47.5192 -47.5192 -47.5192 -47.5192 -47.5192
   -47.5192 -47.5192 -47.5192 -47.5192 -47.5192 -47.5192 -47.5192 -47.5191
    -0.4610  -0.2819  -0.2750  -0.2712  -0.2705  -0.2703  -0.2669  -0.2606
    -0.2536  -0.2377  -0.2370  -0.2328  -0.2315  -0.2277  -0.2257  -0.2175
    -0.2163  -0.2058  -0.2035  -0.2030  -0.1975  -0.1938  -0.1897  -0.1859
    -0.1834  -0.1778  -0.1745  -0.1741  -0.1706  -0.1693  -0.1666  -0.1664
    -0.1526  -0.1525  -0.1324  -0.1171  -0.1100  -0.1089  -0.1080  -0.1017
    -0.0998  -0.0970  -0.0937  -0.0878  -0.0862  -0.0830  -0.0812  -0.0777
    -0.0766  -0.0677  -0.0669  -0.0667  -0.0628  -0.0613  -0.0576  -0.0564
    -0.0556  -0.0554  -0.0550  -0.0519  -0.0497  -0.0449  -0.0446  -0.0445
    -0.0439  -0.0435  -0.0410  -0.0394  -0.0348  -0.0214  -0.0148  -0.0126
    -0.0089   0.0031   0.0099   0.0157   0.0167   0.0185   0.0238   0.0275
     0.0401   0.2270   0.5192   0.8127   1.0967   1.1191   1.3707   1.3837
     1.6101   1.6165   1.6359   1.7791   1.7956   1.9456   2.0391   2.8594
     3.2718   3.2795   3.4471   3.4477   3.6812   3.9543   3.9740   4.0087
     4.7298   4.7538   4.7682   4.9665   4.9782

          k = 0.0320 0.0960 0.2239 ( 79054 PWs)   bands (ev):

   -81.6985 -81.6985 -81.6985 -81.6985 -81.6984 -81.6984 -81.6984 -81.6984
   -81.6984 -81.6984 -81.6984 -81.6984 -81.6984 -81.6984 -81.6984 -81.6984
   -47.5194 -47.5194 -47.5194 -47.5194 -47.5194 -47.5194 -47.5194 -47.5194
   -47.5194 -47.5194 -47.5194 -47.5194 -47.5193 -47.5193 -47.5193 -47.5193
   -47.5193 -47.5193 -47.5193 -47.5193 -47.5193 -47.5193 -47.5193 -47.5193
   -47.5193 -47.5193 -47.5193 -47.5193 -47.5193 -47.5193 -47.5193 -47.5193
   -47.5193 -47.5193 -47.5193 -47.5193 -47.5192 -47.5192 -47.5192 -47.5192
   -47.5192 -47.5192 -47.5192 -47.5192 -47.5192 -47.5192 -47.5192 -47.5192
    -0.3705  -0.2690  -0.2616  -0.2583  -0.2564  -0.2536  -0.2504  -0.2503
    -0.2382  -0.2369  -0.2306  -0.2288  -0.2281  -0.2275  -0.2247  -0.2223
    -0.2211  -0.2198  -0.2168  -0.2132  -0.2121  -0.2112  -0.2010  -0.1987
    -0.1973  -0.1954  -0.1853  -0.1851  -0.1847  -0.1791  -0.1751  -0.1665
    -0.1612  -0.1387  -0.1325  -0.1250  -0.1122  -0.1017  -0.0961  -0.0960
    -0.0947  -0.0871  -0.0825  -0.0783  -0.0780  -0.0762  -0.0737  -0.0734
    -0.0734  -0.0734  -0.0706  -0.0691  -0.0639  -0.0626  -0.0626  -0.0556
    -0.0549  -0.0523  -0.0522  -0.0482  -0.0480  -0.0463  -0.0460  -0.0459
    -0.0399  -0.0383  -0.0360  -0.0357  -0.0328  -0.0206  -0.0129  -0.0115
    -0.0070  -0.0043   0.0006   0.0006   0.0070   0.0082   0.0186   0.0193
     0.0332   0.0595   0.6236   0.9152   0.9267   1.1951   1.2061   1.4627
     1.4653   1.6743   1.6964   1.8307   1.8486   1.9680   1.9741   2.6108
     3.4044   3.5557   3.5594   3.7597   3.7843   3.8514   4.0447   4.3375
     4.3381   4.5740   4.6833   4.8199   4.8552

          k = 0.0320 0.0960-0.2879 ( 79002 PWs)   bands (ev):

   -81.6985 -81.6985 -81.6985 -81.6985 -81.6984 -81.6984 -81.6984 -81.6984
   -81.6984 -81.6984 -81.6984 -81.6984 -81.6984 -81.6984 -81.6984 -81.6984
   -47.5194 -47.5194 -47.5194 -47.5194 -47.5194 -47.5194 -47.5194 -47.5194
   -47.5194 -47.5194 -47.5193 -47.5193 -47.5193 -47.5193 -47.5193 -47.5193
   -47.5193 -47.5193 -47.5193 -47.5193 -47.5193 -47.5193 -47.5193 -47.5193
   -47.5193 -47.5193 -47.5193 -47.5193 -47.5193 -47.5193 -47.5193 -47.5193
   -47.5193 -47.5192 -47.5192 -47.5192 -47.5192 -47.5192 -47.5192 -47.5192
   -47.5192 -47.5192 -47.5192 -47.5192 -47.5192 -47.5192 -47.5192 -47.5192
    -0.2722  -0.2721  -0.2510  -0.2510  -0.2478  -0.2478  -0.2446  -0.2446
    -0.2393  -0.2393  -0.2379  -0.2379  -0.2374  -0.2374  -0.2319  -0.2319
    -0.2169  -0.2169  -0.2168  -0.2168  -0.2142  -0.2141  -0.2044  -0.2044
    -0.2033  -0.2033  -0.1946  -0.1946  -0.1817  -0.1817  -0.1817  -0.1817
    -0.1498  -0.1498  -0.1199  -0.1199  -0.1153  -0.1153  -0.0987  -0.0987
    -0.0879  -0.0879  -0.0809  -0.0808  -0.0748  -0.0748  -0.0744  -0.0744
    -0.0685  -0.0685  -0.0629  -0.0629  -0.0613  -0.0613  -0.0537  -0.0537
    -0.0527  -0.0527  -0.0522  -0.0522  -0.0492  -0.0492  -0.0491  -0.0491
    -0.0337  -0.0337  -0.0290  -0.0290  -0.0244  -0.0244  -0.0186  -0.0186
    -0.0170  -0.0170  -0.0064  -0.0064   0.0068   0.0068   0.0114   0.0114
     0.0225   0.0225   0.7602   0.7603   1.0476   1.0476   1.3202   1.3202
     1.5758   1.5758   1.7554   1.7554   1.8954   1.8955   2.3063   2.3063
     3.5661   3.5661   3.6936   3.6937   3.9263   3.9263   4.1684   4.1684
     4.4424   4.4425   4.7176   4.7519   4.7542

          k = 0.0320 0.1599 0.1599 ( 78997 PWs)   bands (ev):

   -81.6985 -81.6985 -81.6985 -81.6985 -81.6984 -81.6984 -81.6984 -81.6984
   -81.6984 -81.6984 -81.6984 -81.6984 -81.6984 -81.6984 -81.6984 -81.6984
   -47.5194 -47.5194 -47.5194 -47.5194 -47.5194 -47.5194 -47.5194 -47.5194
   -47.5194 -47.5194 -47.5194 -47.5193 -47.5193 -47.5193 -47.5193 -47.5193
   -47.5193 -47.5193 -47.5193 -47.5193 -47.5193 -47.5193 -47.5193 -47.5193
   -47.5193 -47.5193 -47.5193 -47.5193 -47.5193 -47.5193 -47.5193 -47.5193
   -47.5193 -47.5193 -47.5193 -47.5192 -47.5192 -47.5192 -47.5192 -47.5192
   -47.5192 -47.5192 -47.5192 -47.5192 -47.5192 -47.5192 -47.5192 -47.5192
    -0.4024  -0.2777  -0.2645  -0.2645  -0.2637  -0.2637  -0.2546  -0.2529
    -0.2431  -0.2373  -0.2347  -0.2275  -0.2275  -0.2270  -0.2191  -0.2191
    -0.2163  -0.2144  -0.2144  -0.2076  -0.2076  -0.2052  -0.2028  -0.1916
    -0.1861  -0.1861  -0.1797  -0.1754  -0.1712  -0.1669  -0.1669  -0.1660
    -0.1628  -0.1374  -0.1168  -0.1168  -0.1099  -0.1014  -0.0993  -0.0955
    -0.0955  -0.0936  -0.0934  -0.0889  -0.0837  -0.0819  -0.0819  -0.0721
    -0.0706  -0.0705  -0.0664  -0.0664  -0.0636  -0.0636  -0.0612  -0.0602
    -0.0602  -0.0572  -0.0572  -0.0561  -0.0511  -0.0511  -0.0462  -0.0457
    -0.0449  -0.0435  -0.0396  -0.0370  -0.0329  -0.0282  -0.0165  -0.0070
     0.0012   0.0027   0.0027   0.0042   0.0042   0.0129   0.0129   0.0270
     0.0407   0.2932   0.2932   0.8813   0.8970   1.1622   1.4357   1.4357
     1.6603   1.6604   1.6918   1.6918   1.8354   1.9098   1.9746   2.7554
     3.2835   3.5200   3.5200   3.7423   3.7423   3.9788   4.0491   4.3070
     4.5126   4.5690   4.5690   4.7360   4.8198

          k = 0.0320 0.1599 0.2239 ( 79029 PWs)   bands (ev):

   -81.6985 -81.6985 -81.6985 -81.6985 -81.6984 -81.6984 -81.6984 -81.6984
   -81.6984 -81.6984 -81.6984 -81.6984 -81.6984 -81.6984 -81.6984 -81.6984
   -47.5194 -47.5194 -47.5194 -47.5194 -47.5194 -47.5194 -47.5194 -47.5194
   -47.5194 -47.5194 -47.5193 -47.5193 -47.5193 -47.5193 -47.5193 -47.5193
   -47.5193 -47.5193 -47.5193 -47.5193 -47.5193 -47.5193 -47.5193 -47.5193
   -47.5193 -47.5193 -47.5193 -47.5193 -47.5193 -47.5193 -47.5193 -47.5193
   -47.5193 -47.5193 -47.5193 -47.5193 -47.5192 -47.5192 -47.5192 -47.5192
   -47.5192 -47.5192 -47.5192 -47.5192 -47.5192 -47.5192 -47.5192 -47.5192
    -0.3270  -0.2686  -0.2567  -0.2560  -0.2538  -0.2531  -0.2448  -0.2434
    -0.2406  -0.2365  -0.2364  -0.2310  -0.2306  -0.2282  -0.2271  -0.2224
    -0.2199  -0.2169  -0.2150  -0.2126  -0.2066  -0.2041  -0.2035  -0.1948
    -0.1921  -0.1868  -0.1867  -0.1848  -0.1800  -0.1788  -0.1727  -0.1538
    -0.1474  -0.1392  -0.1169  -0.1127  -0.1058  -0.0999  -0.0966  -0.0965
    -0.0877  -0.0836  -0.0818  -0.0813  -0.0812  -0.0776  -0.0755  -0.0749
    -0.0739  -0.0712  -0.0681  -0.0666  -0.0649  -0.0621  -0.0616  -0.0614
    -0.0583  -0.0580  -0.0551  -0.0549  -0.0537  -0.0534  -0.0494  -0.0485
    -0.0476  -0.0450  -0.0419  -0.0368  -0.0318  -0.0213  -0.0212  -0.0159
    -0.0157  -0.0096  -0.0054  -0.0049   0.0066   0.0148   0.0187   0.0266
     0.0373   0.1079   0.3950   0.6995   0.9815   1.2572   1.2642   1.5112
     1.5167   1.7177   1.7234   1.7680   1.8896   1.9148   2.0140   2.5733
     3.4658   3.6243   3.8278   3.8392   3.8871   4.0147   4.0882   4.1549
     4.3821   4.4274   4.5439   4.6972   4.8133

          k = 0.0320 0.1599-0.2879 ( 79022 PWs)   bands (ev):

   -81.6985 -81.6985 -81.6985 -81.6985 -81.6984 -81.6984 -81.6984 -81.6984
   -81.6984 -81.6984 -81.6984 -81.6984 -81.6984 -81.6984 -81.6984 -81.6984
   -47.5194 -47.5194 -47.5194 -47.5194 -47.5194 -47.5194 -47.5194 -47.5194
   -47.5194 -47.5194 -47.5193 -47.5193 -47.5193 -47.5193 -47.5193 -47.5193
   -47.5193 -47.5193 -47.5193 -47.5193 -47.5193 -47.5193 -47.5193 -47.5193
   -47.5193 -47.5193 -47.5193 -47.5193 -47.5193 -47.5193 -47.5193 -47.5193
   -47.5193 -47.5192 -47.5192 -47.5192 -47.5192 -47.5192 -47.5192 -47.5192
   -47.5192 -47.5192 -47.5192 -47.5192 -47.5192 -47.5192 -47.5192 -47.5192
    -0.2633  -0.2633  -0.2548  -0.2548  -0.2508  -0.2508  -0.2448  -0.2448
    -0.2447  -0.2447  -0.2390  -0.2390  -0.2323  -0.2323  -0.2267  -0.2267
    -0.2176  -0.2176  -0.2076  -0.2076  -0.2015  -0.2015  -0.1955  -0.1955
    -0.1950  -0.1950  -0.1896  -0.1896  -0.1892  -0.1892  -0.1644  -0.1644
    -0.1327  -0.1327  -0.1205  -0.1205  -0.0958  -0.0958  -0.0850  -0.0850
    -0.0831  -0.0831  -0.0755  -0.0755  -0.0752  -0.0752  -0.0750  -0.0750
    -0.0728  -0.0728  -0.0704  -0.0704  -0.0677  -0.0677  -0.0665  -0.0665
    -0.0665  -0.0665  -0.0518  -0.0518  -0.0513  -0.0513  -0.0497  -0.0497
    -0.0379  -0.0379  -0.0341  -0.0341  -0.0300  -0.0300  -0.0212  -0.0212
    -0.0136  -0.0136  -0.0111  -0.0111  -0.0014  -0.0014   0.0224   0.0224
     0.0299   0.0299   0.5311   0.5311   1.1104   1.1104   1.3777   1.3777
     1.6068   1.6068   1.8020   1.8021   1.8514   1.8514   2.3173   2.3174
     3.7529   3.7530   3.7743   3.7744   3.9267   3.9268   4.1948   4.1949
     4.3582   4.3582   4.4571   4.4572   5.2394

          k = 0.0320 0.2239 0.2239 ( 78965 PWs)   bands (ev):

   -81.6985 -81.6985 -81.6985 -81.6985 -81.6984 -81.6984 -81.6984 -81.6984
   -81.6984 -81.6984 -81.6984 -81.6984 -81.6984 -81.6984 -81.6984 -81.6984
   -47.5194 -47.5194 -47.5194 -47.5194 -47.5194 -47.5194 -47.5194 -47.5194
   -47.5194 -47.5193 -47.5193 -47.5193 -47.5193 -47.5193 -47.5193 -47.5193
   -47.5193 -47.5193 -47.5193 -47.5193 -47.5193 -47.5193 -47.5193 -47.5193
   -47.5193 -47.5193 -47.5193 -47.5193 -47.5193 -47.5193 -47.5193 -47.5193
   -47.5193 -47.5193 -47.5192 -47.5192 -47.5192 -47.5192 -47.5192 -47.5192
   -47.5192 -47.5192 -47.5192 -47.5192 -47.5192 -47.5192 -47.5192 -47.5191
    -0.2848  -0.2645  -0.2513  -0.2513  -0.2512  -0.2512  -0.2486  -0.2454
    -0.2454  -0.2427  -0.2388  -0.2357  -0.2323  -0.2314  -0.2247  -0.2204
    -0.2204  -0.2118  -0.2063  -0.2063  -0.2018  -0.2007  -0.2007  -0.1918
    -0.1918  -0.1819  -0.1784  -0.1767  -0.1721  -0.1721  -0.1696  -0.1655
    -0.1325  -0.1205  -0.1205  -0.1185  -0.1022  -0.0939  -0.0916  -0.0852
    -0.0828  -0.0828  -0.0767  -0.0767  -0.0764  -0.0757  -0.0749  -0.0739
    -0.0736  -0.0736  -0.0725  -0.0725  -0.0708  -0.0641  -0.0635  -0.0635
    -0.0591  -0.0591  -0.0589  -0.0589  -0.0522  -0.0519  -0.0510  -0.0510
    -0.0506  -0.0457  -0.0443  -0.0346  -0.0343  -0.0329  -0.0268  -0.0211
    -0.0181  -0.0181  -0.0106  -0.0072  -0.0071   0.0261   0.0261   0.0302
     0.0376   0.1997   0.1997   0.5000   1.0779   1.3471   1.3486   1.3486
     1.5819   1.5908   1.5908   1.7874   2.0494   2.0596   2.0596   2.4807
     3.5171   3.9103   3.9104   3.9799   4.0457   4.0457   4.1391   4.1396
     4.1397   4.1500   4.4328   4.6870   4.9434

          k = 0.0320 0.2239-0.2879 ( 79010 PWs)   bands (ev):

   -81.6985 -81.6985 -81.6985 -81.6985 -81.6984 -81.6984 -81.6984 -81.6984
   -81.6984 -81.6984 -81.6984 -81.6984 -81.6984 -81.6984 -81.6984 -81.6984
   -47.5194 -47.5194 -47.5194 -47.5194 -47.5194 -47.5194 -47.5194 -47.5194
   -47.5194 -47.5193 -47.5193 -47.5193 -47.5193 -47.5193 -47.5193 -47.5193
   -47.5193 -47.5193 -47.5193 -47.5193 -47.5193 -47.5193 -47.5193 -47.5193
   -47.5193 -47.5193 -47.5193 -47.5193 -47.5193 -47.5193 -47.5193 -47.5193
   -47.5193 -47.5193 -47.5193 -47.5193 -47.5192 -47.5192 -47.5192 -47.5192
   -47.5192 -47.5192 -47.5192 -47.5192 -47.5192 -47.5192 -47.5192 -47.5192
    -0.2591  -0.2590  -0.2568  -0.2568  -0.2503  -0.2503  -0.2473  -0.2473
    -0.2460  -0.2460  -0.2428  -0.2427  -0.2278  -0.2278  -0.2243  -0.2243
    -0.2173  -0.2173  -0.2057  -0.2057  -0.1927  -0.1926  -0.1880  -0.1880
    -0.1860  -0.1860  -0.1805  -0.1805  -0.1780  -0.1780  -0.1534  -0.1534
    -0.1436  -0.1436  -0.0985  -0.0985  -0.0958  -0.0958  -0.0954  -0.0954
    -0.0879  -0.0879  -0.0863  -0.0863  -0.0801  -0.0801  -0.0707  -0.0707
    -0.0674  -0.0674  -0.0673  -0.0673  -0.0661  -0.0661  -0.0644  -0.0644
    -0.0560  -0.0560  -0.0550  -0.0550  -0.0547  -0.0547  -0.0496  -0.0496
    -0.0495  -0.0495  -0.0452  -0.0452  -0.0273  -0.0273  -0.0200  -0.0200
    -0.0189  -0.0189  -0.0096  -0.0096   0.0301   0.0301   0.0338   0.0338
     0.0439   0.0439   0.3322   0.3322   1.2017   1.2017   1.4561   1.4561
     1.4607   1.4607   1.6835   1.6835   2.0855   2.0856   2.3076   2.3076
     3.7245   3.7245   3.9743   3.9743   4.0359   4.0359   4.1723   4.1723
     4.2043   4.2044   4.4468   4.4469   5.1561

          k = 0.0320-0.2879-0.2879 ( 78968 PWs)   bands (ev):

   -81.6985 -81.6985 -81.6985 -81.6985 -81.6984 -81.6984 -81.6984 -81.6984
   -81.6984 -81.6984 -81.6984 -81.6984 -81.6984 -81.6984 -81.6984 -81.6984
   -47.5194 -47.5194 -47.5194 -47.5194 -47.5194 -47.5194 -47.5194 -47.5194
   -47.5193 -47.5193 -47.5193 -47.5193 -47.5193 -47.5193 -47.5193 -47.5193
   -47.5193 -47.5193 -47.5193 -47.5193 -47.5193 -47.5193 -47.5193 -47.5193
   -47.5193 -47.5193 -47.5193 -47.5193 -47.5193 -47.5193 -47.5193 -47.5193
   -47.5193 -47.5192 -47.5192 -47.5192 -47.5192 -47.5192 -47.5192 -47.5192
   -47.5192 -47.5192 -47.5192 -47.5192 -47.5192 -47.5192 -47.5192 -47.5192
    -0.2577  -0.2577  -0.2577  -0.2577  -0.2473  -0.2473  -0.2473  -0.2473
    -0.2472  -0.2472  -0.2472  -0.2472  -0.2249  -0.2249  -0.2249  -0.2248
    -0.2133  -0.2133  -0.2133  -0.2133  -0.1818  -0.1818  -0.1818  -0.1818
    -0.1746  -0.1746  -0.1746  -0.1746  -0.1737  -0.1737  -0.1737  -0.1737
    -0.1218  -0.1218  -0.1218  -0.1218  -0.0947  -0.0947  -0.0947  -0.0947
    -0.0873  -0.0873  -0.0873  -0.0873  -0.0746  -0.0746  -0.0746  -0.0746
    -0.0652  -0.0652  -0.0652  -0.0652  -0.0613  -0.0613  -0.0613  -0.0613
    -0.0613  -0.0613  -0.0613  -0.0613  -0.0594  -0.0594  -0.0594  -0.0594
    -0.0451  -0.0451  -0.0451  -0.0450  -0.0244  -0.0244  -0.0244  -0.0244
    -0.0155  -0.0155  -0.0155  -0.0155   0.0339   0.0339   0.0339   0.0339
     0.1672   0.1672   0.1672   0.1673   1.3184   1.3184   1.3184   1.3184
     1.5650   1.5651   1.5651   1.5651   2.2406   2.2407   2.2407   2.2407
     3.8106   3.8107   3.8107   3.8107   4.1433   4.1433   4.1433   4.1435
     4.3614   4.3614   4.3614   4.3615   5.2116

          k = 0.0960 0.0960 0.0960 ( 78946 PWs)   bands (ev):

   -81.6985 -81.6985 -81.6985 -81.6985 -81.6984 -81.6984 -81.6984 -81.6984
   -81.6984 -81.6984 -81.6984 -81.6984 -81.6984 -81.6984 -81.6984 -81.6984
   -47.5194 -47.5194 -47.5194 -47.5194 -47.5194 -47.5194 -47.5194 -47.5193
   -47.5193 -47.5193 -47.5193 -47.5193 -47.5193 -47.5193 -47.5193 -47.5193
   -47.5193 -47.5193 -47.5193 -47.5193 -47.5193 -47.5193 -47.5193 -47.5193
   -47.5193 -47.5193 -47.5193 -47.5193 -47.5193 -47.5193 -47.5193 -47.5193
   -47.5192 -47.5192 -47.5192 -47.5192 -47.5192 -47.5192 -47.5192 -47.5192
   -47.5192 -47.5192 -47.5192 -47.5192 -47.5192 -47.5192 -47.5192 -47.5192
    -0.4931  -0.2815  -0.2815  -0.2815  -0.2747  -0.2747  -0.2747  -0.2617
    -0.2617  -0.2409  -0.2409  -0.2409  -0.2277  -0.2277  -0.2277  -0.2275
    -0.1942  -0.1942  -0.1934  -0.1934  -0.1934  -0.1868  -0.1868  -0.1868
    -0.1831  -0.1831  -0.1651  -0.1651  -0.1651  -0.1579  -0.1578  -0.1578
    -0.1526  -0.1334  -0.1334  -0.1184  -0.1184  -0.1184  -0.1078  -0.1075
    -0.1074  -0.1074  -0.1046  -0.1046  -0.1046  -0.0805  -0.0805  -0.0805
    -0.0626  -0.0626  -0.0626  -0.0614  -0.0614  -0.0614  -0.0590  -0.0590
    -0.0590  -0.0571  -0.0571  -0.0571  -0.0493  -0.0493  -0.0428  -0.0428
    -0.0428  -0.0424  -0.0424  -0.0409  -0.0409  -0.0202  -0.0202  -0.0202
    -0.0131   0.0181   0.0181   0.0181   0.0191   0.0191   0.0348   0.0348
     0.0348   0.4846   0.4846   0.4846   1.3386   1.3386   1.3386   1.3565
     1.3565   1.3565   1.8354   1.8354   1.8354   1.9344   2.1068   2.9626
     3.1660   3.1661   3.1661   3.6462   3.6462   3.6463   4.1260   4.2880
     4.2880   5.0339   5.0343   5.0344   5.2939

          k = 0.0960 0.0960 0.1599 ( 79053 PWs)   bands (ev):

   -81.6985 -81.6985 -81.6985 -81.6985 -81.6984 -81.6984 -81.6984 -81.6984
   -81.6984 -81.6984 -81.6984 -81.6984 -81.6984 -81.6984 -81.6984 -81.6984
   -47.5195 -47.5194 -47.5194 -47.5194 -47.5194 -47.5194 -47.5194 -47.5194
   -47.5194 -47.5194 -47.5194 -47.5194 -47.5194 -47.5193 -47.5193 -47.5193
   -47.5193 -47.5193 -47.5193 -47.5193 -47.5193 -47.5193 -47.5193 -47.5193
   -47.5193 -47.5193 -47.5193 -47.5193 -47.5193 -47.5193 -47.5193 -47.5193
   -47.5193 -47.5193 -47.5193 -47.5193 -47.5193 -47.5192 -47.5192 -47.5192
   -47.5192 -47.5192 -47.5192 -47.5192 -47.5192 -47.5192 -47.5192 -47.5192
    -0.4309  -0.2744  -0.2744  -0.2666  -0.2666  -0.2632  -0.2632  -0.2550
    -0.2498  -0.2384  -0.2375  -0.2356  -0.2356  -0.2213  -0.2151  -0.2151
    -0.2127  -0.2127  -0.2085  -0.2052  -0.2029  -0.1949  -0.1930  -0.1930
    -0.1861  -0.1811  -0.1747  -0.1718  -0.1718  -0.1698  -0.1697  -0.1619
    -0.1499  -0.1373  -0.1258  -0.1258  -0.1186  -0.1097  -0.1090  -0.1038
    -0.1037  -0.0959  -0.0958  -0.0884  -0.0883  -0.0778  -0.0778  -0.0773
    -0.0773  -0.0647  -0.0647  -0.0643  -0.0638  -0.0623  -0.0601  -0.0601
    -0.0581  -0.0551  -0.0547  -0.0465  -0.0455  -0.0454  -0.0449  -0.0449
    -0.0442  -0.0427  -0.0425  -0.0425  -0.0383  -0.0303  -0.0081  -0.0081
    -0.0067  -0.0002   0.0059   0.0059   0.0086   0.0197   0.0211   0.0326
     0.0326   0.2612   0.5553   0.5553   1.1490   1.1490   1.4015   1.4015
     1.4087   1.6643   1.8134   1.8134   1.8153   1.8663   2.0783   2.8213
     3.2556   3.3138   3.3139   3.7091   3.9807   3.9807   4.0117   4.0973
     4.5044   4.7069   4.7263   4.7263   4.8360

          k = 0.0960 0.0960 0.2239 ( 79027 PWs)   bands (ev):

   -81.6985 -81.6985 -81.6985 -81.6985 -81.6984 -81.6984 -81.6984 -81.6984
   -81.6984 -81.6984 -81.6984 -81.6984 -81.6984 -81.6984 -81.6984 -81.6984
   -47.5194 -47.5194 -47.5194 -47.5194 -47.5194 -47.5194 -47.5194 -47.5194
   -47.5194 -47.5194 -47.5193 -47.5193 -47.5193 -47.5193 -47.5193 -47.5193
   -47.5193 -47.5193 -47.5193 -47.5193 -47.5193 -47.5193 -47.5193 -47.5193
   -47.5193 -47.5193 -47.5193 -47.5193 -47.5193 -47.5193 -47.5193 -47.5193
   -47.5193 -47.5193 -47.5193 -47.5193 -47.5192 -47.5192 -47.5192 -47.5192
   -47.5192 -47.5192 -47.5192 -47.5192 -47.5192 -47.5192 -47.5192 -47.5192
    -0.3457  -0.2632  -0.2632  -0.2587  -0.2479  -0.2479  -0.2470  -0.2455
    -0.2453  -0.2343  -0.2332  -0.2314  -0.2314  -0.2253  -0.2253  -0.2210
    -0.2197  -0.2186  -0.2104  -0.2104  -0.2087  -0.2067  -0.2000  -0.2000
    -0.1930  -0.1915  -0.1915  -0.1838  -0.1780  -0.1727  -0.1727  -0.1698
    -0.1680  -0.1410  -0.1251  -0.1251  -0.1164  -0.0954  -0.0954  -0.0922
    -0.0922  -0.0913  -0.0883  -0.0841  -0.0760  -0.0744  -0.0744  -0.0716
    -0.0716  -0.0697  -0.0681  -0.0681  -0.0674  -0.0674  -0.0668  -0.0626
    -0.0539  -0.0527  -0.0500  -0.0499  -0.0499  -0.0464  -0.0454  -0.0428
    -0.0426  -0.0425  -0.0399  -0.0337  -0.0337  -0.0319  -0.0240  -0.0080
    -0.0080  -0.0061   0.0004   0.0048   0.0052   0.0052   0.0192   0.0266
     0.0266   0.0846   0.6592   0.6592   0.9591   0.9591   1.4845   1.4914
     1.4914   1.6935   1.7183   1.7183   1.9110   1.9954   2.0259   2.6000
     3.3875   3.5942   3.5943   3.7680   3.7986   4.0155   4.3411   4.3411
     4.3570   4.3571   4.6105   4.6910   4.8034

          k = 0.0960 0.0960-0.2879 ( 79084 PWs)   bands (ev):

   -81.6985 -81.6985 -81.6985 -81.6985 -81.6984 -81.6984 -81.6984 -81.6984
   -81.6984 -81.6984 -81.6984 -81.6984 -81.6984 -81.6984 -81.6984 -81.6984
   -47.5194 -47.5194 -47.5194 -47.5194 -47.5194 -47.5194 -47.5194 -47.5194
   -47.5194 -47.5194 -47.5194 -47.5194 -47.5194 -47.5194 -47.5193 -47.5193
   -47.5193 -47.5193 -47.5193 -47.5193 -47.5193 -47.5193 -47.5193 -47.5193
   -47.5193 -47.5193 -47.5193 -47.5193 -47.5193 -47.5193 -47.5193 -47.5193
   -47.5193 -47.5193 -47.5193 -47.5193 -47.5192 -47.5192 -47.5192 -47.5192
   -47.5192 -47.5192 -47.5192 -47.5192 -47.5192 -47.5192 -47.5192 -47.5192
    -0.2622  -0.2622  -0.2521  -0.2521  -0.2486  -0.2486  -0.2486  -0.2486
    -0.2330  -0.2330  -0.2298  -0.2298  -0.2298  -0.2298  -0.2282  -0.2282
    -0.2257  -0.2257  -0.2136  -0.2136  -0.2102  -0.2102  -0.2102  -0.2102
    -0.1905  -0.1905  -0.1845  -0.1845  -0.1845  -0.1845  -0.1736  -0.1736
    -0.1695  -0.1695  -0.1128  -0.1128  -0.1128  -0.1128  -0.0880  -0.0880
    -0.0789  -0.0789  -0.0789  -0.0789  -0.0738  -0.0738  -0.0726  -0.0726
    -0.0714  -0.0713  -0.0713  -0.0713  -0.0708  -0.0708  -0.0585  -0.0585
    -0.0585  -0.0584  -0.0528  -0.0528  -0.0494  -0.0494  -0.0473  -0.0473
    -0.0426  -0.0426  -0.0237  -0.0236  -0.0216  -0.0216  -0.0216  -0.0216
    -0.0186  -0.0186  -0.0144  -0.0144   0.0136   0.0136   0.0172   0.0172
     0.0172   0.0172   0.7946   0.7946   0.7946   0.7946   1.5808   1.5809
     1.6014   1.6014   1.6014   1.6015   1.9663   1.9664   2.3154   2.3155
     3.5591   3.5591   3.9062   3.9063   3.9500   3.9501   3.9501   3.9501
     4.6104   4.6104   4.7616   4.7616   4.7616

          k = 0.0960 0.1599 0.1599 ( 79037 PWs)   bands (ev):

   -81.6985 -81.6985 -81.6985 -81.6985 -81.6984 -81.6984 -81.6984 -81.6984
   -81.6984 -81.6984 -81.6984 -81.6984 -81.6984 -81.6984 -81.6984 -81.6984
   -47.5194 -47.5194 -47.5194 -47.5194 -47.5194 -47.5194 -47.5194 -47.5194
   -47.5194 -47.5194 -47.5194 -47.5194 -47.5193 -47.5193 -47.5193 -47.5193
   -47.5193 -47.5193 -47.5193 -47.5193 -47.5193 -47.5193 -47.5193 -47.5193
   -47.5193 -47.5193 -47.5193 -47.5193 -47.5193 -47.5193 -47.5193 -47.5193
   -47.5193 -47.5193 -47.5193 -47.5192 -47.5192 -47.5192 -47.5192 -47.5192
   -47.5192 -47.5192 -47.5192 -47.5192 -47.5192 -47.5192 -47.5192 -47.5191
    -0.3744  -0.2695  -0.2610  -0.2610  -0.2582  -0.2582  -0.2516  -0.2467
    -0.2447  -0.2403  -0.2337  -0.2322  -0.2322  -0.2243  -0.2212  -0.2212
    -0.2154  -0.2083  -0.2083  -0.2024  -0.2023  -0.2017  -0.1944  -0.1919
    -0.1909  -0.1839  -0.1792  -0.1774  -0.1774  -0.1717  -0.1716  -0.1716
    -0.1447  -0.1264  -0.1264  -0.1231  -0.1151  -0.1109  -0.1055  -0.1055
    -0.1013  -0.0939  -0.0933  -0.0876  -0.0872  -0.0871  -0.0787  -0.0787
    -0.0723  -0.0684  -0.0627  -0.0626  -0.0607  -0.0607  -0.0600  -0.0579
    -0.0578  -0.0549  -0.0508  -0.0507  -0.0498  -0.0483  -0.0459  -0.0459
    -0.0457  -0.0436  -0.0426  -0.0425  -0.0376  -0.0358  -0.0115  -0.0115
    -0.0097  -0.0050   0.0031   0.0036   0.0036   0.0189   0.0189   0.0215
     0.0337   0.3297   0.3298   0.6257   0.9296   1.2074   1.2074   1.4615
     1.6706   1.7183   1.7183   1.8481   1.8481   1.9250   2.0650   2.7296
     3.3278   3.3969   3.3969   4.0097   4.0306   4.0306   4.1808   4.3277
     4.4322   4.5371   4.5371   4.5537   4.5914

          k = 0.0960 0.1599 0.2239 ( 78997 PWs)   bands (ev):

   -81.6985 -81.6985 -81.6985 -81.6985 -81.6984 -81.6984 -81.6984 -81.6984
   -81.6984 -81.6984 -81.6984 -81.6984 -81.6984 -81.6984 -81.6984 -81.6984
   -47.5194 -47.5194 -47.5194 -47.5194 -47.5194 -47.5194 -47.5194 -47.5194
   -47.5194 -47.5194 -47.5193 -47.5193 -47.5193 -47.5193 -47.5193 -47.5193
   -47.5193 -47.5193 -47.5193 -47.5193 -47.5193 -47.5193 -47.5193 -47.5193
   -47.5193 -47.5193 -47.5193 -47.5193 -47.5193 -47.5193 -47.5193 -47.5193
   -47.5193 -47.5192 -47.5192 -47.5192 -47.5192 -47.5192 -47.5192 -47.5192
   -47.5192 -47.5192 -47.5192 -47.5192 -47.5192 -47.5192 -47.5192 -47.5192
    -0.3041  -0.2609  -0.2545  -0.2542  -0.2493  -0.2460  -0.2457  -0.2375
    -0.2374  -0.2361  -0.2357  -0.2307  -0.2269  -0.2252  -0.2249  -0.2245
    -0.2193  -0.2145  -0.2111  -0.2096  -0.1991  -0.1976  -0.1953  -0.1948
    -0.1933  -0.1868  -0.1862  -0.1840  -0.1838  -0.1803  -0.1698  -0.1657
    -0.1583  -0.1379  -0.1232  -0.1200  -0.1127  -0.1126  -0.0992  -0.0953
    -0.0925  -0.0852  -0.0830  -0.0829  -0.0817  -0.0783  -0.0774  -0.0757
    -0.0710  -0.0698  -0.0684  -0.0659  -0.0647  -0.0636  -0.0632  -0.0600
    -0.0553  -0.0549  -0.0547  -0.0530  -0.0500  -0.0483  -0.0466  -0.0452
    -0.0451  -0.0424  -0.0424  -0.0417  -0.0319  -0.0306  -0.0286  -0.0260
    -0.0208  -0.0103   0.0009   0.0016   0.0129   0.0148   0.0149   0.0219
     0.0309   0.1431   0.4322   0.7284   0.7343   1.0224   1.2922   1.5288
     1.5470   1.7607   1.7918   1.8974   1.9316   2.0176   2.0334   2.5646
     3.5063   3.5185   3.6616   3.8538   4.0969   4.1669   4.2037   4.3257
     4.3895   4.4068   4.4092   4.6402   4.7106

          k = 0.0960 0.1599-0.2879 ( 79032 PWs)   bands (ev):

   -81.6985 -81.6985 -81.6985 -81.6985 -81.6984 -81.6984 -81.6984 -81.6984
   -81.6984 -81.6984 -81.6984 -81.6984 -81.6984 -81.6984 -81.6984 -81.6984
   -47.5194 -47.5194 -47.5194 -47.5194 -47.5194 -47.5194 -47.5194 -47.5194
   -47.5194 -47.5194 -47.5193 -47.5193 -47.5193 -47.5193 -47.5193 -47.5193
   -47.5193 -47.5193 -47.5193 -47.5193 -47.5193 -47.5193 -47.5193 -47.5193
   -47.5193 -47.5193 -47.5193 -47.5193 -47.5193 -47.5193 -47.5193 -47.5193
   -47.5193 -47.5193 -47.5193 -47.5192 -47.5192 -47.5192 -47.5192 -47.5192
   -47.5192 -47.5192 -47.5192 -47.5192 -47.5192 -47.5192 -47.5192 -47.5192
    -0.2521  -0.2521  -0.2515  -0.2515  -0.2495  -0.2495  -0.2459  -0.2459
    -0.2345  -0.2345  -0.2297  -0.2297  -0.2266  -0.2266  -0.2225  -0.2225
    -0.2147  -0.2147  -0.2118  -0.2118  -0.2055  -0.2055  -0.2019  -0.2019
    -0.1903  -0.1903  -0.1840  -0.1840  -0.1774  -0.1774  -0.1724  -0.1724
    -0.1488  -0.1488  -0.1305  -0.1305  -0.1105  -0.1105  -0.0927  -0.0927
    -0.0881  -0.0881  -0.0774  -0.0774  -0.0712  -0.0712  -0.0689  -0.0689
    -0.0689  -0.0689  -0.0661  -0.0661  -0.0657  -0.0657  -0.0652  -0.0652
    -0.0592  -0.0592  -0.0573  -0.0573  -0.0515  -0.0515  -0.0498  -0.0498
    -0.0396  -0.0396  -0.0363  -0.0363  -0.0271  -0.0271  -0.0270  -0.0270
    -0.0155  -0.0155   0.0082   0.0082   0.0102   0.0102   0.0191   0.0191
     0.0244   0.0244   0.5676   0.5676   0.8614   0.8614   1.4006   1.4007
     1.6512   1.6512   1.8718   1.8718   1.9567   1.9568   2.3250   2.3250
     3.6744   3.6744   3.8053   3.8053   3.9902   3.9902   4.1641   4.1642
     4.3592   4.3592   4.7652   4.7652   4.9790

          k = 0.0960 0.2239 0.2239 ( 79013 PWs)   bands (ev):

   -81.6985 -81.6985 -81.6985 -81.6985 -81.6984 -81.6984 -81.6984 -81.6984
   -81.6984 -81.6984 -81.6984 -81.6984 -81.6984 -81.6984 -81.6984 -81.6984
   -47.5194 -47.5194 -47.5194 -47.5194 -47.5194 -47.5194 -47.5194 -47.5194
   -47.5194 -47.5194 -47.5194 -47.5194 -47.5193 -47.5193 -47.5193 -47.5193
   -47.5193 -47.5193 -47.5193 -47.5193 -47.5193 -47.5193 -47.5193 -47.5193
   -47.5193 -47.5193 -47.5193 -47.5193 -47.5193 -47.5193 -47.5193 -47.5193
   -47.5193 -47.5192 -47.5192 -47.5192 -47.5192 -47.5192 -47.5192 -47.5192
   -47.5192 -47.5192 -47.5192 -47.5192 -47.5192 -47.5192 -47.5192 -47.5192
    -0.2659  -0.2556  -0.2500  -0.2462  -0.2462  -0.2460  -0.2460  -0.2403
    -0.2398  -0.2398  -0.2328  -0.2294  -0.2268  -0.2240  -0.2214  -0.2142
    -0.2142  -0.2098  -0.2088  -0.2088  -0.2023  -0.2023  -0.2012  -0.1932
    -0.1835  -0.1835  -0.1823  -0.1781  -0.1729  -0.1729  -0.1721  -0.1574
    -0.1480  -0.1338  -0.1338  -0.1325  -0.1164  -0.1039  -0.0972  -0.0972
    -0.0971  -0.0970  -0.0941  -0.0934  -0.0864  -0.0726  -0.0717  -0.0717
    -0.0673  -0.0671  -0.0671  -0.0631  -0.0627  -0.0623  -0.0592  -0.0592
    -0.0569  -0.0569  -0.0526  -0.0526  -0.0516  -0.0472  -0.0471  -0.0466
    -0.0458  -0.0458  -0.0446  -0.0396  -0.0311  -0.0311  -0.0311  -0.0232
    -0.0221  -0.0181  -0.0018   0.0004   0.0004   0.0215   0.0215   0.0247
     0.0314   0.2391   0.2391   0.5371   0.8289   1.1141   1.1141   1.3717
     1.6260   1.8206   1.8206   1.9640   2.0629   2.0761   2.0761   2.4778
     3.5602   3.7546   3.7547   3.9098   4.0684   4.0685   4.1913   4.2345
     4.3554   4.4215   4.4215   4.6437   4.9858

          k = 0.0960 0.2239-0.2879 ( 79028 PWs)   bands (ev):

   -81.6985 -81.6985 -81.6985 -81.6985 -81.6984 -81.6984 -81.6984 -81.6984
   -81.6984 -81.6984 -81.6984 -81.6984 -81.6984 -81.6984 -81.6984 -81.6984
   -47.5194 -47.5194 -47.5194 -47.5194 -47.5194 -47.5194 -47.5194 -47.5194
   -47.5194 -47.5194 -47.5194 -47.5194 -47.5193 -47.5193 -47.5193 -47.5193
   -47.5193 -47.5193 -47.5193 -47.5193 -47.5193 -47.5193 -47.5193 -47.5193
   -47.5193 -47.5193 -47.5193 -47.5193 -47.5193 -47.5193 -47.5193 -47.5193
   -47.5193 -47.5193 -47.5192 -47.5192 -47.5192 -47.5192 -47.5192 -47.5192
   -47.5192 -47.5192 -47.5192 -47.5192 -47.5192 -47.5192 -47.5192 -47.5192
    -0.2484  -0.2484  -0.2482  -0.2482  -0.2466  -0.2466  -0.2440  -0.2440
    -0.2394  -0.2394  -0.2346  -0.2346  -0.2214  -0.2214  -0.2185  -0.2185
    -0.2159  -0.2159  -0.2041  -0.2041  -0.1975  -0.1975  -0.1924  -0.1924
    -0.1913  -0.1913  -0.1770  -0.1770  -0.1687  -0.1687  -0.1589  -0.1588
    -0.1490  -0.1490  -0.1204  -0.1204  -0.1153  -0.1153  -0.1097  -0.1097
    -0.1010  -0.1010  -0.0844  -0.0844  -0.0799  -0.0799  -0.0716  -0.0716
    -0.0655  -0.0655  -0.0654  -0.0654  -0.0651  -0.0651  -0.0610  -0.0609
    -0.0590  -0.0590  -0.0555  -0.0555  -0.0509  -0.0508  -0.0471  -0.0471
    -0.0441  -0.0440  -0.0371  -0.0371  -0.0365  -0.0365  -0.0310  -0.0310
    -0.0133  -0.0133  -0.0016  -0.0016   0.0248   0.0248   0.0281   0.0281
     0.0860   0.0860   0.3712   0.3712   0.9582   0.9583   1.2316   1.2316
     1.7215   1.7216   1.8920   1.8920   2.0994   2.0995   2.3143   2.3143
     3.7629   3.7629   3.8551   3.8551   4.0238   4.0238   4.0705   4.0705
     4.4239   4.4240   4.7362   4.7362   4.8700

          k = 0.0960-0.2879-0.2879 ( 78996 PWs)   bands (ev):

   -81.6985 -81.6985 -81.6985 -81.6985 -81.6984 -81.6984 -81.6984 -81.6984
   -81.6984 -81.6984 -81.6984 -81.6984 -81.6984 -81.6984 -81.6984 -81.6984
   -47.5194 -47.5194 -47.5194 -47.5194 -47.5194 -47.5194 -47.5194 -47.5194
   -47.5194 -47.5194 -47.5193 -47.5193 -47.5193 -47.5193 -47.5193 -47.5193
   -47.5193 -47.5193 -47.5193 -47.5193 -47.5193 -47.5193 -47.5193 -47.5193
   -47.5193 -47.5193 -47.5193 -47.5193 -47.5193 -47.5193 -47.5193 -47.5193
   -47.5193 -47.5193 -47.5192 -47.5192 -47.5192 -47.5192 -47.5192 -47.5192
   -47.5192 -47.5192 -47.5192 -47.5192 -47.5192 -47.5192 -47.5192 -47.5192
    -0.2463  -0.2463  -0.2463  -0.2463  -0.2423  -0.2423  -0.2423  -0.2423
    -0.2420  -0.2420  -0.2420  -0.2420  -0.2184  -0.2184  -0.2184  -0.2184
    -0.2127  -0.2127  -0.2127  -0.2127  -0.1894  -0.1894  -0.1894  -0.1894
    -0.1727  -0.1727  -0.1727  -0.1727  -0.1691  -0.1691  -0.1691  -0.1691
    -0.1368  -0.1368  -0.1368  -0.1368  -0.1082  -0.1082  -0.1082  -0.1082
    -0.0935  -0.0935  -0.0935  -0.0935  -0.0879  -0.0879  -0.0879  -0.0879
    -0.0633  -0.0633  -0.0633  -0.0633  -0.0605  -0.0605  -0.0605  -0.0605
    -0.0537  -0.0537  -0.0537  -0.0536  -0.0495  -0.0495  -0.0495  -0.0494
    -0.0458  -0.0458  -0.0458  -0.0458  -0.0339  -0.0339  -0.0339  -0.0339
    -0.0092  -0.0092  -0.0092  -0.0092   0.0282   0.0282   0.0282   0.0282
     0.2091   0.2091   0.2091   0.2091   1.0826   1.0826   1.0826   1.0826
     1.8059   1.8060   1.8060   1.8060   2.2491   2.2492   2.2492   2.2492
     3.8527   3.8527   3.8527   3.8527   3.9950   3.9950   3.9950   3.9952
     4.6290   4.6290   4.9145   4.9155   4.9161

          k = 0.1599 0.1599 0.1599 ( 79087 PWs)   bands (ev):

   -81.6985 -81.6985 -81.6985 -81.6985 -81.6984 -81.6984 -81.6984 -81.6984
   -81.6984 -81.6984 -81.6984 -81.6984 -81.6984 -81.6984 -81.6984 -81.6984
   -47.5194 -47.5194 -47.5194 -47.5194 -47.5194 -47.5194 -47.5194 -47.5194
   -47.5194 -47.5194 -47.5194 -47.5194 -47.5194 -47.5194 -47.5193 -47.5193
   -47.5193 -47.5193 -47.5193 -47.5193 -47.5193 -47.5193 -47.5193 -47.5193
   -47.5193 -47.5193 -47.5193 -47.5193 -47.5193 -47.5193 -47.5193 -47.5193
   -47.5193 -47.5193 -47.5193 -47.5193 -47.5193 -47.5193 -47.5192 -47.5192
   -47.5192 -47.5192 -47.5192 -47.5192 -47.5192 -47.5192 -47.5192 -47.5192
    -0.3233  -0.2545  -0.2545  -0.2545  -0.2488  -0.2483  -0.2483  -0.2483
    -0.2348  -0.2348  -0.2317  -0.2317  -0.2317  -0.2290  -0.2290  -0.2290
    -0.2066  -0.2066  -0.1966  -0.1966  -0.1966  -0.1947  -0.1947  -0.1947
    -0.1895  -0.1895  -0.1809  -0.1809  -0.1809  -0.1752  -0.1752  -0.1752
    -0.1349  -0.1349  -0.1349  -0.1274  -0.1274  -0.1124  -0.1124  -0.1124
    -0.0952  -0.0952  -0.0952  -0.0945  -0.0822  -0.0817  -0.0817  -0.0817
    -0.0708  -0.0620  -0.0620  -0.0620  -0.0580  -0.0580  -0.0580  -0.0567
    -0.0567  -0.0567  -0.0524  -0.0524  -0.0454  -0.0454  -0.0438  -0.0438
    -0.0438  -0.0430  -0.0430  -0.0430  -0.0371  -0.0371  -0.0287  -0.0287
    -0.0287   0.0047   0.0047   0.0047   0.0111   0.0111   0.0209   0.0209
     0.0209   0.4006   0.4006   0.4006   0.9930   0.9930   0.9930   1.5018
     1.7687   1.7688   1.7688   1.9544   1.9544   1.9544   2.0965   2.6638
     3.4154   3.4155   3.4155   4.1592   4.1592   4.3209   4.3649   4.3649
     4.3650   4.4193   4.4193   4.4193   4.6352

          k = 0.1599 0.1599 0.2239 ( 79018 PWs)   bands (ev):

   -81.6985 -81.6985 -81.6985 -81.6985 -81.6984 -81.6984 -81.6984 -81.6984
   -81.6984 -81.6984 -81.6984 -81.6984 -81.6984 -81.6984 -81.6984 -81.6984
   -47.5194 -47.5194 -47.5194 -47.5194 -47.5194 -47.5194 -47.5194 -47.5194
   -47.5194 -47.5194 -47.5194 -47.5193 -47.5193 -47.5193 -47.5193 -47.5193
   -47.5193 -47.5193 -47.5193 -47.5193 -47.5193 -47.5193 -47.5193 -47.5193
   -47.5193 -47.5193 -47.5193 -47.5193 -47.5193 -47.5193 -47.5193 -47.5193
   -47.5193 -47.5192 -47.5192 -47.5192 -47.5192 -47.5192 -47.5192 -47.5192
   -47.5192 -47.5192 -47.5192 -47.5192 -47.5192 -47.5192 -47.5192 -47.5192
    -0.2659  -0.2499  -0.2481  -0.2481  -0.2476  -0.2363  -0.2363  -0.2358
    -0.2346  -0.2346  -0.2316  -0.2283  -0.2270  -0.2234  -0.2234  -0.2187
    -0.2161  -0.2065  -0.2062  -0.2016  -0.2016  -0.1899  -0.1889  -0.1889
    -0.1871  -0.1860  -0.1860  -0.1846  -0.1841  -0.1807  -0.1807  -0.1797
    -0.1468  -0.1369  -0.1369  -0.1346  -0.1320  -0.1131  -0.1131  -0.1130
    -0.0995  -0.0995  -0.0979  -0.0931  -0.0896  -0.0742  -0.0742  -0.0737
    -0.0613  -0.0613  -0.0611  -0.0611  -0.0582  -0.0571  -0.0562  -0.0562
    -0.0546  -0.0546  -0.0544  -0.0515  -0.0499  -0.0482  -0.0459  -0.0449
    -0.0440  -0.0409  -0.0394  -0.0393  -0.0388  -0.0378  -0.0378  -0.0273
    -0.0265  -0.0034   0.0044   0.0090   0.0090   0.0117   0.0152   0.0192
     0.0192   0.2117   0.5037   0.5037   0.8016   0.8016   1.0849   1.3431
     1.8370   1.8370   1.9636   1.9636   1.9951   2.0674   2.0811   2.5357
     3.5446   3.5860   3.5861   3.9188   4.1708   4.1708   4.3177   4.4080
     4.4121   4.4144   4.4174   4.7304   4.7543

          k = 0.1599 0.1599-0.2879 ( 79036 PWs)   bands (ev):

   -81.6985 -81.6985 -81.6985 -81.6985 -81.6984 -81.6984 -81.6984 -81.6984
   -81.6984 -81.6984 -81.6984 -81.6984 -81.6984 -81.6984 -81.6984 -81.6984
   -47.5194 -47.5194 -47.5194 -47.5194 -47.5194 -47.5194 -47.5194 -47.5194
   -47.5194 -47.5194 -47.5194 -47.5193 -47.5193 -47.5193 -47.5193 -47.5193
   -47.5193 -47.5193 -47.5193 -47.5193 -47.5193 -47.5193 -47.5193 -47.5193
   -47.5193 -47.5193 -47.5193 -47.5193 -47.5193 -47.5193 -47.5193 -47.5193
   -47.5193 -47.5193 -47.5192 -47.5192 -47.5192 -47.5192 -47.5192 -47.5192
   -47.5192 -47.5192 -47.5192 -47.5192 -47.5192 -47.5192 -47.5192 -47.5192
    -0.2489  -0.2489  -0.2425  -0.2425  -0.2425  -0.2425  -0.2368  -0.2367
    -0.2233  -0.2232  -0.2183  -0.2183  -0.2183  -0.2183  -0.2178  -0.2178
    -0.2173  -0.2173  -0.2077  -0.2077  -0.2076  -0.2076  -0.2003  -0.2003
    -0.1839  -0.1839  -0.1795  -0.1795  -0.1795  -0.1795  -0.1669  -0.1669
    -0.1662  -0.1662  -0.1289  -0.1289  -0.1289  -0.1289  -0.1148  -0.1148
    -0.1034  -0.1034  -0.0773  -0.0773  -0.0773  -0.0773  -0.0747  -0.0747
    -0.0669  -0.0669  -0.0669  -0.0669  -0.0656  -0.0656  -0.0588  -0.0588
    -0.0588  -0.0588  -0.0511  -0.0511  -0.0483  -0.0482  -0.0470  -0.0470
    -0.0444  -0.0444  -0.0382  -0.0382  -0.0382  -0.0382  -0.0205  -0.0205
    -0.0128  -0.0128   0.0147   0.0147   0.0147   0.0147   0.0154   0.0154
     0.0670   0.0670   0.6378   0.6378   0.6378   0.6378   1.2026   1.2026
     1.9104   1.9104   1.9104   1.9104   2.0411   2.0412   2.3325   2.3325
     3.7132   3.7133   3.8618   3.8619   3.8619   3.8619   4.3077   4.3077
     4.4355   4.4356   4.7608   4.7609   4.9143

          k = 0.1599 0.2239 0.2239 ( 79003 PWs)   bands (ev):

   -81.6985 -81.6985 -81.6985 -81.6985 -81.6984 -81.6984 -81.6984 -81.6984
   -81.6984 -81.6984 -81.6984 -81.6984 -81.6984 -81.6984 -81.6984 -81.6984
   -47.5194 -47.5194 -47.5194 -47.5194 -47.5194 -47.5194 -47.5194 -47.5194
   -47.5194 -47.5194 -47.5194 -47.5194 -47.5193 -47.5193 -47.5193 -47.5193
   -47.5193 -47.5193 -47.5193 -47.5193 -47.5193 -47.5193 -47.5193 -47.5193
   -47.5193 -47.5193 -47.5193 -47.5193 -47.5193 -47.5193 -47.5193 -47.5192
   -47.5192 -47.5192 -47.5192 -47.5192 -47.5192 -47.5192 -47.5192 -47.5192
   -47.5192 -47.5192 -47.5192 -47.5192 -47.5192 -47.5192 -47.5192 -47.5192
    -0.2470  -0.2398  -0.2368  -0.2365  -0.2365  -0.2357  -0.2357  -0.2330
    -0.2330  -0.2328  -0.2225  -0.2214  -0.2206  -0.2173  -0.2155  -0.2155
    -0.2065  -0.2061  -0.2027  -0.2027  -0.2027  -0.2001  -0.1942  -0.1942
    -0.1871  -0.1822  -0.1782  -0.1770  -0.1770  -0.1770  -0.1770  -0.1746
    -0.1483  -0.1483  -0.1471  -0.1346  -0.1326  -0.1205  -0.1187  -0.1187
    -0.1160  -0.1147  -0.1147  -0.1049  -0.0945  -0.0730  -0.0730  -0.0699
    -0.0687  -0.0681  -0.0681  -0.0590  -0.0579  -0.0575  -0.0575  -0.0558
    -0.0519  -0.0519  -0.0504  -0.0499  -0.0498  -0.0453  -0.0449  -0.0439
    -0.0439  -0.0419  -0.0419  -0.0406  -0.0406  -0.0388  -0.0388  -0.0231
    -0.0095   0.0042   0.0042   0.0042   0.0139   0.0139   0.0142   0.0200
     0.0455   0.3121   0.3121   0.6064   0.6078   0.8987   0.8987   1.1723
     1.8977   2.0064   2.0065   2.0847   2.0874   2.1051   2.1051   2.4632
     3.6456   3.7013   3.7013   3.9589   4.0984   4.0984   4.1085   4.2732
     4.3747   4.5966   4.7243   4.7395   4.7396

          k = 0.1599 0.2239-0.2879 ( 78984 PWs)   bands (ev):

   -81.6985 -81.6985 -81.6985 -81.6985 -81.6984 -81.6984 -81.6984 -81.6984
   -81.6984 -81.6984 -81.6984 -81.6984 -81.6984 -81.6984 -81.6984 -81.6984
   -47.5194 -47.5194 -47.5194 -47.5194 -47.5194 -47.5194 -47.5194 -47.5194
   -47.5194 -47.5194 -47.5193 -47.5193 -47.5193 -47.5193 -47.5193 -47.5193
   -47.5193 -47.5193 -47.5193 -47.5193 -47.5193 -47.5193 -47.5193 -47.5193
   -47.5193 -47.5193 -47.5193 -47.5193 -47.5193 -47.5193 -47.5193 -47.5192
   -47.5192 -47.5192 -47.5192 -47.5192 -47.5192 -47.5192 -47.5192 -47.5192
   -47.5192 -47.5192 -47.5192 -47.5192 -47.5192 -47.5192 -47.5192 -47.5192
    -0.2418  -0.2418  -0.2369  -0.2369  -0.2350  -0.2350  -0.2278  -0.2278
    -0.2275  -0.2275  -0.2221  -0.2221  -0.2118  -0.2118  -0.2094  -0.2094
    -0.2091  -0.2091  -0.2055  -0.2055  -0.1993  -0.1993  -0.1986  -0.1986
    -0.1887  -0.1887  -0.1760  -0.1760  -0.1723  -0.1723  -0.1617  -0.1617
    -0.1494  -0.1494  -0.1464  -0.1464  -0.1372  -0.1372  -0.1280  -0.1280
    -0.1178  -0.1178  -0.0936  -0.0936  -0.0931  -0.0931  -0.0891  -0.0891
    -0.0628  -0.0628  -0.0628  -0.0628  -0.0620  -0.0620  -0.0539  -0.0539
    -0.0492  -0.0492  -0.0479  -0.0479  -0.0473  -0.0473  -0.0445  -0.0445
    -0.0436  -0.0436  -0.0436  -0.0436  -0.0398  -0.0398  -0.0241  -0.0241
    -0.0112  -0.0112   0.0031   0.0031   0.0154   0.0155   0.0177   0.0177
     0.1581   0.1581   0.4442   0.4442   0.7384   0.7385   1.0230   1.0231
     1.9618   1.9619   2.0519   2.0520   2.1239   2.1240   2.3214   2.3214
     3.8370   3.8371   3.8417   3.8418   3.9264   3.9264   4.1317   4.1317
     4.6212   4.6212   4.7063   4.7064   4.8489

          k = 0.1599-0.2879-0.2879 ( 78976 PWs)   bands (ev):

   -81.6985 -81.6985 -81.6985 -81.6985 -81.6984 -81.6984 -81.6984 -81.6984
   -81.6984 -81.6984 -81.6984 -81.6984 -81.6984 -81.6984 -81.6984 -81.6984
   -47.5194 -47.5194 -47.5194 -47.5194 -47.5194 -47.5194 -47.5194 -47.5194
   -47.5194 -47.5194 -47.5193 -47.5193 -47.5193 -47.5193 -47.5193 -47.5193
   -47.5193 -47.5193 -47.5193 -47.5193 -47.5193 -47.5193 -47.5193 -47.5193
   -47.5193 -47.5193 -47.5193 -47.5193 -47.5193 -47.5193 -47.5193 -47.5192
   -47.5192 -47.5192 -47.5192 -47.5192 -47.5192 -47.5192 -47.5192 -47.5192
   -47.5192 -47.5192 -47.5192 -47.5192 -47.5192 -47.5192 -47.5192 -47.5192
    -0.2324  -0.2324  -0.2324  -0.2324  -0.2320  -0.2320  -0.2320  -0.2320
    -0.2270  -0.2270  -0.2270  -0.2270  -0.2116  -0.2116  -0.2116  -0.2116
    -0.2063  -0.2063  -0.2063  -0.2063  -0.1963  -0.1963  -0.1963  -0.1963
    -0.1710  -0.1710  -0.1710  -0.1709  -0.1660  -0.1660  -0.1660  -0.1660
    -0.1570  -0.1570  -0.1570  -0.1570  -0.1259  -0.1259  -0.1259  -0.1258
    -0.1185  -0.1185  -0.1185  -0.1185  -0.0982  -0.0982  -0.0982  -0.0982
    -0.0604  -0.0604  -0.0604  -0.0604  -0.0582  -0.0582  -0.0582  -0.0581
    -0.0473  -0.0473  -0.0473  -0.0473  -0.0435  -0.0435  -0.0435  -0.0435
    -0.0417  -0.0417  -0.0417  -0.0417  -0.0351  -0.0351  -0.0351  -0.0351
    -0.0066  -0.0066  -0.0066  -0.0066   0.0175   0.0175   0.0175   0.0175
     0.2837   0.2837   0.2837   0.2838   0.8674   0.8674   0.8674   0.8675
     2.0155   2.0156   2.0156   2.0156   2.2614   2.2614   2.2614   2.2614
     3.9360   3.9361   3.9361   3.9361   3.9430   3.9430   3.9431   3.9432
     4.6513   4.6513   4.6513   4.6514   4.9376

          k = 0.2239 0.2239 0.2239 ( 79050 PWs)   bands (ev):

   -81.6985 -81.6985 -81.6985 -81.6985 -81.6984 -81.6984 -81.6984 -81.6984
   -81.6984 -81.6984 -81.6984 -81.6984 -81.6984 -81.6984 -81.6984 -81.6984
   -47.5194 -47.5194 -47.5194 -47.5194 -47.5194 -47.5194 -47.5194 -47.5194
   -47.5194 -47.5194 -47.5194 -47.5194 -47.5193 -47.5193 -47.5193 -47.5193
   -47.5193 -47.5193 -47.5193 -47.5193 -47.5193 -47.5193 -47.5193 -47.5193
   -47.5193 -47.5193 -47.5193 -47.5193 -47.5193 -47.5193 -47.5193 -47.5193
   -47.5193 -47.5193 -47.5192 -47.5192 -47.5192 -47.5192 -47.5192 -47.5192
   -47.5192 -47.5192 -47.5192 -47.5192 -47.5192 -47.5192 -47.5192 -47.5192
    -0.2403  -0.2284  -0.2284  -0.2284  -0.2229  -0.2228  -0.2228  -0.2219
    -0.2219  -0.2219  -0.2199  -0.2199  -0.2199  -0.2103  -0.2103  -0.2009
    -0.2009  -0.1982  -0.1982  -0.1925  -0.1917  -0.1917  -0.1917  -0.1894
    -0.1894  -0.1894  -0.1882  -0.1882  -0.1882  -0.1740  -0.1740  -0.1740
    -0.1539  -0.1539  -0.1539  -0.1397  -0.1397  -0.1392  -0.1333  -0.1333
    -0.1333  -0.1263  -0.1263  -0.1263  -0.1039  -0.0908  -0.0908  -0.0908
    -0.0636  -0.0636  -0.0636  -0.0564  -0.0564  -0.0564  -0.0536  -0.0536
    -0.0490  -0.0490  -0.0463  -0.0463  -0.0463  -0.0443  -0.0443  -0.0443
    -0.0441  -0.0441  -0.0441  -0.0339  -0.0339  -0.0339  -0.0268  -0.0268
    -0.0001  -0.0001   0.0049   0.0049   0.0049   0.0068   0.0068   0.0068
     0.1354   0.4149   0.4149   0.4149   0.7087   0.7087   0.7087   0.9927
     2.1172   2.1173   2.1173   2.1365   2.1366   2.1366   2.1386   2.4173
     3.7717   3.7718   3.7718   4.0789   4.0789   4.0789   4.1384   4.1384
     4.3946   4.3946   4.7490   4.7491   4.7493

          k = 0.2239 0.2239-0.2879 ( 79014 PWs)   bands (ev):

   -81.6985 -81.6985 -81.6985 -81.6985 -81.6984 -81.6984 -81.6984 -81.6984
   -81.6984 -81.6984 -81.6984 -81.6984 -81.6984 -81.6984 -81.6984 -81.6984
   -47.5194 -47.5194 -47.5194 -47.5194 -47.5194 -47.5194 -47.5194 -47.5194
   -47.5194 -47.5194 -47.5194 -47.5194 -47.5194 -47.5193 -47.5193 -47.5193
   -47.5193 -47.5193 -47.5193 -47.5193 -47.5193 -47.5193 -47.5193 -47.5193
   -47.5193 -47.5193 -47.5193 -47.5193 -47.5193 -47.5193 -47.5193 -47.5193
   -47.5192 -47.5192 -47.5192 -47.5192 -47.5192 -47.5192 -47.5192 -47.5192
   -47.5192 -47.5192 -47.5192 -47.5192 -47.5192 -47.5192 -47.5192 -47.5192
    -0.2312  -0.2312  -0.2248  -0.2248  -0.2248  -0.2248  -0.2160  -0.2159
    -0.2151  -0.2151  -0.2097  -0.2097  -0.2063  -0.2063  -0.2063  -0.2063
    -0.2041  -0.2041  -0.2040  -0.2040  -0.1954  -0.1954  -0.1947  -0.1947
    -0.1842  -0.1842  -0.1769  -0.1769  -0.1769  -0.1769  -0.1591  -0.1591
    -0.1589  -0.1589  -0.1565  -0.1565  -0.1485  -0.1485  -0.1485  -0.1485
    -0.1353  -0.1353  -0.1123  -0.1123  -0.1123  -0.1122  -0.1044  -0.1044
    -0.0591  -0.0591  -0.0591  -0.0591  -0.0583  -0.0583  -0.0528  -0.0528
    -0.0491  -0.0490  -0.0476  -0.0475  -0.0458  -0.0458  -0.0458  -0.0458
    -0.0362  -0.0362  -0.0362  -0.0362  -0.0340  -0.0340  -0.0167  -0.0167
    -0.0115  -0.0115   0.0043   0.0043   0.0043   0.0043   0.0054   0.0054
     0.2576   0.2576   0.5471   0.5471   0.5471   0.5471   0.8374   0.8375
     2.1409   2.1410   2.1509   2.1510   2.1510   2.1510   2.3137   2.3138
     3.9367   3.9368   3.9374   3.9375   3.9375   3.9375   4.1718   4.1718
     4.4313   4.4314   4.5538   4.5538   4.6958

          k = 0.2239-0.2879-0.2879 ( 79024 PWs)   bands (ev):

   -81.6985 -81.6985 -81.6985 -81.6985 -81.6984 -81.6984 -81.6984 -81.6984
   -81.6984 -81.6984 -81.6984 -81.6984 -81.6984 -81.6984 -81.6984 -81.6984
   -47.5194 -47.5194 -47.5194 -47.5194 -47.5194 -47.5194 -47.5194 -47.5194
   -47.5194 -47.5194 -47.5193 -47.5193 -47.5193 -47.5193 -47.5193 -47.5193
   -47.5193 -47.5193 -47.5193 -47.5193 -47.5193 -47.5193 -47.5193 -47.5193
   -47.5193 -47.5193 -47.5193 -47.5193 -47.5193 -47.5193 -47.5193 -47.5193
   -47.5193 -47.5192 -47.5192 -47.5192 -47.5192 -47.5192 -47.5192 -47.5192
   -47.5192 -47.5192 -47.5192 -47.5192 -47.5192 -47.5192 -47.5192 -47.5192
    -0.2189  -0.2189  -0.2189  -0.2189  -0.2180  -0.2179  -0.2179  -0.2179
    -0.2096  -0.2096  -0.2096  -0.2096  -0.2084  -0.2084  -0.2084  -0.2084
    -0.2021  -0.2021  -0.2021  -0.2021  -0.1918  -0.1918  -0.1918  -0.1918
    -0.1757  -0.1757  -0.1757  -0.1757  -0.1688  -0.1688  -0.1688  -0.1687
    -0.1655  -0.1655  -0.1655  -0.1654  -0.1461  -0.1461  -0.1461  -0.1461
    -0.1370  -0.1370  -0.1370  -0.1370  -0.1162  -0.1162  -0.1162  -0.1162
    -0.0566  -0.0566  -0.0566  -0.0566  -0.0552  -0.0552  -0.0552  -0.0552
    -0.0495  -0.0495  -0.0495  -0.0495  -0.0474  -0.0474  -0.0474  -0.0474
    -0.0295  -0.0295  -0.0295  -0.0295  -0.0226  -0.0226  -0.0226  -0.0226
    -0.0079  -0.0079  -0.0079  -0.0079   0.0030   0.0030   0.0030   0.0030
     0.3866   0.3866   0.3867   0.3867   0.6783   0.6783   0.6783   0.6784
     2.1650   2.1651   2.1651   2.1651   2.2661   2.2662   2.2662   2.2662
     4.0153   4.0153   4.0153   4.0155   4.0594   4.0594   4.0595   4.0595
     4.4190   4.4190   4.4191   4.4192   4.5396

          k =-0.2879-0.2879-0.2879 ( 78792 PWs)   bands (ev):

   -81.6985 -81.6985 -81.6985 -81.6985 -81.6984 -81.6984 -81.6984 -81.6984
   -81.6984 -81.6984 -81.6984 -81.6984 -81.6984 -81.6984 -81.6984 -81.6984
   -47.5194 -47.5193 -47.5193 -47.5193 -47.5193 -47.5193 -47.5193 -47.5193
   -47.5193 -47.5193 -47.5193 -47.5193 -47.5193 -47.5193 -47.5193 -47.5193
   -47.5193 -47.5193 -47.5193 -47.5193 -47.5193 -47.5193 -47.5193 -47.5193
   -47.5192 -47.5192 -47.5192 -47.5192 -47.5192 -47.5192 -47.5192 -47.5192
   -47.5192 -47.5192 -47.5192 -47.5192 -47.5192 -47.5192 -47.5192 -47.5192
   -47.5192 -47.5192 -47.5192 -47.5192 -47.5192 -47.5191 -47.5191 -47.5191
    -0.2065  -0.2065  -0.2065  -0.2065  -0.2065  -0.2065  -0.2065  -0.2065
    -0.2065  -0.2065  -0.2065  -0.2065  -0.2065  -0.2064  -0.2064  -0.2064
    -0.2009  -0.2009  -0.2009  -0.2009  -0.2009  -0.2009  -0.2009  -0.2009
    -0.1667  -0.1667  -0.1667  -0.1667  -0.1667  -0.1667  -0.1667  -0.1667
    -0.1667  -0.1667  -0.1667  -0.1667  -0.1667  -0.1667  -0.1666  -0.1666
    -0.1346  -0.1346  -0.1346  -0.1346  -0.1346  -0.1346  -0.1346  -0.1346
    -0.0522  -0.0522  -0.0522  -0.0522  -0.0522  -0.0522  -0.0522  -0.0522
    -0.0522  -0.0522  -0.0522  -0.0522  -0.0522  -0.0522  -0.0521  -0.0521
    -0.0133  -0.0133  -0.0133  -0.0133  -0.0133  -0.0133  -0.0133  -0.0133
    -0.0133  -0.0133  -0.0133  -0.0133  -0.0133  -0.0133  -0.0133  -0.0133
     0.5179   0.5179   0.5179   0.5179   0.5179   0.5179   0.5179   0.5180
     2.2429   2.2430   2.2430   2.2430   2.2430   2.2431   2.2431   2.2431
     4.2210   4.2210   4.2210   4.2210   4.2210   4.2210   4.2210   4.2210
     4.2211   4.2211   4.2211   4.2211   4.2212

     the Fermi energy is     0.3613 ev

!    total energy              =   -8188.12126640 Ry

     total all-electron energy =   -161468.548120 Ry
     estimated scf accuracy    <       0.00000042 Ry
     smearing contrib. (-TS)   =       0.37527164 Ry
     internal energy E=F+TS    =   -8188.49653803 Ry

     The total energy is F=E-TS. E is the sum of the following terms:
     one-electron contribution =   -3482.38610155 Ry
     hartree contribution      =    1769.89726391 Ry
     xc contribution           =    -491.95932614 Ry
     ewald contribution        =   -1900.75303581 Ry
     one-center paw contrib.   =   -4083.29533844 Ry

     convergence has been achieved in  38 iterations

     Forces acting on atoms (cartesian axes, Ry/au):

     atom    1 type  1   force =     0.00000000    0.00000000    0.00000000
     atom    2 type  1   force =    -0.00008715   -0.00008715   -0.00008715
     atom    3 type  1   force =     0.00000000    0.00000000    0.00000000
     atom    4 type  1   force =    -0.00008715   -0.00008715    0.00008715
     atom    5 type  1   force =     0.00000000    0.00000000    0.00000000
     atom    6 type  1   force =    -0.00008715    0.00008715   -0.00008715
     atom    7 type  1   force =     0.00000000    0.00000000    0.00000000
     atom    8 type  1   force =    -0.00008715    0.00008715    0.00008715
     atom    9 type  1   force =     0.00000000    0.00000000    0.00000000
     atom   10 type  1   force =     0.00008715   -0.00008715   -0.00008715
     atom   11 type  1   force =     0.00000000    0.00000000    0.00000000
     atom   12 type  1   force =     0.00008715   -0.00008715    0.00008715
     atom   13 type  1   force =     0.00000000    0.00000000    0.00000000
     atom   14 type  1   force =     0.00008715    0.00008715   -0.00008715
     atom   15 type  1   force =     0.00000000    0.00000000    0.00000000
     atom   16 type  1   force =     0.00008715    0.00008715    0.00008715

     Total force =     0.000427     Total SCF correction =     0.000020


     Computing stress (Cartesian axis) and pressure

          total   stress  (Ry/bohr**3)                   (kbar)     P=      -25.64
  -0.00017426   0.00000000   0.00000000          -25.64        0.00        0.00
   0.00000000  -0.00017426   0.00000000            0.00      -25.64        0.00
   0.00000000   0.00000000  -0.00017426            0.00        0.00      -25.64


     Writing output data file /scratch/GTwOTlMIyQAzXkbV.save/
 
     init_run     :      8.77s CPU      9.11s WALL (       1 calls)
     electrons    :    869.73s CPU    884.02s WALL (       1 calls)
     forces       :      2.80s CPU      2.88s WALL (       1 calls)
     stress       :     25.99s CPU     26.20s WALL (       1 calls)

     Called by init_run:
     wfcinit      :      7.23s CPU      7.43s WALL (       1 calls)
     potinit      :      0.14s CPU      0.16s WALL (       1 calls)
     hinit0       :      0.55s CPU      0.56s WALL (       1 calls)

     Called by electrons:
     c_bands      :    740.84s CPU    751.72s WALL (      38 calls)
     sum_band     :    122.22s CPU    124.58s WALL (      38 calls)
     v_of_rho     :      1.13s CPU      1.22s WALL (      39 calls)
     newd         :      2.22s CPU      2.99s WALL (      39 calls)
     PAW_pot      :      2.42s CPU      2.54s WALL (      39 calls)
     mix_rho      :      0.38s CPU      0.43s WALL (      38 calls)

     Called by c_bands:
     init_us_2    :      6.68s CPU      6.78s WALL (    2765 calls)
     cegterg      :    715.23s CPU    725.57s WALL (    1330 calls)

     Called by *egterg:
     cdiaghg      :     51.21s CPU     51.83s WALL (    3578 calls)
     h_psi        :    439.33s CPU    446.32s WALL (    3613 calls)
     s_psi        :     27.31s CPU     27.50s WALL (    3613 calls)
     g_psi        :      1.48s CPU      1.51s WALL (    2248 calls)

     Called by h_psi:
     h_psi:calbec :     38.94s CPU     39.28s WALL (    3613 calls)
     vloc_psi     :    370.58s CPU    376.95s WALL (    3613 calls)
     add_vuspsi   :     25.41s CPU     25.65s WALL (    3613 calls)

     General routines
     calbec       :     60.14s CPU     60.61s WALL (    5118 calls)
     fft          :      1.10s CPU      1.15s WALL (     530 calls)
     ffts         :      0.20s CPU      0.21s WALL (      77 calls)
     fftw         :    445.75s CPU    452.89s WALL ( 1192480 calls)
     interpolate  :      0.37s CPU      0.38s WALL (      39 calls)
 
     Parallel routines
     fft_scatt_xy :     35.91s CPU     36.36s WALL ( 1193087 calls)
     fft_scatt_yz :    341.66s CPU    347.68s WALL ( 1193087 calls)
 
     PWSCF        :  15m16.07s CPU  15m33.55s WALL

 
   This run was terminated on:   0:46:40  30Nov2021            

=------------------------------------------------------------------------------=
   JOB DONE.
=------------------------------------------------------------------------------=
