
     Program PWSCF v.6.7MaX starts on 29Nov2021 at 23:25:41 

     This program is part of the open-source Quantum ESPRESSO suite
     for quantum simulation of materials; please cite
         "P. Giannozzi et al., J. Phys.:Condens. Matter 21 395502 (2009);
         "P. Giannozzi et al., J. Phys.:Condens. Matter 29 465901 (2017);
          URL http://www.quantum-espresso.org", 
     in publications or presentations arising from this work. More details at
     http://www.quantum-espresso.org/quote

     Parallel version (MPI & OpenMP), running on      72 processor cores
     Number of MPI processes:                72
     Threads/MPI process:                     1

     MPI processes distributed on     1 nodes
     R & G space division:  proc/nbgrp/npool/nimage =      72
     Reading input from bcc_7.in
Warning: card &CELL ignored
Warning: card CELL_DYNAMICS = 'BFGS', ignored
Warning: card CELL_FACTOR = 2.0, ignored
Warning: card PRESS = 0.0, ignored
Warning: card / ignored

     Current dimensions of program PWSCF are:
     Max number of different atomic species (ntypx) = 10
     Max number of k-points (npk) =  40000
     Max angular momentum in pseudopotentials (lmaxx) =  3
     file Pd.pbe-spn-kjpaw_psl.1.0.0.UPF: wavefunction(s)  4S 5S 4D renormalized

     Subspace diagonalization in iterative solution of the eigenvalue problem:
     one sub-group per band group will be used
     ELPA distributed-memory algorithm (size of sub-group:  8*  8 procs)

     Found symmetry operation: I + (  0.2500  0.2500  0.2500)
     This is a supercell, fractional translations are disabled
     Message from routine setup:
     using ibrav=0 with symmetry is DISCOURAGED, use correct ibrav instead
 
     Parallelization info
     --------------------
     sticks:   dense  smooth     PW     G-vecs:    dense   smooth      PW
     Min          81      53     14                 4679     2511     358
     Max          82      54     15                 4684     2516     363
     Sum        5861    3869   1069               337027   180995   26001
 


     bravais-lattice index     =            0
     lattice parameter (alat)  =      11.4293  a.u.
     unit-cell volume          =    2239.6162 (a.u.)^3
     number of atoms/cell      =           16
     number of atomic types    =            1
     number of electrons       =       288.00
     number of Kohn-Sham states=          173
     kinetic-energy cutoff     =      71.0000  Ry
     charge density cutoff     =     430.0000  Ry
     scf convergence threshold =      1.0E-06
     mixing beta               =       0.1000
     number of iterations used =           10  TF        mixing
     Exchange-correlation= SLA  PW   PBX  PBC
                           (   1   4   3   4   0   0   0)

     celldm(1)=  11.429280  celldm(2)=   0.000000  celldm(3)=   0.000000
     celldm(4)=   0.000000  celldm(5)=   0.000000  celldm(6)=   0.000000

     crystal axes: (cart. coord. in units of alat)
               a(1) = (   1.144737   0.000000   0.000000 )  
               a(2) = (   0.000000   1.144737   0.000000 )  
               a(3) = (   0.000000   0.000000   1.144737 )  

     reciprocal axes: (cart. coord. in units 2 pi/alat)
               b(1) = (  0.873563  0.000000  0.000000 )  
               b(2) = (  0.000000  0.873563  0.000000 )  
               b(3) = (  0.000000  0.000000  0.873563 )  


     PseudoPot. # 1 for Pd read from file:
     /rds/homes/b/bxp912/pp/Pd.pbe-spn-kjpaw_psl.1.0.0.UPF
     MD5 check sum: 790f2ebce206edfd9790dcb9844eca51
     Pseudo is Projector augmented-wave + core cor, Zval = 18.0
     Generated using &quot;atomic&quot; code by A. Dal Corso  v.6.3
     Shape of augmentation charge: PSQ
     Using radial grid of 1235 points,  6 beta functions with: 
                l(1) =   0
                l(2) =   0
                l(3) =   1
                l(4) =   1
                l(5) =   2
                l(6) =   2
     Q(r) pseudized with 0 coefficients 


     atomic species   valence    mass     pseudopotential
        Pd            18.00   106.42000     Pd( 1.00)

     48 Sym. Ops., with inversion, found



   Cartesian axes

     site n.     atom                  positions (alat units)
         1           Pd  tau(   1) = (   0.0000000   0.0000000   0.0000000  )
         2           Pd  tau(   2) = (   0.2861842   0.2861842   0.2861842  )
         3           Pd  tau(   3) = (   0.0000000   0.0000000   0.5723684  )
         4           Pd  tau(   4) = (   0.2861842   0.2861842   0.8585526  )
         5           Pd  tau(   5) = (   0.0000000   0.5723684   0.0000000  )
         6           Pd  tau(   6) = (   0.2861842   0.8585526   0.2861842  )
         7           Pd  tau(   7) = (   0.0000000   0.5723684   0.5723684  )
         8           Pd  tau(   8) = (   0.2861842   0.8585526   0.8585526  )
         9           Pd  tau(   9) = (   0.5723684   0.0000000   0.0000000  )
        10           Pd  tau(  10) = (   0.8585526   0.2861842   0.2861842  )
        11           Pd  tau(  11) = (   0.5723684   0.0000000   0.5723684  )
        12           Pd  tau(  12) = (   0.8585526   0.2861842   0.8585526  )
        13           Pd  tau(  13) = (   0.5723684   0.5723684   0.0000000  )
        14           Pd  tau(  14) = (   0.8585526   0.8585526   0.2861842  )
        15           Pd  tau(  15) = (   0.5723684   0.5723684   0.5723684  )
        16           Pd  tau(  16) = (   0.8585526   0.8585526   0.8585526  )

     number of k points=    35  Marzari-Vanderbilt smearing, width (Ry)=  0.0400
                       cart. coord. in units 2pi/alat
        k(    1) = (   0.0485313   0.0485313   0.0485313), wk =   0.0219479
        k(    2) = (   0.0485313   0.0485313   0.1455939), wk =   0.0658436
        k(    3) = (   0.0485313   0.0485313   0.2426564), wk =   0.0658436
        k(    4) = (   0.0485313   0.0485313   0.3397190), wk =   0.0658436
        k(    5) = (   0.0485313   0.0485313  -0.4367816), wk =   0.0329218
        k(    6) = (   0.0485313   0.1455939   0.1455939), wk =   0.0658436
        k(    7) = (   0.0485313   0.1455939   0.2426564), wk =   0.1316872
        k(    8) = (   0.0485313   0.1455939   0.3397190), wk =   0.1316872
        k(    9) = (   0.0485313   0.1455939  -0.4367816), wk =   0.0658436
        k(   10) = (   0.0485313   0.2426564   0.2426564), wk =   0.0658436
        k(   11) = (   0.0485313   0.2426564   0.3397190), wk =   0.1316872
        k(   12) = (   0.0485313   0.2426564  -0.4367816), wk =   0.0658436
        k(   13) = (   0.0485313   0.3397190   0.3397190), wk =   0.0658436
        k(   14) = (   0.0485313   0.3397190  -0.4367816), wk =   0.0658436
        k(   15) = (   0.0485313  -0.4367816  -0.4367816), wk =   0.0164609
        k(   16) = (   0.1455939   0.1455939   0.1455939), wk =   0.0219479
        k(   17) = (   0.1455939   0.1455939   0.2426564), wk =   0.0658436
        k(   18) = (   0.1455939   0.1455939   0.3397190), wk =   0.0658436
        k(   19) = (   0.1455939   0.1455939  -0.4367816), wk =   0.0329218
        k(   20) = (   0.1455939   0.2426564   0.2426564), wk =   0.0658436
        k(   21) = (   0.1455939   0.2426564   0.3397190), wk =   0.1316872
        k(   22) = (   0.1455939   0.2426564  -0.4367816), wk =   0.0658436
        k(   23) = (   0.1455939   0.3397190   0.3397190), wk =   0.0658436
        k(   24) = (   0.1455939   0.3397190  -0.4367816), wk =   0.0658436
        k(   25) = (   0.1455939  -0.4367816  -0.4367816), wk =   0.0164609
        k(   26) = (   0.2426564   0.2426564   0.2426564), wk =   0.0219479
        k(   27) = (   0.2426564   0.2426564   0.3397190), wk =   0.0658436
        k(   28) = (   0.2426564   0.2426564  -0.4367816), wk =   0.0329218
        k(   29) = (   0.2426564   0.3397190   0.3397190), wk =   0.0658436
        k(   30) = (   0.2426564   0.3397190  -0.4367816), wk =   0.0658436
        k(   31) = (   0.2426564  -0.4367816  -0.4367816), wk =   0.0164609
        k(   32) = (   0.3397190   0.3397190   0.3397190), wk =   0.0219479
        k(   33) = (   0.3397190   0.3397190  -0.4367816), wk =   0.0329218
        k(   34) = (   0.3397190  -0.4367816  -0.4367816), wk =   0.0164609
        k(   35) = (  -0.4367816  -0.4367816  -0.4367816), wk =   0.0027435

     Dense  grid:   337027 G-vectors     FFT dimensions: (  90,  90,  90)

     Smooth grid:   180995 G-vectors     FFT dimensions: (  72,  72,  72)

     Estimated max dynamical RAM per process >      52.88 MB

     Estimated total dynamical RAM >       3.72 GB

     Check: negative core charge=   -0.000001

     Initial potential from superposition of free atoms

     starting charge  287.99388, renormalised to  288.00000
     Starting wfcs are  160 randomized atomic wfcs +   13 random wfcs
     Checking if some PAW data can be deallocated... 

     total cpu time spent up to now is        6.8 secs

     Self-consistent Calculation

     iteration #  1     ecut=    71.00 Ry     beta= 0.10
     Davidson diagonalization with overlap
     ethr =  1.00E-02,  avg # of iterations =  3.3

     Threshold (ethr) on eigenvalues was too large:
     Diagonalizing with lowered threshold

     Davidson diagonalization with overlap
     ethr =  5.30E-04,  avg # of iterations =  1.1

     total cpu time spent up to now is       36.9 secs

     total energy              =   -8191.99647633 Ry
     estimated scf accuracy    <       1.48090986 Ry

     iteration #  2     ecut=    71.00 Ry     beta= 0.10
     Davidson diagonalization with overlap
     ethr =  5.14E-04,  avg # of iterations =  1.0

     total cpu time spent up to now is       47.9 secs

     total energy              =   -8191.61605122 Ry
     estimated scf accuracy    <       0.99846715 Ry

     iteration #  3     ecut=    71.00 Ry     beta= 0.10
     Davidson diagonalization with overlap
     ethr =  3.47E-04,  avg # of iterations =  2.0

     total cpu time spent up to now is       62.4 secs

     total energy              =   -8191.76802141 Ry
     estimated scf accuracy    <       0.03717983 Ry

     iteration #  4     ecut=    71.00 Ry     beta= 0.10
     Davidson diagonalization with overlap
     ethr =  1.29E-05,  avg # of iterations =  2.3

     total cpu time spent up to now is       76.1 secs

     total energy              =   -8191.75656614 Ry
     estimated scf accuracy    <       0.02188003 Ry

     iteration #  5     ecut=    71.00 Ry     beta= 0.10
     Davidson diagonalization with overlap
     ethr =  7.60E-06,  avg # of iterations =  2.0

     total cpu time spent up to now is       93.7 secs

     total energy              =   -8191.75883053 Ry
     estimated scf accuracy    <       0.01515859 Ry

     iteration #  6     ecut=    71.00 Ry     beta= 0.10
     Davidson diagonalization with overlap
     ethr =  5.26E-06,  avg # of iterations =  1.9

     total cpu time spent up to now is      107.0 secs

     total energy              =   -8191.76009938 Ry
     estimated scf accuracy    <       0.00153879 Ry

     iteration #  7     ecut=    71.00 Ry     beta= 0.10
     Davidson diagonalization with overlap
     ethr =  5.34E-07,  avg # of iterations =  1.5

     total cpu time spent up to now is      118.7 secs

     total energy              =   -8191.76045217 Ry
     estimated scf accuracy    <       0.00088556 Ry

     iteration #  8     ecut=    71.00 Ry     beta= 0.10
     Davidson diagonalization with overlap
     ethr =  3.07E-07,  avg # of iterations =  1.2

     total cpu time spent up to now is      129.8 secs

     total energy              =   -8191.76024349 Ry
     estimated scf accuracy    <       0.00070499 Ry

     iteration #  9     ecut=    71.00 Ry     beta= 0.10
     Davidson diagonalization with overlap
     ethr =  2.45E-07,  avg # of iterations =  2.0

     total cpu time spent up to now is      144.3 secs

     total energy              =   -8191.76038272 Ry
     estimated scf accuracy    <       0.00001280 Ry

     iteration # 10     ecut=    71.00 Ry     beta= 0.10
     Davidson diagonalization with overlap
     ethr =  4.44E-09,  avg # of iterations =  4.0

     total cpu time spent up to now is      164.7 secs

     total energy              =   -8191.76039100 Ry
     estimated scf accuracy    <       0.00002534 Ry

     iteration # 11     ecut=    71.00 Ry     beta= 0.10
     Davidson diagonalization with overlap
     ethr =  4.44E-09,  avg # of iterations =  1.0

     total cpu time spent up to now is      177.4 secs

     total energy              =   -8191.76039262 Ry
     estimated scf accuracy    <       0.00003056 Ry

     iteration # 12     ecut=    71.00 Ry     beta= 0.10
     Davidson diagonalization with overlap
     ethr =  4.44E-09,  avg # of iterations =  2.0

     total cpu time spent up to now is      192.2 secs

     total energy              =   -8191.76039603 Ry
     estimated scf accuracy    <       0.00000185 Ry

     iteration # 13     ecut=    71.00 Ry     beta= 0.10
     Davidson diagonalization with overlap
     ethr =  6.41E-10,  avg # of iterations =  2.0

     total cpu time spent up to now is      204.6 secs

     End of self-consistent calculation

          k = 0.0485 0.0485 0.0485 ( 22680 PWs)   bands (ev):

   -71.0003 -70.9902 -70.9902 -70.9902 -70.9888 -70.9888 -70.9888 -70.9886
   -70.9886 -70.9886 -70.9883 -70.9883 -70.9883 -70.9882 -70.9882 -70.9793
   -36.7701 -36.7701 -36.7701 -36.7695 -36.7695 -36.7695 -36.7442 -36.7442
   -36.7429 -36.7212 -36.7202 -36.7202 -36.7202 -36.7163 -36.7163 -36.7123
   -36.7123 -36.7123 -36.7061 -36.7061 -36.7027 -36.7027 -36.7027 -36.7010
   -36.6998 -36.6998 -36.6998 -36.6981 -36.6981 -36.6981 -36.6973 -36.6973
   -36.6973 -36.6950 -36.6950 -36.6950 -36.6920 -36.6920 -36.6920 -36.6567
   -36.6553 -36.6553 -36.6544 -36.6544 -36.6544 -36.6538 -36.6538 -36.6538
     7.4498   9.1345   9.1345   9.1345   9.1439   9.1439   9.1439   9.2851
     9.2851   9.7527   9.7527   9.7527   9.8474   9.8474   9.8474   9.8568
     9.8568   9.8568   9.9224   9.9224   9.9224  10.0587  10.1352  10.1352
    10.2754  10.2754  10.3337  10.3337  10.3338  10.3367  10.5256  10.5256
    10.5313  10.5313  10.5314  10.5533  10.8427  10.8427  10.8428  10.9051
    10.9051  10.9051  10.9675  10.9675  10.9675  11.0250  11.0250  11.0250
    11.3806  11.3806  11.3806  11.5383  11.5383  11.5383  11.6410  11.6410
    11.6410  11.6495  11.6495  11.6495  11.7121  11.7121  11.7727  11.7727
    11.7727  11.8249  11.8249  11.8249  11.8477  11.8477  11.8478  11.8478
    12.3066  12.3508  12.3508  12.5106  12.5106  12.5106  12.5336  12.5336
    12.5336  12.6262  12.6262  12.6262  13.1451  13.1451  13.1451  14.1312
    14.1312  14.1312  14.3559  14.3559  14.3559  17.8261  17.8261  17.8261
    18.0203  18.0203  18.0203  18.5747  18.8469  19.5595  19.6013  19.6013
    20.2418  20.2672  20.2672  20.4499  20.4499

          k = 0.0485 0.0485 0.1456 ( 22633 PWs)   bands (ev):

   -70.9999 -70.9920 -70.9901 -70.9901 -70.9890 -70.9890 -70.9888 -70.9886
   -70.9885 -70.9885 -70.9883 -70.9883 -70.9882 -70.9882 -70.9866 -70.9796
   -36.7687 -36.7687 -36.7682 -36.7677 -36.7667 -36.7667 -36.7446 -36.7428
   -36.7407 -36.7288 -36.7273 -36.7273 -36.7268 -36.7264 -36.7199 -36.7199
   -36.7133 -36.7104 -36.7076 -36.7073 -36.7038 -36.7026 -36.7026 -36.6988
   -36.6988 -36.6987 -36.6981 -36.6967 -36.6967 -36.6961 -36.6951 -36.6951
   -36.6934 -36.6929 -36.6928 -36.6874 -36.6855 -36.6855 -36.6846 -36.6597
   -36.6567 -36.6565 -36.6565 -36.6560 -36.6558 -36.6556 -36.6545 -36.6545
     7.5390   9.1611   9.1611   9.1892   9.1892   9.1917   9.1999   9.3191
     9.3299   9.4580   9.7320   9.7320   9.8473   9.8565   9.8760   9.8760
     9.8967   9.8967   9.9039   9.9039   9.9646   9.9663  10.0290  10.1096
    10.1329  10.1929  10.3283  10.3283  10.4525  10.4644  10.4897  10.4898
    10.5145  10.5283  10.5931  10.6699  10.7113  10.7113  10.7374  10.8248
    10.8248  10.8700  11.0318  11.0318  11.1011  11.1011  11.1152  11.1798
    11.2269  11.5334  11.5334  11.5831  11.5831  11.6214  11.6214  11.6468
    11.6468  11.6532  11.6608  11.6735  11.6866  11.6866  11.6958  11.7276
    11.7625  11.7706  11.7706  11.8263  11.8351  11.8351  11.8465  11.8469
    12.2106  12.2495  12.2776  12.2825  12.3029  12.3452  12.4506  12.4507
    12.5156  12.5156  12.6606  12.6606  13.2126  13.2127  13.8056  13.8056
    13.8351  14.3802  14.3802  14.4724  14.6866  17.8372  18.0330  18.0388
    18.0464  18.0464  18.5460  18.5460  18.6134  18.7753  19.2898  19.6306
    20.1823  20.4261  20.4456  20.6911  21.3140

          k = 0.0485 0.0485 0.2427 ( 22636 PWs)   bands (ev):

   -70.9993 -70.9938 -70.9900 -70.9900 -70.9892 -70.9892 -70.9887 -70.9886
   -70.9884 -70.9884 -70.9883 -70.9883 -70.9883 -70.9882 -70.9849 -70.9802
   -36.7652 -36.7652 -36.7646 -36.7643 -36.7620 -36.7620 -36.7440 -36.7400
   -36.7372 -36.7372 -36.7361 -36.7361 -36.7361 -36.7323 -36.7291 -36.7291
   -36.7177 -36.7146 -36.7108 -36.7072 -36.7023 -36.7023 -36.7005 -36.6995
   -36.6995 -36.6995 -36.6962 -36.6962 -36.6952 -36.6952 -36.6951 -36.6867
   -36.6851 -36.6849 -36.6848 -36.6803 -36.6779 -36.6779 -36.6777 -36.6644
   -36.6599 -36.6598 -36.6593 -36.6592 -36.6589 -36.6579 -36.6566 -36.6566
     7.7148   9.0802   9.2220   9.2220   9.2688   9.2688   9.3012   9.3069
     9.3862   9.4154   9.6640   9.6640   9.8035   9.8035   9.8489   9.8583
     9.8781   9.9144   9.9412   9.9412   9.9414   9.9528   9.9874   9.9874
     9.9894  10.0723  10.3996  10.3996  10.4717  10.4717  10.5136  10.5351
    10.6006  10.6006  10.6434  10.6434  10.6523  10.6527  10.6546  10.6656
    10.6679  11.0064  11.0815  11.1995  11.1995  11.2165  11.2165  11.2879
    11.3599  11.3745  11.3746  11.4992  11.4992  11.5801  11.5801  11.5976
    11.6710  11.6710  11.6762  11.6823  11.7113  11.7257  11.7257  11.7580
    11.8113  11.8117  11.8290  11.8440  11.8456  11.8482  11.8736  11.8736
    11.8978  12.0178  12.0656  12.0746  12.1427  12.2997  12.3586  12.3586
    12.4553  12.4553  12.7325  12.7325  13.3433  13.3434  13.4862  13.4862
    14.2296  14.2296  14.6634  14.9822  15.2014  17.4485  17.8638  17.9775
    18.0817  18.3432  18.6310  18.6310  18.6895  18.8525  19.2939  19.2939
    20.7625  20.7896  20.9753  21.4063  22.1847

          k = 0.0485 0.0485 0.3397 ( 22633 PWs)   bands (ev):

   -70.9983 -70.9955 -70.9898 -70.9898 -70.9894 -70.9894 -70.9886 -70.9885
   -70.9884 -70.9884 -70.9884 -70.9883 -70.9883 -70.9883 -70.9834 -70.9810
   -36.7600 -36.7600 -36.7595 -36.7593 -36.7556 -36.7556 -36.7455 -36.7450
   -36.7450 -36.7450 -36.7425 -36.7386 -36.7386 -36.7367 -36.7359 -36.7328
   -36.7246 -36.7214 -36.7081 -36.7057 -36.7028 -36.7017 -36.7017 -36.7015
   -36.7003 -36.7003 -36.6958 -36.6958 -36.6953 -36.6953 -36.6863 -36.6780
   -36.6772 -36.6772 -36.6772 -36.6736 -36.6713 -36.6709 -36.6709 -36.6705
   -36.6646 -36.6645 -36.6640 -36.6639 -36.6630 -36.6613 -36.6601 -36.6601
     7.9714   8.6780   9.3132   9.3132   9.3792   9.3792   9.4533   9.4536
     9.4848   9.5328   9.5524   9.5524   9.6628   9.6628   9.7662   9.7738
     9.8043   9.8202   9.8554   9.8672   9.9021   9.9557  10.0410  10.0410
    10.1047  10.1047  10.3255  10.3255  10.4091  10.4092  10.5241  10.5486
    10.5903  10.6079  10.6202  10.6202  10.7316  10.7368  10.7369  10.9170
    10.9211  10.9483  11.1101  11.1101  11.1828  11.2560  11.2560  11.3312
    11.3312  11.3570  11.3570  11.4809  11.4873  11.5049  11.5140  11.5140
    11.5415  11.5580  11.5881  11.5881  11.7074  11.7120  11.7793  11.7806
    11.8029  11.8325  11.8405  11.8456  11.8777  11.8845  11.9153  11.9153
    11.9479  11.9650  11.9902  12.0567  12.0567  12.2213  12.2369  12.2369
    12.3554  12.3554  12.8465  12.8465  13.2185  13.2185  13.5282  13.5282
    13.9986  13.9986  15.5690  15.5953  15.8137  16.8294  17.2135  17.6477
    17.9143  18.1393  18.1613  18.5180  19.4589  19.4589  20.1930  20.1930
    21.2403  21.2786  21.5243  21.5243  21.8732

          k = 0.0485 0.0485-0.4368 ( 22636 PWs)   bands (ev):

   -70.9970 -70.9970 -70.9897 -70.9897 -70.9896 -70.9896 -70.9885 -70.9885
   -70.9884 -70.9884 -70.9884 -70.9883 -70.9883 -70.9883 -70.9821 -70.9821
   -36.7531 -36.7531 -36.7531 -36.7531 -36.7529 -36.7529 -36.7529 -36.7529
   -36.7477 -36.7476 -36.7476 -36.7476 -36.7401 -36.7401 -36.7307 -36.7307
   -36.7275 -36.7275 -36.7055 -36.7054 -36.7037 -36.7036 -36.7011 -36.7011
   -36.7011 -36.7011 -36.6955 -36.6955 -36.6955 -36.6955 -36.6779 -36.6779
   -36.6704 -36.6704 -36.6704 -36.6704 -36.6703 -36.6703 -36.6700 -36.6700
   -36.6678 -36.6678 -36.6657 -36.6657 -36.6649 -36.6649 -36.6649 -36.6649
     8.2983   8.2984   9.4277   9.4277   9.4277   9.4277   9.5142   9.5142
     9.5142   9.5142   9.6126   9.6126   9.6210   9.6210   9.6330   9.6331
     9.6687   9.6687   9.8714   9.8714   9.8926   9.8926  10.1714  10.1714
    10.1714  10.1714  10.2507  10.2507  10.2507  10.2508  10.5486  10.5486
    10.5720  10.5720  10.8308  10.8308  10.8437  10.8437  10.8437  10.8437
    10.9794  10.9795  10.9795  10.9795  11.2072  11.2072  11.2109  11.2109
    11.3469  11.3470  11.4314  11.4314  11.4314  11.4314  11.4877  11.4877
    11.4877  11.4877  11.6843  11.6843  11.7432  11.7432  11.7459  11.7459
    11.7642  11.7642  11.8366  11.8366  11.8507  11.8507  11.8638  11.8638
    12.0879  12.0879  12.0879  12.0879  12.1163  12.1163  12.2203  12.2203
    12.2203  12.2203  13.0071  13.0071  13.0071  13.0071  13.7533  13.7533
    13.7533  13.7533  16.1938  16.1938  16.4894  16.4895  16.6006  16.6006
    18.0011  18.0011  18.2974  18.2974  20.4404  20.4404  20.4404  20.4404
    21.2017  21.2017  21.2017  21.2017  21.8439

          k = 0.0485 0.1456 0.1456 ( 22653 PWs)   bands (ev):

   -70.9996 -70.9919 -70.9919 -70.9901 -70.9895 -70.9890 -70.9890 -70.9885
   -70.9885 -70.9883 -70.9883 -70.9882 -70.9881 -70.9866 -70.9866 -70.9799
   -36.7686 -36.7669 -36.7669 -36.7652 -36.7652 -36.7627 -36.7458 -36.7419
   -36.7371 -36.7338 -36.7335 -36.7335 -36.7315 -36.7296 -36.7244 -36.7155
   -36.7116 -36.7115 -36.7102 -36.7101 -36.7054 -36.7036 -36.7009 -36.7003
   -36.7003 -36.6997 -36.6997 -36.6975 -36.6975 -36.6956 -36.6948 -36.6923
   -36.6881 -36.6880 -36.6877 -36.6877 -36.6812 -36.6784 -36.6784 -36.6639
   -36.6598 -36.6578 -36.6578 -36.6577 -36.6562 -36.6562 -36.6553 -36.6539
     7.6268   9.1650   9.2182   9.2182   9.2431   9.2431   9.2491   9.3564
     9.3704   9.4611   9.4611   9.7271   9.8750   9.8750   9.8809   9.8855
     9.8947   9.9021   9.9021   9.9490   9.9490   9.9663   9.9690  10.1257
    10.1530  10.1530  10.2503  10.2807  10.4108  10.4793  10.4814  10.4983
    10.5264  10.5707  10.5707  10.6441  10.6441  10.6582  10.7166  10.7951
    10.9621  10.9621  11.0197  11.0197  11.0603  11.1238  11.2076  11.2076
    11.3814  11.3814  11.4321  11.5544  11.5798  11.5798  11.6251  11.6329
    11.6329  11.6383  11.6383  11.6495  11.6661  11.7161  11.7553  11.7553
    11.7770  11.8151  11.8265  11.8267  11.8379  11.8379  11.8414  11.8427
    12.0807  12.2012  12.2012  12.2224  12.2878  12.2878  12.3257  12.3257
    12.3409  12.3632  12.5344  12.7146  13.2524  13.2968  13.9292  13.9292
    14.1394  14.1394  14.6786  14.6786  14.8235  17.4214  17.8615  18.0667
    18.0667  18.1098  18.5774  18.5774  19.2211  19.2403  19.7199  19.7666
    19.7956  19.8261  20.6055  20.6327  21.8576

          k = 0.0485 0.1456 0.2427 ( 22636 PWs)   bands (ev):

   -70.9989 -70.9936 -70.9917 -70.9900 -70.9899 -70.9892 -70.9889 -70.9885
   -70.9884 -70.9884 -70.9883 -70.9882 -70.9877 -70.9867 -70.9850 -70.9804
   -36.7664 -36.7637 -36.7635 -36.7622 -36.7608 -36.7569 -36.7465 -36.7418
   -36.7397 -36.7391 -36.7386 -36.7380 -36.7370 -36.7325 -36.7316 -36.7212
   -36.7174 -36.7136 -36.7093 -36.7076 -36.7051 -36.7037 -36.7029 -36.7026
   -36.7018 -36.7007 -36.6988 -36.6970 -36.6960 -36.6930 -36.6922 -36.6882
   -36.6847 -36.6818 -36.6815 -36.6807 -36.6755 -36.6720 -36.6715 -36.6697
   -36.6644 -36.6607 -36.6604 -36.6602 -36.6593 -36.6579 -36.6560 -36.6546
     7.7995   9.1123   9.1985   9.2775   9.3198   9.3269   9.3391   9.3445
     9.4217   9.4460   9.4552   9.6828   9.8065   9.8289   9.8603   9.8755
     9.8867   9.8967   9.9027   9.9316   9.9382   9.9816   9.9910  10.0687
    10.0697  10.1721  10.2592  10.2894  10.3622  10.4209  10.4553  10.5232
    10.5313  10.6281  10.6335  10.6354  10.6604  10.6622  10.7009  10.7425
    10.7656  11.1032  11.1239  11.1885  11.1950  11.1957  11.2201  11.2323
    11.2531  11.3517  11.3530  11.4858  11.4950  11.5155  11.5693  11.5762
    11.5860  11.6065  11.6354  11.6492  11.6508  11.6880  11.7385  11.7508
    11.7923  11.8025  11.8029  11.8397  11.8442  11.9022  11.9103  11.9450
    11.9820  12.0157  12.0639  12.0916  12.0945  12.1592  12.2053  12.3019
    12.3037  12.3533  12.5082  12.8220  12.8259  13.4564  13.7956  14.1048
    14.4871  14.6173  14.7759  14.9722  15.1504  16.8410  17.5325  18.1135
    18.1314  18.6466  18.6663  18.8436  18.9206  19.3342  19.5460  20.0706
    20.1116  20.4249  20.9324  21.1499  21.9518

          k = 0.0485 0.1456 0.3397 ( 22632 PWs)   bands (ev):

   -70.9980 -70.9953 -70.9914 -70.9905 -70.9898 -70.9894 -70.9888 -70.9885
   -70.9884 -70.9884 -70.9883 -70.9883 -70.9874 -70.9869 -70.9835 -70.9812
   -36.7623 -36.7589 -36.7586 -36.7579 -36.7549 -36.7497 -36.7495 -36.7462
   -36.7462 -36.7455 -36.7450 -36.7423 -36.7397 -36.7352 -36.7311 -36.7273
   -36.7241 -36.7147 -36.7106 -36.7081 -36.7048 -36.7044 -36.7041 -36.7033
   -36.7018 -36.7006 -36.6966 -36.6962 -36.6936 -36.6915 -36.6891 -36.6841
   -36.6769 -36.6767 -36.6755 -36.6751 -36.6742 -36.6700 -36.6700 -36.6663
   -36.6654 -36.6647 -36.6642 -36.6640 -36.6639 -36.6609 -36.6581 -36.6568
     8.0505   8.7329   9.2560   9.3655   9.3981   9.4265   9.4547   9.4755
     9.4787   9.5154   9.5733   9.5888   9.6999   9.7278   9.7297   9.7710
     9.7905   9.8512   9.8827   9.9153   9.9676  10.0124  10.0334  10.0505
    10.0894  10.2028  10.2635  10.2786  10.3034  10.4232  10.4440  10.4764
    10.5432  10.5815  10.5985  10.6833  10.7348  10.8156  10.8423  10.8432
    10.8562  10.9363  11.0898  11.0911  11.2206  11.2411  11.3088  11.3090
    11.3344  11.3365  11.3457  11.3642  11.3717  11.4030  11.4331  11.5081
    11.5210  11.5301  11.5702  11.6315  11.6848  11.6965  11.7149  11.7672
    11.7698  11.7698  11.7834  11.8398  11.8531  11.8596  11.9180  11.9194
    11.9314  11.9424  12.0297  12.0787  12.1013  12.1123  12.1850  12.2406
    12.3047  12.3340  12.4387  12.5518  12.9955  13.4854  13.6757  14.2177
    14.3403  14.8492  15.1515  15.7097  15.7207  16.2733  16.9297  17.7924
    18.1994  18.5775  18.7659  18.8139  19.2169  19.5029  20.2367  20.5538
    20.8092  21.0061  21.3208  21.5619  21.7194

          k = 0.0485 0.1456-0.4368 ( 22644 PWs)   bands (ev):

   -70.9967 -70.9967 -70.9910 -70.9910 -70.9896 -70.9896 -70.9887 -70.9887
   -70.9883 -70.9883 -70.9883 -70.9883 -70.9871 -70.9871 -70.9823 -70.9823
   -36.7567 -36.7567 -36.7526 -36.7526 -36.7524 -36.7524 -36.7523 -36.7523
   -36.7478 -36.7478 -36.7448 -36.7448 -36.7406 -36.7406 -36.7301 -36.7301
   -36.7213 -36.7213 -36.7075 -36.7075 -36.7066 -36.7066 -36.7027 -36.7026
   -36.7025 -36.7025 -36.6964 -36.6964 -36.6901 -36.6901 -36.6848 -36.6848
   -36.6767 -36.6767 -36.6699 -36.6699 -36.6697 -36.6697 -36.6693 -36.6693
   -36.6686 -36.6686 -36.6650 -36.6650 -36.6616 -36.6616 -36.6604 -36.6604
     8.3682   8.3682   9.3279   9.3279   9.4741   9.4741   9.5571   9.5571
     9.5886   9.5886   9.6180   9.6180   9.6344   9.6344   9.6430   9.6430
     9.7107   9.7107   9.9064   9.9064   9.9579   9.9579  10.1246  10.1246
    10.1531  10.1531  10.2117  10.2117  10.3609  10.3609  10.4502  10.4502
    10.5652  10.5652  10.6858  10.6858  10.8452  10.8452  10.9476  10.9476
    10.9594  10.9594  11.0755  11.0755  11.1048  11.1048  11.1086  11.1086
    11.3701  11.3701  11.3828  11.3828  11.4371  11.4371  11.4676  11.4676
    11.5098  11.5098  11.5104  11.5104  11.7242  11.7242  11.7260  11.7260
    11.7325  11.7325  11.8434  11.8434  11.8454  11.8454  11.8776  11.8776
    11.9411  11.9411  12.0218  12.0218  12.1459  12.1459  12.2222  12.2222
    12.3290  12.3290  12.4050  12.4050  13.2176  13.2176  13.9365  13.9365
    14.6052  14.6052  15.7088  15.7088  16.3131  16.3131  16.7362  16.7362
    18.3448  18.3448  18.9516  18.9516  19.7434  19.7434  20.4855  20.4855
    21.0982  21.0982  21.2435  21.2435  22.0271

          k = 0.0485 0.2427 0.2427 ( 22631 PWs)   bands (ev):

   -70.9983 -70.9933 -70.9933 -70.9908 -70.9898 -70.9891 -70.9891 -70.9885
   -70.9884 -70.9884 -70.9883 -70.9882 -70.9870 -70.9852 -70.9852 -70.9809
   -36.7657 -36.7608 -36.7608 -36.7586 -36.7586 -36.7501 -36.7486 -36.7459
   -36.7459 -36.7432 -36.7417 -36.7406 -36.7366 -36.7362 -36.7269 -36.7161
   -36.7161 -36.7139 -36.7122 -36.7122 -36.7061 -36.7051 -36.7042 -36.7030
   -36.7030 -36.6995 -36.6995 -36.6984 -36.6983 -36.6969 -36.6901 -36.6816
   -36.6816 -36.6800 -36.6773 -36.6770 -36.6766 -36.6722 -36.6699 -36.6659
   -36.6659 -36.6626 -36.6624 -36.6624 -36.6604 -36.6604 -36.6551 -36.6542
     7.9652   9.1590   9.1590   9.1944   9.3814   9.3814   9.4131   9.4131
     9.4299   9.4816   9.5401   9.6852   9.7515   9.8196   9.8272   9.8368
     9.8368   9.9367   9.9367   9.9578   9.9775   9.9775  10.1116  10.1116
    10.1149  10.1863  10.2116  10.2173  10.2891  10.3707  10.3707  10.3996
    10.5350  10.6240  10.6424  10.6568  10.6665  10.6665  10.7006  10.8552
    10.9191  10.9191  10.9749  11.2384  11.2384  11.2466  11.2732  11.2793
    11.2793  11.3333  11.3333  11.3903  11.3904  11.4233  11.4240  11.4240
    11.5794  11.5985  11.6067  11.6067  11.6346  11.6346  11.7177  11.7246
    11.7784  11.7785  11.7976  11.8403  11.8486  11.8668  11.9437  11.9479
    11.9667  11.9796  11.9796  12.0434  12.0435  12.1166  12.1166  12.1447
    12.1447  12.3444  12.3867  12.5180  13.0042  13.6614  14.2312  14.2312
    14.8972  14.8972  14.9831  14.9831  15.5495  16.2753  16.9771  17.9420
    18.7433  18.7433  19.0968  19.1754  19.4196  19.4196  19.5023  20.0835
    20.1776  20.9410  20.9940  21.2702  21.2702

          k = 0.0485 0.2427 0.3397 ( 22628 PWs)   bands (ev):

   -70.9974 -70.9948 -70.9928 -70.9916 -70.9897 -70.9893 -70.9890 -70.9887
   -70.9883 -70.9883 -70.9883 -70.9882 -70.9864 -70.9855 -70.9838 -70.9817
   -36.7629 -36.7568 -36.7567 -36.7554 -36.7537 -36.7528 -36.7499 -36.7486
   -36.7473 -36.7465 -36.7458 -36.7418 -36.7417 -36.7329 -36.7225 -36.7224
   -36.7206 -36.7143 -36.7121 -36.7092 -36.7068 -36.7060 -36.7055 -36.7042
   -36.7032 -36.7029 -36.7001 -36.6980 -36.6974 -36.6913 -36.6874 -36.6847
   -36.6831 -36.6764 -36.6756 -36.6744 -36.6729 -36.6725 -36.6685 -36.6659
   -36.6653 -36.6650 -36.6642 -36.6624 -36.6612 -36.6608 -36.6558 -36.6549
     8.2036   8.8304   9.1950   9.2017   9.4594   9.5090   9.5166   9.5282
     9.5352   9.5620   9.6365   9.6622   9.7010   9.7452   9.7501   9.7506
     9.7578   9.9472   9.9606   9.9915  10.0182  10.0269  10.0643  10.0726
    10.1426  10.2101  10.2293  10.2295  10.2835  10.3335  10.3434  10.3600
    10.5484  10.6228  10.6949  10.7037  10.7116  10.7370  10.7372  10.7638
    10.8059  10.9818  11.0324  11.0986  11.1133  11.1375  11.1803  11.2677
    11.3233  11.3343  11.3556  11.3661  11.3683  11.3766  11.4232  11.4628
    11.5088  11.5378  11.5438  11.5655  11.6095  11.6211  11.6447  11.6577
    11.7397  11.7412  11.7527  11.8029  11.8467  11.8649  11.8671  11.8944
    11.8995  11.9233  11.9784  11.9814  12.0013  12.0164  12.0954  12.0981
    12.2531  12.2920  12.3800  12.4843  13.2488  13.8694  13.9308  14.5724
    14.7146  15.2535  15.3818  15.7138  15.7390  15.9511  16.4347  18.0594
    18.2966  18.8737  19.3397  19.5532  19.5584  19.5951  20.0007  20.1469
    20.3264  20.6360  20.8631  21.6086  21.6177

          k = 0.0485 0.2427-0.4368 ( 22606 PWs)   bands (ev):

   -70.9962 -70.9962 -70.9923 -70.9922 -70.9895 -70.9895 -70.9888 -70.9888
   -70.9883 -70.9883 -70.9883 -70.9883 -70.9859 -70.9859 -70.9827 -70.9827
   -36.7585 -36.7585 -36.7519 -36.7519 -36.7515 -36.7515 -36.7514 -36.7514
   -36.7499 -36.7499 -36.7478 -36.7478 -36.7323 -36.7323 -36.7282 -36.7282
   -36.7140 -36.7140 -36.7120 -36.7120 -36.7092 -36.7091 -36.7052 -36.7052
   -36.7018 -36.7018 -36.6977 -36.6977 -36.6936 -36.6935 -36.6850 -36.6850
   -36.6835 -36.6835 -36.6703 -36.6703 -36.6689 -36.6689 -36.6688 -36.6688
   -36.6684 -36.6684 -36.6651 -36.6651 -36.6578 -36.6578 -36.6571 -36.6571
     8.5001   8.5001   9.2070   9.2070   9.5509   9.5509   9.6252   9.6252
     9.6316   9.6317   9.6457   9.6457   9.6514   9.6514   9.6582   9.6582
     9.8072   9.8073   9.9874   9.9875  10.0467  10.0467  10.1101  10.1101
    10.1337  10.1337  10.1649  10.1649  10.3404  10.3404  10.4715  10.4715
    10.5394  10.5394  10.5774  10.5774  10.8191  10.8191  10.8618  10.8618
    10.9411  10.9411  10.9492  10.9492  11.0707  11.0707  11.1205  11.1205
    11.2983  11.2983  11.3342  11.3342  11.4415  11.4415  11.4622  11.4622
    11.4696  11.4696  11.4989  11.4989  11.6267  11.6267  11.6924  11.6924
    11.6980  11.6981  11.7995  11.7995  11.8118  11.8118  11.8610  11.8610
    11.9019  11.9019  11.9611  11.9612  12.0001  12.0001  12.0549  12.0549
    12.3338  12.3338  12.4078  12.4078  13.5407  13.5407  14.2411  14.2411
    15.2199  15.2199  15.5354  15.5354  15.9009  15.9010  16.9854  16.9854
    19.0718  19.0718  19.1141  19.1141  19.7574  19.7574  20.0583  20.0583
    20.5748  20.5748  21.3251  21.3251  21.8244

          k = 0.0485 0.3397 0.3397 ( 22615 PWs)   bands (ev):

   -70.9965 -70.9942 -70.9942 -70.9926 -70.9895 -70.9892 -70.9892 -70.9888
   -70.9883 -70.9883 -70.9883 -70.9882 -70.9856 -70.9843 -70.9843 -70.9824
   -36.7617 -36.7542 -36.7542 -36.7540 -36.7540 -36.7526 -36.7520 -36.7520
   -36.7486 -36.7485 -36.7480 -36.7447 -36.7328 -36.7294 -36.7201 -36.7201
   -36.7135 -36.7133 -36.7130 -36.7130 -36.7119 -36.7072 -36.7072 -36.7071
   -36.7024 -36.6998 -36.6998 -36.6987 -36.6987 -36.6985 -36.6936 -36.6836
   -36.6833 -36.6777 -36.6777 -36.6710 -36.6703 -36.6700 -36.6690 -36.6669
   -36.6662 -36.6662 -36.6647 -36.6647 -36.6575 -36.6575 -36.6548 -36.6544
     8.4192   8.9469   8.9469   9.1389   9.5700   9.5700   9.5986   9.5986
     9.6131   9.6186   9.6533   9.6848   9.7138   9.7281   9.7281   9.7420
     9.7923  10.0392  10.0392  10.0572  10.0797  10.0797  10.1155  10.1183
    10.1183  10.1736  10.1764  10.1969  10.2239  10.2239  10.2921  10.4938
    10.5233  10.5726  10.6645  10.6884  10.7004  10.7180  10.7180  10.7270
    10.8838  10.8838  10.9251  10.9251  10.9419  10.9419  11.1332  11.2154
    11.2924  11.3365  11.3926  11.3926  11.4248  11.4268  11.4268  11.4332
    11.4634  11.4634  11.5455  11.5607  11.5870  11.5870  11.5948  11.5948
    11.6571  11.6963  11.6967  11.7379  11.7765  11.8531  11.8551  11.8551
    11.8597  11.8849  11.9145  11.9145  11.9251  11.9873  11.9884  11.9884
    12.3706  12.3706  12.4183  12.4890  13.5640  14.2522  14.3015  14.3015
    14.9965  14.9965  15.2369  15.9375  16.2451  16.2451  16.3998  18.0863
    18.2268  18.6793  19.5398  19.5398  19.7405  19.7405  19.9837  20.4640
    20.4640  20.6277  20.7344  21.4928  21.5251

          k = 0.0485 0.3397-0.4368 ( 22642 PWs)   bands (ev):

   -70.9955 -70.9955 -70.9935 -70.9934 -70.9894 -70.9893 -70.9890 -70.9890
   -70.9883 -70.9883 -70.9883 -70.9882 -70.9849 -70.9849 -70.9832 -70.9832
   -36.7586 -36.7586 -36.7541 -36.7541 -36.7511 -36.7511 -36.7509 -36.7509
   -36.7502 -36.7502 -36.7483 -36.7483 -36.7252 -36.7252 -36.7231 -36.7231
   -36.7169 -36.7169 -36.7100 -36.7100 -36.7077 -36.7077 -36.7062 -36.7062
   -36.7032 -36.7032 -36.7013 -36.7013 -36.6993 -36.6993 -36.6908 -36.6908
   -36.6804 -36.6804 -36.6730 -36.6730 -36.6680 -36.6680 -36.6678 -36.6678
   -36.6677 -36.6677 -36.6656 -36.6656 -36.6555 -36.6555 -36.6552 -36.6552
     8.6769   8.6769   9.0550   9.0550   9.6234   9.6234   9.6590   9.6590
     9.6602   9.6602   9.6784   9.6784   9.6789   9.6789   9.6795   9.6795
     9.9495   9.9495  10.0831  10.0832  10.1269  10.1269  10.1291  10.1291
    10.1356  10.1356  10.1490  10.1490  10.2456  10.2456  10.3111  10.3111
    10.6283  10.6283  10.6793  10.6793  10.7469  10.7469  10.7624  10.7624
    10.7730  10.7730  10.8004  10.8004  10.9175  10.9175  11.0804  11.0804
    11.2933  11.2933  11.3455  11.3455  11.5016  11.5017  11.5111  11.5111
    11.5128  11.5128  11.5135  11.5135  11.5135  11.5135  11.6421  11.6421
    11.6441  11.6441  11.6521  11.6521  11.7725  11.7725  11.8067  11.8067
    11.8797  11.8798  11.9215  11.9215  11.9231  11.9231  11.9865  11.9865
    12.4144  12.4144  12.4509  12.4509  13.9177  13.9177  14.6130  14.6131
    14.7591  14.7591  15.4563  15.4563  16.5043  16.5043  17.2895  17.2895
    18.5759  18.5759  19.0007  19.0008  19.9310  19.9310  20.6310  20.6310
    20.6926  20.6926  21.4256  21.4734  21.4735

          k = 0.0485-0.4368-0.4368 ( 22616 PWs)   bands (ev):

   -70.9946 -70.9945 -70.9945 -70.9945 -70.9892 -70.9892 -70.9892 -70.9892
   -70.9883 -70.9883 -70.9883 -70.9882 -70.9840 -70.9840 -70.9840 -70.9840
   -36.7572 -36.7572 -36.7572 -36.7572 -36.7507 -36.7507 -36.7506 -36.7506
   -36.7491 -36.7491 -36.7491 -36.7491 -36.7215 -36.7214 -36.7214 -36.7214
   -36.7132 -36.7132 -36.7132 -36.7132 -36.7095 -36.7095 -36.7095 -36.7095
   -36.7005 -36.7004 -36.7004 -36.7004 -36.6985 -36.6985 -36.6985 -36.6985
   -36.6763 -36.6763 -36.6763 -36.6763 -36.6677 -36.6677 -36.6677 -36.6677
   -36.6665 -36.6665 -36.6665 -36.6665 -36.6545 -36.6545 -36.6545 -36.6545
     8.8719   8.8719   8.8719   8.8720   9.6584   9.6584   9.6584   9.6584
     9.6848   9.6848   9.6848   9.6848   9.6884   9.6885   9.6885   9.6885
    10.1229  10.1229  10.1229  10.1229  10.1400  10.1400  10.1400  10.1400
    10.1605  10.1605  10.1605  10.1605  10.1731  10.1731  10.1731  10.1731
    10.6915  10.6915  10.6916  10.6916  10.7317  10.7317  10.7317  10.7317
    10.7417  10.7417  10.7417  10.7417  10.8707  10.8707  10.8707  10.8707
    11.4089  11.4089  11.4089  11.4089  11.4722  11.4722  11.4722  11.4723
    11.5323  11.5323  11.5323  11.5323  11.5779  11.5779  11.5780  11.5780
    11.5791  11.5791  11.5791  11.5791  11.7557  11.7557  11.7557  11.7557
    11.8988  11.8988  11.8989  11.8989  11.9455  11.9455  11.9455  11.9455
    12.4539  12.4539  12.4539  12.4539  14.3259  14.3259  14.3259  14.3259
    15.0230  15.0230  15.0230  15.0230  17.3084  17.3084  17.3084  17.3084
    18.3218  18.3218  18.3218  18.3218  20.6480  20.6480  20.6480  20.6481
    21.3453  21.4473  21.4474  21.4474  21.4474

          k = 0.1456 0.1456 0.1456 ( 22610 PWs)   bands (ev):

   -70.9993 -70.9918 -70.9918 -70.9918 -70.9894 -70.9894 -70.9894 -70.9885
   -70.9881 -70.9881 -70.9881 -70.9881 -70.9867 -70.9867 -70.9867 -70.9801
   -36.7667 -36.7667 -36.7667 -36.7615 -36.7615 -36.7615 -36.7444 -36.7444
   -36.7380 -36.7372 -36.7372 -36.7372 -36.7329 -36.7254 -36.7254 -36.7165
   -36.7165 -36.7165 -36.7113 -36.7113 -36.7113 -36.7022 -36.7022 -36.7022
   -36.6956 -36.6956 -36.6953 -36.6953 -36.6952 -36.6951 -36.6951 -36.6951
   -36.6879 -36.6879 -36.6879 -36.6828 -36.6749 -36.6749 -36.6749 -36.6682
   -36.6607 -36.6607 -36.6607 -36.6566 -36.6566 -36.6555 -36.6555 -36.6555
     7.7134   9.2245   9.2245   9.2245   9.2998   9.2998   9.2998   9.4018
     9.4018   9.4742   9.4742   9.4742   9.8076   9.8841   9.8841   9.8841
     9.9640   9.9640   9.9640   9.9712   9.9712   9.9712  10.0313  10.0313
    10.1240  10.1240  10.1240  10.4060  10.4060  10.4812  10.4812  10.4874
    10.4874  10.4874  10.4986  10.6200  10.6200  10.6200  10.7329  10.8713
    10.8713  10.8713  11.0753  11.0753  11.0754  11.2445  11.2445  11.2445
    11.4028  11.4028  11.4028  11.5208  11.5208  11.5208  11.5748  11.5748
    11.5748  11.6368  11.6368  11.6368  11.6835  11.6835  11.8162  11.8162
    11.8163  11.8267  11.8267  11.8297  11.8297  11.9076  11.9076  11.9076
    11.9254  12.0223  12.0223  12.0223  12.2904  12.2904  12.3073  12.3073
    12.3073  12.3840  12.3840  12.3840  13.6285  13.6285  13.6285  14.0337
    14.0338  14.0338  15.0937  15.0937  15.0937  16.7963  17.8756  17.8756
    17.8756  18.7007  18.9835  18.9835  19.2793  19.2793  19.2793  19.8740
    19.9962  19.9962  20.1811  21.4880  21.4880

          k = 0.1456 0.1456 0.2427 ( 22643 PWs)   bands (ev):

   -70.9986 -70.9935 -70.9916 -70.9916 -70.9899 -70.9899 -70.9893 -70.9886
   -70.9881 -70.9880 -70.9877 -70.9877 -70.9868 -70.9868 -70.9851 -70.9807
   -36.7647 -36.7647 -36.7632 -36.7592 -36.7561 -36.7561 -36.7461 -36.7431
   -36.7431 -36.7425 -36.7417 -36.7415 -36.7350 -36.7277 -36.7241 -36.7241
   -36.7211 -36.7189 -36.7114 -36.7114 -36.7078 -36.7048 -36.7046 -36.7046
   -36.7022 -36.6977 -36.6962 -36.6934 -36.6934 -36.6884 -36.6884 -36.6884
   -36.6884 -36.6863 -36.6805 -36.6777 -36.6743 -36.6699 -36.6699 -36.6692
   -36.6646 -36.6646 -36.6624 -36.6592 -36.6589 -36.6566 -36.6562 -36.6562
     7.8834   9.1500   9.2591   9.2591   9.3384   9.3868   9.3868   9.3931
     9.4637   9.4759   9.4759   9.4880   9.7492   9.8830   9.9069   9.9069
     9.9289   9.9289   9.9548   9.9611   9.9623   9.9646  10.0002  10.0571
    10.0571  10.1854  10.1854  10.2854  10.3834  10.3834  10.4420  10.4817
    10.5084  10.5260  10.5720  10.5909  10.6115  10.6115  10.7406  10.7406
    10.8333  10.9809  11.1633  11.1706  11.1706  11.2024  11.2024  11.2942
    11.2942  11.3311  11.3797  11.4039  11.5204  11.5204  11.5659  11.5659
    11.6121  11.6198  11.6373  11.6801  11.6898  11.6898  11.6921  11.6921
    11.7171  11.7358  11.8010  11.8020  11.8183  11.8265  11.8389  11.9448
    11.9448  12.0187  12.0187  12.0343  12.0595  12.1569  12.1810  12.3153
    12.3582  12.3582  12.3852  12.3852  13.2102  13.2102  14.1055  14.2266
    14.2267  14.8935  15.2042  15.2042  15.5486  16.2195  17.9081  18.1580
    18.1580  18.2024  18.4472  18.9909  19.3624  19.7728  20.1134  20.1134
    20.1956  20.2177  20.3227  21.7636  21.9754

          k = 0.1456 0.1456 0.3397 ( 22620 PWs)   bands (ev):

   -70.9977 -70.9951 -70.9913 -70.9913 -70.9904 -70.9904 -70.9892 -70.9888
   -70.9880 -70.9880 -70.9874 -70.9874 -70.9869 -70.9869 -70.9837 -70.9814
   -36.7610 -36.7610 -36.7580 -36.7558 -36.7497 -36.7497 -36.7492 -36.7492
   -36.7472 -36.7468 -36.7447 -36.7437 -36.7373 -36.7326 -36.7326 -36.7259
   -36.7219 -36.7167 -36.7105 -36.7105 -36.7091 -36.7082 -36.7069 -36.7069
   -36.6988 -36.6984 -36.6973 -36.6917 -36.6917 -36.6892 -36.6892 -36.6817
   -36.6817 -36.6816 -36.6777 -36.6738 -36.6729 -36.6695 -36.6695 -36.6651
   -36.6651 -36.6650 -36.6643 -36.6637 -36.6631 -36.6581 -36.6580 -36.6579
     8.1296   8.7906   9.3158   9.3158   9.4438   9.4438   9.4959   9.5003
     9.5003   9.5101   9.5542   9.6054   9.6940   9.7759   9.7759   9.8084
     9.8625   9.8657   9.8858   9.9214   9.9761  10.0076  10.0076  10.1470
    10.1735  10.1735  10.2475  10.2475  10.2998  10.2998  10.4211  10.4586
    10.4850  10.5028  10.6357  10.6357  10.7383  10.7383  10.7531  10.7979
    10.9245  10.9245  10.9508  11.1360  11.1990  11.2295  11.2866  11.2918
    11.2919  11.3114  11.3457  11.3458  11.3486  11.3486  11.4633  11.4633
    11.5280  11.5303  11.5833  11.5833  11.5888  11.6603  11.6940  11.7616
    11.7652  11.7674  11.8209  11.8254  11.8265  11.8265  11.8619  11.9177
    11.9376  11.9376  11.9821  12.0135  12.1414  12.1414  12.1474  12.2958
    12.3384  12.3384  12.4636  12.4636  12.8875  12.8875  14.4824  14.4824
    14.6148  15.0426  15.0426  15.6717  15.8475  16.1164  17.4586  17.9330
    17.9676  18.2216  18.8575  18.8575  19.4986  19.9565  20.5893  20.7012
    20.7834  20.8556  20.8556  21.0498  21.0498

          k = 0.1456 0.1456-0.4368 ( 22634 PWs)   bands (ev):

   -70.9965 -70.9965 -70.9909 -70.9909 -70.9909 -70.9909 -70.9890 -70.9890
   -70.9880 -70.9880 -70.9871 -70.9871 -70.9871 -70.9871 -70.9825 -70.9825
   -36.7559 -36.7559 -36.7559 -36.7559 -36.7517 -36.7517 -36.7516 -36.7516
   -36.7464 -36.7464 -36.7412 -36.7412 -36.7412 -36.7412 -36.7321 -36.7321
   -36.7157 -36.7157 -36.7124 -36.7123 -36.7089 -36.7089 -36.7089 -36.7089
   -36.6982 -36.6981 -36.6903 -36.6903 -36.6903 -36.6903 -36.6899 -36.6899
   -36.6753 -36.6753 -36.6753 -36.6753 -36.6701 -36.6701 -36.6686 -36.6686
   -36.6680 -36.6680 -36.6610 -36.6610 -36.6610 -36.6610 -36.6604 -36.6604
     8.4392   8.4392   9.3833   9.3833   9.3833   9.3833   9.6185   9.6185
     9.6336   9.6336   9.6336   9.6336   9.6704   9.6705   9.6796   9.6797
     9.7389   9.7389   9.8969   9.8969  10.0340  10.0340  10.1163  10.1163
    10.1163  10.1163  10.2884  10.2884  10.2884  10.2884  10.4247  10.4247
    10.4923  10.4923  10.7077  10.7077  10.7078  10.7078  10.9821  10.9821
    10.9821  10.9821  11.0069  11.0069  11.0105  11.0105  11.0838  11.0839
    11.3248  11.3248  11.4054  11.4054  11.4054  11.4054  11.4139  11.4139
    11.4769  11.4769  11.4769  11.4769  11.7124  11.7124  11.7301  11.7301
    11.7866  11.7866  11.8234  11.8234  11.8290  11.8290  11.9057  11.9057
    11.9057  11.9057  11.9124  11.9124  12.2374  12.2374  12.2533  12.2533
    12.2533  12.2533  12.6406  12.6406  12.6406  12.6406  14.7699  14.7700
    14.7700  14.7700  15.1384  15.1384  16.7595  16.7595  16.8701  16.8701
    18.0669  18.0669  19.6972  19.6972  19.7938  19.7938  19.7938  19.7938
    21.0806  21.0807  21.3527  21.3528  21.6948

          k = 0.1456 0.2427 0.2427 ( 22637 PWs)   bands (ev):

   -70.9980 -70.9932 -70.9932 -70.9914 -70.9907 -70.9898 -70.9898 -70.9889
   -70.9879 -70.9877 -70.9877 -70.9870 -70.9869 -70.9853 -70.9853 -70.9812
   -36.7639 -36.7614 -36.7614 -36.7546 -36.7546 -36.7497 -36.7472 -36.7467
   -36.7467 -36.7459 -36.7451 -36.7404 -36.7372 -36.7292 -36.7236 -36.7219
   -36.7188 -36.7188 -36.7156 -36.7156 -36.7132 -36.7084 -36.7078 -36.7077
   -36.6953 -36.6953 -36.6946 -36.6939 -36.6939 -36.6901 -36.6889 -36.6833
   -36.6829 -36.6813 -36.6813 -36.6809 -36.6742 -36.6695 -36.6675 -36.6652
   -36.6652 -36.6651 -36.6651 -36.6608 -36.6593 -36.6593 -36.6565 -36.6558
     8.0473   9.2070   9.2070   9.2597   9.3745   9.3745   9.4721   9.4721
     9.4763   9.5104   9.5288   9.5664   9.7129   9.8952   9.8952   9.9121
     9.9261   9.9262   9.9414   9.9542  10.0418  10.0438  10.0438  10.0762
    10.0762  10.1199  10.1607  10.3300  10.3320  10.3660  10.3660  10.3955
    10.4649  10.5350  10.5514  10.5519  10.5519  10.5835  10.6903  10.8117
    10.8117  10.9551  10.9568  11.1123  11.1123  11.2669  11.2669  11.2727
    11.3545  11.3924  11.3924  11.4145  11.4145  11.4634  11.5309  11.5309
    11.5673  11.5673  11.5715  11.5715  11.6184  11.6293  11.6383  11.6383
    11.7013  11.7826  11.7875  11.7978  11.8013  11.8192  11.8407  11.8482
    11.8482  12.0402  12.0574  12.0574  12.0893  12.1296  12.1296  12.2093
    12.2093  12.3143  12.4130  12.4896  12.7671  13.6637  13.6637  14.4471
    15.1094  15.1094  15.6019  15.6019  15.6553  15.7666  17.7681  17.9626
    18.2176  18.2176  19.0309  19.2593  19.2831  19.3897  20.2027  20.2027
    20.5442  20.7506  20.9852  21.3130  21.3130

          k = 0.1456 0.2427 0.3397 ( 22630 PWs)   bands (ev):

   -70.9971 -70.9946 -70.9927 -70.9914 -70.9911 -70.9903 -70.9896 -70.9892
   -70.9878 -70.9877 -70.9874 -70.9870 -70.9865 -70.9856 -70.9840 -70.9819
   -36.7613 -36.7583 -36.7566 -36.7526 -36.7522 -36.7499 -36.7488 -36.7488
   -36.7486 -36.7478 -36.7437 -36.7421 -36.7368 -36.7355 -36.7256 -36.7245
   -36.7208 -36.7173 -36.7156 -36.7135 -36.7119 -36.7118 -36.7104 -36.7067
   -36.7021 -36.6946 -36.6946 -36.6921 -36.6896 -36.6888 -36.6882 -36.6872
   -36.6826 -36.6781 -36.6762 -36.6751 -36.6747 -36.6710 -36.6688 -36.6665
   -36.6647 -36.6643 -36.6638 -36.6613 -36.6612 -36.6604 -36.6569 -36.6564
     8.2825   8.8937   9.2544   9.2696   9.4266   9.5149   9.5309   9.5706
     9.5786   9.5825   9.6097   9.6852   9.6861   9.8045   9.8118   9.8354
     9.8435   9.9290   9.9586  10.0023  10.0036  10.0134  10.0539  10.1360
    10.1779  10.2244  10.2329  10.2329  10.2370  10.2829  10.3414  10.3534
    10.4656  10.5045  10.6120  10.6251  10.6491  10.6505  10.6716  10.7081
    10.7289  10.8887  10.9389  11.0103  11.0892  11.0984  11.0987  11.2167
    11.3179  11.3616  11.3780  11.3832  11.4046  11.4142  11.4210  11.4227
    11.5190  11.5577  11.5721  11.5724  11.5762  11.6275  11.6663  11.7361
    11.7440  11.7471  11.7472  11.8166  11.8203  11.8295  11.8630  11.8708
    11.8754  11.8921  11.9334  12.0488  12.0860  12.0865  12.1918  12.2225
    12.2381  12.3177  12.3931  12.4472  12.7008  13.2909  14.1390  14.7346
    15.1299  15.3766  15.3912  15.8987  16.0805  16.0986  17.2134  18.1951
    18.3239  18.3353  18.7661  18.9504  19.6656  20.1859  20.2057  20.3433
    20.7019  20.7481  20.9331  20.9457  21.1386

          k = 0.1456 0.2427-0.4368 ( 22606 PWs)   bands (ev):

   -70.9960 -70.9960 -70.9921 -70.9921 -70.9907 -70.9907 -70.9894 -70.9894
   -70.9878 -70.9878 -70.9872 -70.9872 -70.9860 -70.9860 -70.9828 -70.9828
   -36.7572 -36.7572 -36.7542 -36.7542 -36.7505 -36.7505 -36.7502 -36.7502
   -36.7493 -36.7493 -36.7423 -36.7423 -36.7335 -36.7335 -36.7318 -36.7318
   -36.7163 -36.7163 -36.7149 -36.7149 -36.7125 -36.7125 -36.7090 -36.7090
   -36.6976 -36.6976 -36.6949 -36.6949 -36.6907 -36.6907 -36.6847 -36.6847
   -36.6814 -36.6813 -36.6732 -36.6732 -36.6696 -36.6696 -36.6690 -36.6690
   -36.6684 -36.6684 -36.6623 -36.6623 -36.6584 -36.6584 -36.6582 -36.6582
     8.5733   8.5733   9.2735   9.2735   9.4806   9.4806   9.6463   9.6463
     9.6960   9.6960   9.7013   9.7014   9.7066   9.7066   9.7074   9.7074
     9.8230   9.8230   9.9486   9.9486  10.1046  10.1046  10.1104  10.1104
    10.1179  10.1179  10.2015  10.2016  10.3343  10.3343  10.3671  10.3671
    10.4772  10.4772  10.5637  10.5637  10.7101  10.7101  10.8103  10.8103
    10.8307  10.8307  10.8678  10.8678  10.9005  10.9005  11.1144  11.1144
    11.2545  11.2545  11.4033  11.4033  11.4664  11.4664  11.4683  11.4683
    11.4856  11.4856  11.4904  11.4904  11.6907  11.6907  11.7061  11.7061
    11.7520  11.7520  11.7988  11.7988  11.8223  11.8223  11.8234  11.8234
    11.8827  11.8827  11.9361  11.9361  12.1443  12.1443  12.2145  12.2145
    12.2874  12.2874  12.3316  12.3316  12.9720  12.9720  14.6275  14.6275
    15.0579  15.0579  15.6903  15.6903  16.6477  16.6477  17.1177  17.1177
    18.4982  18.4982  19.1704  19.1704  19.8960  19.8960  20.1484  20.1484
    20.5359  20.5359  21.1858  21.1858  21.4532

          k = 0.1456 0.3397 0.3397 ( 22618 PWs)   bands (ev):

   -70.9963 -70.9940 -70.9940 -70.9924 -70.9908 -70.9901 -70.9901 -70.9895
   -70.9877 -70.9875 -70.9875 -70.9871 -70.9857 -70.9844 -70.9844 -70.9825
   -36.7600 -36.7545 -36.7545 -36.7532 -36.7531 -36.7511 -36.7506 -36.7485
   -36.7485 -36.7480 -36.7460 -36.7394 -36.7338 -36.7338 -36.7237 -36.7237
   -36.7213 -36.7165 -36.7156 -36.7156 -36.7156 -36.7146 -36.7146 -36.7089
   -36.6973 -36.6950 -36.6949 -36.6932 -36.6925 -36.6925 -36.6901 -36.6830
   -36.6812 -36.6767 -36.6767 -36.6743 -36.6726 -36.6696 -36.6685 -36.6685
   -36.6672 -36.6643 -36.6639 -36.6639 -36.6584 -36.6584 -36.6562 -36.6559
     8.4973   9.0172   9.0172   9.2129   9.5674   9.5674   9.5730   9.6573
     9.6573   9.6640   9.6697   9.6938   9.7828   9.7840   9.7840   9.8108
     9.8495  10.0120  10.0121  10.0513  10.0695  10.1135  10.1135  10.1274
    10.1274  10.1358  10.2101  10.2193  10.2193  10.2478  10.2853  10.4141
    10.4744  10.5182  10.5371  10.5525  10.5788  10.5788  10.6456  10.6725
    10.7468  10.7468  10.8209  10.8209  10.8482  10.8482  10.9791  11.1042
    11.2654  11.4161  11.4496  11.4496  11.4497  11.4839  11.5102  11.5102
    11.5660  11.5698  11.5888  11.5889  11.6099  11.6099  11.6239  11.6239
    11.7073  11.7138  11.7239  11.7744  11.8043  11.8260  11.8502  11.8502
    11.8625  11.8625  11.8729  11.8955  12.0525  12.0538  12.0538  12.1336
    12.3083  12.3083  12.3453  12.4045  13.0030  13.7202  13.7202  14.6336
    15.0586  15.7942  15.7942  16.3809  16.3809  16.5846  16.7382  18.1186
    18.3879  18.7555  19.1025  19.1025  19.4546  19.6127  19.6127  19.9745
    20.8514  21.2714  21.2715  21.3006  21.5722

          k = 0.1456 0.3397-0.4368 ( 22630 PWs)   bands (ev):

   -70.9953 -70.9953 -70.9933 -70.9933 -70.9905 -70.9904 -70.9898 -70.9898
   -70.9876 -70.9875 -70.9873 -70.9873 -70.9850 -70.9850 -70.9834 -70.9834
   -36.7571 -36.7571 -36.7528 -36.7528 -36.7523 -36.7523 -36.7501 -36.7501
   -36.7482 -36.7482 -36.7440 -36.7440 -36.7293 -36.7293 -36.7249 -36.7249
   -36.7205 -36.7205 -36.7187 -36.7186 -36.7160 -36.7160 -36.7063 -36.7063
   -36.7019 -36.7019 -36.6928 -36.6927 -36.6911 -36.6911 -36.6879 -36.6879
   -36.6796 -36.6796 -36.6715 -36.6715 -36.6711 -36.6711 -36.6687 -36.6687
   -36.6682 -36.6682 -36.6641 -36.6641 -36.6567 -36.6567 -36.6566 -36.6566
     8.7528   8.7528   9.1300   9.1300   9.5884   9.5884   9.6952   9.6952
     9.6981   9.6981   9.7320   9.7321   9.7338   9.7338   9.7609   9.7609
     9.9613   9.9613  10.0464  10.0464  10.1206  10.1206  10.1215  10.1215
    10.1580  10.1580  10.1793  10.1793  10.2390  10.2390  10.3046  10.3046
    10.5096  10.5096  10.5715  10.5715  10.6319  10.6319  10.6436  10.6436
    10.6861  10.6861  10.7330  10.7330  10.7388  10.7388  10.9072  10.9072
    11.4457  11.4457  11.4486  11.4486  11.5221  11.5222  11.5275  11.5275
    11.5333  11.5333  11.5425  11.5425  11.6516  11.6516  11.6580  11.6580
    11.6583  11.6583  11.7635  11.7635  11.7668  11.7668  11.8361  11.8361
    11.8666  11.8666  11.9061  11.9061  11.9534  11.9534  12.0469  12.0469
    12.3449  12.3449  12.3742  12.3742  13.3444  13.3444  14.1671  14.1671
    15.4227  15.4227  16.2563  16.2563  16.6593  16.6593  17.4275  17.4275
    18.6343  18.6343  19.0857  19.0857  19.3190  19.3191  20.0419  20.0419
    20.7906  20.7906  21.4238  21.5547  21.5552

          k = 0.1456-0.4368-0.4368 ( 22616 PWs)   bands (ev):

   -70.9944 -70.9944 -70.9944 -70.9943 -70.9902 -70.9901 -70.9901 -70.9901
   -70.9874 -70.9874 -70.9874 -70.9874 -70.9841 -70.9841 -70.9841 -70.9841
   -36.7555 -36.7555 -36.7555 -36.7555 -36.7508 -36.7507 -36.7507 -36.7507
   -36.7460 -36.7460 -36.7460 -36.7460 -36.7253 -36.7253 -36.7253 -36.7253
   -36.7184 -36.7184 -36.7184 -36.7184 -36.7157 -36.7156 -36.7156 -36.7156
   -36.6948 -36.6948 -36.6948 -36.6948 -36.6916 -36.6916 -36.6916 -36.6916
   -36.6751 -36.6751 -36.6751 -36.6751 -36.6696 -36.6696 -36.6696 -36.6696
   -36.6661 -36.6661 -36.6661 -36.6661 -36.6561 -36.6561 -36.6561 -36.6561
     8.9495   8.9495   8.9495   8.9495   9.6653   9.6653   9.6653   9.6653
     9.7438   9.7438   9.7438   9.7438   9.7475   9.7475   9.7475   9.7475
    10.1235  10.1235  10.1235  10.1235  10.1310  10.1310  10.1310  10.1310
    10.1657  10.1657  10.1657  10.1657  10.1791  10.1791  10.1791  10.1791
    10.5477  10.5477  10.5477  10.5477  10.5946  10.5946  10.5946  10.5946
    10.6722  10.6722  10.6722  10.6722  10.7197  10.7197  10.7197  10.7197
    11.5384  11.5384  11.5384  11.5384  11.5497  11.5497  11.5497  11.5497
    11.5963  11.5963  11.5963  11.5963  11.6094  11.6094  11.6094  11.6094
    11.6546  11.6546  11.6547  11.6547  11.7489  11.7489  11.7489  11.7490
    11.8514  11.8515  11.8515  11.8515  11.9839  11.9839  11.9839  11.9839
    12.3780  12.3780  12.3780  12.3780  13.7427  13.7427  13.7427  13.7427
    15.8308  15.8308  15.8308  15.8308  17.4761  17.4761  17.4761  17.4761
    18.3723  18.3723  18.3723  18.3724  20.0589  20.0589  20.0589  20.0589
    20.7123  20.7123  20.7124  20.7124  22.1549

          k = 0.2427 0.2427 0.2427 ( 22646 PWs)   bands (ev):

   -70.9974 -70.9929 -70.9929 -70.9929 -70.9905 -70.9905 -70.9905 -70.9893
   -70.9877 -70.9871 -70.9871 -70.9871 -70.9855 -70.9855 -70.9855 -70.9816
   -36.7604 -36.7604 -36.7604 -36.7493 -36.7493 -36.7493 -36.7485 -36.7485
   -36.7485 -36.7464 -36.7443 -36.7443 -36.7329 -36.7329 -36.7214 -36.7214
   -36.7214 -36.7209 -36.7209 -36.7209 -36.7159 -36.7123 -36.7123 -36.7123
   -36.6900 -36.6900 -36.6900 -36.6896 -36.6895 -36.6895 -36.6876 -36.6854
   -36.6854 -36.6812 -36.6812 -36.6812 -36.6718 -36.6689 -36.6689 -36.6689
   -36.6637 -36.6637 -36.6637 -36.6593 -36.6593 -36.6589 -36.6589 -36.6589
     8.2072   9.2849   9.2849   9.2849   9.3849   9.3849   9.3849   9.5574
     9.5574   9.5574   9.6178   9.6178   9.6999   9.9489   9.9489   9.9489
     9.9917   9.9917  10.0024  10.0024  10.0024  10.0080  10.0080  10.0080
    10.1277  10.1277  10.1278  10.3533  10.3533  10.3533  10.3883  10.3883
    10.4288  10.4288  10.4288  10.4307  10.4643  10.4643  10.6843  10.6843
    10.6843  10.9114  10.9114  10.9114  11.1002  11.2095  11.2095  11.2095
    11.3150  11.3377  11.3377  11.3377  11.4824  11.4824  11.4824  11.5324
    11.5324  11.5324  11.6312  11.6312  11.6312  11.6558  11.6558  11.7336
    11.7336  11.7336  11.7879  11.7879  11.7980  11.7980  11.7980  11.8129
    11.8129  12.1167  12.1167  12.1167  12.1286  12.1286  12.1286  12.1826
    12.1826  12.2511  12.2511  12.2511  13.2054  13.2054  13.2054  15.1017
    15.3398  15.3398  15.3398  16.1557  16.1557  16.1557  18.0083  18.0083
    18.0083  18.6363  18.6363  18.6784  19.4674  19.5699  19.5699  21.0758
    21.0758  21.0759  21.2150  21.2150  21.2150

          k = 0.2427 0.2427 0.3397 ( 22609 PWs)   bands (ev):

   -70.9966 -70.9943 -70.9924 -70.9924 -70.9912 -70.9912 -70.9903 -70.9896
   -70.9875 -70.9872 -70.9866 -70.9866 -70.9858 -70.9858 -70.9843 -70.9823
   -36.7581 -36.7581 -36.7554 -36.7515 -36.7515 -36.7494 -36.7487 -36.7473
   -36.7473 -36.7428 -36.7427 -36.7414 -36.7400 -36.7283 -36.7283 -36.7281
   -36.7280 -36.7212 -36.7211 -36.7172 -36.7163 -36.7163 -36.7128 -36.7093
   -36.6960 -36.6955 -36.6898 -36.6874 -36.6866 -36.6866 -36.6837 -36.6837
   -36.6822 -36.6822 -36.6771 -36.6743 -36.6732 -36.6732 -36.6700 -36.6686
   -36.6636 -36.6631 -36.6619 -36.6619 -36.6609 -36.6593 -36.6593 -36.6585
     8.4347   9.0084   9.3585   9.3585   9.3993   9.3993   9.5584   9.6438
     9.6643   9.6643   9.6921   9.7014   9.7374   9.8934   9.9030   9.9030
     9.9390   9.9452   9.9618   9.9724  10.0068  10.0068  10.1228  10.1471
    10.1471  10.2133  10.2133  10.2258  10.2258  10.3173  10.3328  10.3430
    10.3639  10.3798  10.4587  10.4920  10.4920  10.5798  10.5798  10.6037
    10.7054  10.7055  10.7523  10.8381  10.9035  10.9324  10.9324  11.0986
    11.2655  11.4223  11.4283  11.4283  11.5060  11.5060  11.5115  11.5115
    11.5907  11.5921  11.5921  11.6144  11.6200  11.6445  11.6650  11.7076
    11.7487  11.7635  11.7925  11.7975  11.8052  11.8052  11.8143  11.8143
    11.8648  11.8866  12.0128  12.0866  12.1613  12.1613  12.1972  12.2311
    12.2477  12.2477  12.2795  12.2795  12.8368  12.8368  13.6554  14.5949
    15.6409  15.6409  16.2304  16.2304  16.3188  16.6663  17.9243  18.0875
    18.4001  18.4196  18.4196  18.4497  19.6064  19.8070  20.0053  20.3136
    20.3136  20.6723  21.1491  21.2150  21.7122

          k = 0.2427 0.2427-0.4368 ( 22610 PWs)   bands (ev):

   -70.9955 -70.9955 -70.9919 -70.9919 -70.9919 -70.9919 -70.9900 -70.9900
   -70.9873 -70.9873 -70.9861 -70.9861 -70.9861 -70.9861 -70.9832 -70.9832
   -36.7549 -36.7549 -36.7549 -36.7549 -36.7491 -36.7490 -36.7490 -36.7490
   -36.7480 -36.7480 -36.7356 -36.7356 -36.7356 -36.7356 -36.7346 -36.7346
   -36.7226 -36.7226 -36.7194 -36.7194 -36.7194 -36.7194 -36.7040 -36.7040
   -36.7027 -36.7027 -36.6890 -36.6890 -36.6840 -36.6840 -36.6840 -36.6840
   -36.6782 -36.6782 -36.6782 -36.6782 -36.6697 -36.6697 -36.6689 -36.6689
   -36.6681 -36.6681 -36.6604 -36.6604 -36.6604 -36.6604 -36.6591 -36.6591
     8.7118   8.7118   9.3971   9.3971   9.3971   9.3971   9.6935   9.6935
     9.7585   9.7585   9.7840   9.7840   9.7840   9.7840   9.7857   9.7857
     9.8674   9.8674   9.9479   9.9479  10.1004  10.1004  10.1004  10.1004
    10.1872  10.1872  10.2473  10.2473  10.2473  10.2473  10.3133  10.3133
    10.3717  10.3717  10.5618  10.5618  10.5618  10.5618  10.6438  10.6438
    10.6723  10.6723  10.6723  10.6723  10.7332  10.7332  10.9018  10.9018
    11.4460  11.4460  11.5065  11.5065  11.5065  11.5065  11.5104  11.5104
    11.5188  11.5188  11.5188  11.5188  11.6950  11.6950  11.7061  11.7061
    11.7752  11.7752  11.7958  11.7958  11.8222  11.8222  11.8222  11.8222
    11.8268  11.8268  11.9542  11.9542  12.2109  12.2109  12.2109  12.2109
    12.2342  12.2343  12.5308  12.5308  12.5308  12.5308  14.1168  14.1168
    15.9691  15.9691  15.9691  15.9691  17.2631  17.2631  17.3636  17.3636
    18.2129  18.2129  19.2870  19.2870  19.2870  19.2870  20.2007  20.2007
    20.5396  20.5396  20.6329  20.6329  21.3953

          k = 0.2427 0.3397 0.3397 ( 22596 PWs)   bands (ev):

   -70.9958 -70.9937 -70.9937 -70.9921 -70.9920 -70.9909 -70.9909 -70.9901
   -70.9872 -70.9867 -70.9867 -70.9860 -70.9858 -70.9847 -70.9846 -70.9829
   -36.7567 -36.7536 -36.7536 -36.7514 -36.7514 -36.7511 -36.7481 -36.7462
   -36.7438 -36.7438 -36.7427 -36.7390 -36.7357 -36.7331 -36.7301 -36.7281
   -36.7281 -36.7237 -36.7215 -36.7215 -36.7214 -36.7202 -36.7202 -36.7033
   -36.7027 -36.6897 -36.6897 -36.6859 -36.6859 -36.6843 -36.6822 -36.6819
   -36.6791 -36.6782 -36.6754 -36.6754 -36.6744 -36.6715 -36.6714 -36.6698
   -36.6650 -36.6636 -36.6636 -36.6627 -36.6601 -36.6601 -36.6592 -36.6589
     8.6476   9.1481   9.1481   9.3564   9.4736   9.5758   9.5758   9.7365
     9.7445   9.7445   9.7555   9.7667   9.8465   9.8903   9.8903   9.8920
     9.9718  10.0050  10.0050  10.0400  10.0414  10.0835  10.0975  10.0975
    10.1755  10.1755  10.2175  10.2175  10.2195  10.2731  10.3009  10.3220
    10.3390  10.3553  10.3680  10.4011  10.4011  10.5059  10.5344  10.5485
    10.5793  10.5793  10.6617  10.6617  10.6637  10.6637  10.7100  10.8836
    11.4575  11.4940  11.4940  11.4956  11.5343  11.5793  11.5982  11.6046
    11.6104  11.6104  11.6308  11.6308  11.6376  11.6376  11.6963  11.7223
    11.7582  11.7627  11.7627  11.7698  11.7851  11.7981  11.7982  11.8249
    11.8821  11.9458  11.9595  11.9595  12.0934  12.0934  12.1041  12.2110
    12.2110  12.2148  12.2634  12.4807  12.5610  13.2449  13.2449  14.1142
    15.9668  16.6304  16.6304  16.6594  16.6594  16.9271  17.6321  18.1871
    18.5637  18.5637  18.6940  18.9083  19.0361  19.2512  19.7550  19.7550
    20.2464  20.2995  20.8831  21.2687  21.2693

          k = 0.2427 0.3397-0.4368 ( 22606 PWs)   bands (ev):

   -70.9948 -70.9948 -70.9930 -70.9930 -70.9915 -70.9915 -70.9906 -70.9905
   -70.9869 -70.9869 -70.9863 -70.9863 -70.9852 -70.9852 -70.9837 -70.9837
   -36.7542 -36.7542 -36.7519 -36.7519 -36.7502 -36.7502 -36.7481 -36.7481
   -36.7451 -36.7451 -36.7384 -36.7384 -36.7343 -36.7343 -36.7280 -36.7280
   -36.7267 -36.7267 -36.7257 -36.7257 -36.7239 -36.7239 -36.7117 -36.7117
   -36.6961 -36.6961 -36.6849 -36.6849 -36.6838 -36.6838 -36.6833 -36.6833
   -36.6780 -36.6780 -36.6750 -36.6750 -36.6703 -36.6703 -36.6696 -36.6695
   -36.6690 -36.6690 -36.6633 -36.6633 -36.6593 -36.6593 -36.6592 -36.6592
     8.8977   8.8977   9.2739   9.2739   9.5532   9.5532   9.7643   9.7643
     9.7666   9.7666   9.8336   9.8336   9.8360   9.8360   9.8647   9.8647
     9.9840   9.9841  10.0209  10.0209  10.1099  10.1099  10.1114  10.1114
    10.1643  10.1643  10.2249  10.2249  10.2284  10.2284  10.2746  10.2746
    10.3617  10.3617  10.4404  10.4404  10.4419  10.4419  10.4566  10.4566
    10.5172  10.5172  10.5458  10.5458  10.5997  10.5997  10.6970  10.6970
    11.5598  11.5598  11.5611  11.5611  11.5682  11.5682  11.5846  11.5846
    11.6073  11.6073  11.6602  11.6602  11.6771  11.6771  11.6991  11.6991
    11.7520  11.7520  11.7705  11.7706  11.7911  11.7911  11.7937  11.7937
    11.8137  11.8137  11.9641  11.9641  12.0881  12.0881  12.1891  12.1891
    12.2274  12.2274  12.2450  12.2450  12.8848  12.8848  13.6687  13.6688
    16.3306  16.3307  16.9426  16.9426  17.1408  17.1408  17.6828  17.6828
    18.7576  18.7577  18.7881  18.7881  19.2580  19.2580  19.4655  19.4655
    20.1834  20.1834  20.6797  20.6798  20.9295

          k = 0.2427-0.4368-0.4368 ( 22624 PWs)   bands (ev):

   -70.9940 -70.9940 -70.9940 -70.9940 -70.9911 -70.9911 -70.9911 -70.9910
   -70.9866 -70.9866 -70.9866 -70.9866 -70.9844 -70.9844 -70.9844 -70.9843
   -36.7525 -36.7524 -36.7524 -36.7524 -36.7490 -36.7490 -36.7490 -36.7490
   -36.7418 -36.7418 -36.7418 -36.7418 -36.7310 -36.7310 -36.7310 -36.7310
   -36.7269 -36.7269 -36.7269 -36.7269 -36.7199 -36.7199 -36.7199 -36.7199
   -36.6898 -36.6898 -36.6898 -36.6898 -36.6833 -36.6833 -36.6832 -36.6832
   -36.6731 -36.6731 -36.6731 -36.6731 -36.6723 -36.6723 -36.6722 -36.6722
   -36.6666 -36.6666 -36.6665 -36.6665 -36.6591 -36.6591 -36.6590 -36.6590
     9.0990   9.0990   9.0990   9.0990   9.6925   9.6925   9.6925   9.6925
     9.8462   9.8462   9.8462   9.8462   9.8501   9.8501   9.8501   9.8501
    10.1148  10.1148  10.1148  10.1148  10.1454  10.1454  10.1454  10.1455
    10.1529  10.1529  10.1529  10.1529  10.1900  10.1900  10.1900  10.1900
    10.3338  10.3338  10.3338  10.3338  10.4099  10.4099  10.4099  10.4099
    10.5235  10.5235  10.5235  10.5235  10.5393  10.5393  10.5393  10.5394
    11.5846  11.5846  11.5846  11.5846  11.6252  11.6252  11.6252  11.6252
    11.6766  11.6766  11.6766  11.6767  11.6914  11.6914  11.6914  11.6914
    11.7353  11.7353  11.7354  11.7354  11.8016  11.8016  11.8016  11.8016
    11.9119  11.9119  11.9119  11.9119  12.0002  12.0002  12.0002  12.0002
    12.2455  12.2455  12.2455  12.2456  13.2629  13.2629  13.2629  13.2629
    16.7377  16.7378  16.7378  16.7378  17.7921  17.7921  17.7921  17.7921
    18.4762  18.4762  18.4762  18.4762  19.5727  19.5727  19.5727  19.5727
    20.0130  20.0130  20.0130  20.0130  21.0514

          k = 0.3397 0.3397 0.3397 ( 22583 PWs)   bands (ev):

   -70.9951 -70.9932 -70.9932 -70.9932 -70.9918 -70.9918 -70.9918 -70.9907
   -70.9867 -70.9860 -70.9860 -70.9860 -70.9850 -70.9850 -70.9850 -70.9834
   -36.7519 -36.7519 -36.7519 -36.7499 -36.7499 -36.7499 -36.7439 -36.7437
   -36.7437 -36.7383 -36.7383 -36.7382 -36.7382 -36.7382 -36.7313 -36.7313
   -36.7313 -36.7273 -36.7273 -36.7272 -36.7260 -36.7260 -36.7260 -36.7106
   -36.6963 -36.6845 -36.6845 -36.6845 -36.6803 -36.6803 -36.6803 -36.6763
   -36.6763 -36.6752 -36.6751 -36.6751 -36.6749 -36.6749 -36.6748 -36.6707
   -36.6635 -36.6635 -36.6634 -36.6633 -36.6633 -36.6620 -36.6620 -36.6620
     8.8558   9.3155   9.3155   9.3155   9.5596   9.5596   9.5596   9.8035
     9.8525   9.8525   9.8525   9.8966   9.8966  10.0215  10.0215  10.0215
    10.0258  10.0258  10.0308  10.0309  10.0309  10.0684  10.0684  10.0684
    10.0958  10.2145  10.2145  10.2145  10.2298  10.2298  10.2298  10.2422
    10.2422  10.2422  10.2580  10.2580  10.3901  10.3901  10.4383  10.4383
    10.4383  10.4576  10.4576  10.4576  10.4827  10.4827  10.4827  10.6692
    11.5509  11.5509  11.5509  11.6391  11.6391  11.6391  11.6559  11.6559
    11.6559  11.6564  11.6564  11.6788  11.7140  11.7140  11.7140  11.7378
    11.7378  11.7623  11.7623  11.7623  11.7729  11.7729  11.7729  11.8376
    11.8376  12.0505  12.0505  12.1032  12.1032  12.1032  12.1270  12.1270
    12.1270  12.2124  12.2124  12.2125  12.8520  12.8520  12.8520  13.6575
    16.9597  16.9597  16.9597  17.3914  17.3914  17.3914  18.2995  18.2995
    18.2995  18.5719  18.5719  18.7537  19.1205  19.1205  19.1445  19.8323
    19.8323  19.8323  20.2351  20.2351  20.2351

          k = 0.3397 0.3397-0.4368 ( 22562 PWs)   bands (ev):

   -70.9942 -70.9942 -70.9925 -70.9925 -70.9925 -70.9925 -70.9913 -70.9913
   -70.9864 -70.9863 -70.9855 -70.9855 -70.9855 -70.9855 -70.9842 -70.9841
   -36.7502 -36.7502 -36.7502 -36.7502 -36.7474 -36.7474 -36.7457 -36.7457
   -36.7410 -36.7410 -36.7380 -36.7380 -36.7331 -36.7331 -36.7320 -36.7320
   -36.7320 -36.7320 -36.7311 -36.7311 -36.7311 -36.7311 -36.7182 -36.7182
   -36.6902 -36.6902 -36.6795 -36.6795 -36.6795 -36.6795 -36.6783 -36.6783
   -36.6764 -36.6764 -36.6764 -36.6764 -36.6726 -36.6726 -36.6693 -36.6693
   -36.6685 -36.6685 -36.6631 -36.6631 -36.6631 -36.6631 -36.6621 -36.6621
     9.0941   9.0941   9.4717   9.4717   9.4717   9.4717   9.8061   9.8062
     9.8676   9.8676   9.9569   9.9569   9.9631   9.9631   9.9631   9.9631
    10.0241  10.0241  10.0286  10.0286  10.1069  10.1069  10.1069  10.1069
    10.1884  10.1884  10.1884  10.1884  10.2102  10.2102  10.2352  10.2352
    10.2429  10.2429  10.2478  10.2478  10.3068  10.3068  10.3068  10.3068
    10.3750  10.3750  10.3750  10.3750  10.4446  10.4446  10.4924  10.4924
    11.6066  11.6066  11.6074  11.6074  11.6074  11.6074  11.6874  11.6874
    11.7079  11.7079  11.7079  11.7079  11.7152  11.7152  11.7515  11.7515
    11.7598  11.7598  11.7598  11.7598  11.7606  11.7606  11.8766  11.8766
    11.9264  11.9264  11.9548  11.9548  12.0992  12.0992  12.0992  12.0992
    12.1109  12.1109  12.5138  12.5138  12.5139  12.5139  13.2420  13.2420
    17.3146  17.3146  17.3146  17.3146  17.9469  17.9470  18.0199  18.0199
    18.4658  18.4658  18.9577  18.9577  18.9577  18.9577  19.4460  19.4460
    19.6417  19.6417  19.6722  19.6722  20.3767

          k = 0.3397-0.4368-0.4368 ( 22572 PWs)   bands (ev):

   -70.9935 -70.9934 -70.9934 -70.9934 -70.9920 -70.9919 -70.9919 -70.9919
   -70.9859 -70.9859 -70.9859 -70.9858 -70.9848 -70.9847 -70.9847 -70.9847
   -36.7478 -36.7478 -36.7478 -36.7478 -36.7461 -36.7461 -36.7461 -36.7461
   -36.7366 -36.7366 -36.7366 -36.7366 -36.7365 -36.7365 -36.7365 -36.7365
   -36.7349 -36.7349 -36.7349 -36.7349 -36.7252 -36.7252 -36.7252 -36.7252
   -36.6847 -36.6847 -36.6847 -36.6847 -36.6757 -36.6757 -36.6757 -36.6757
   -36.6756 -36.6756 -36.6756 -36.6756 -36.6709 -36.6709 -36.6709 -36.6709
   -36.6674 -36.6674 -36.6674 -36.6674 -36.6634 -36.6633 -36.6633 -36.6633
     9.3059   9.3059   9.3059   9.3059   9.6854   9.6854   9.6854   9.6854
     9.9781   9.9781   9.9781   9.9781   9.9986   9.9986   9.9986   9.9986
    10.1154  10.1154  10.1154  10.1154  10.1377  10.1377  10.1377  10.1377
    10.1429  10.1429  10.1429  10.1429  10.1632  10.1632  10.1632  10.1632
    10.1899  10.1899  10.1899  10.1899  10.2407  10.2407  10.2407  10.2407
    10.3250  10.3250  10.3250  10.3250  10.3647  10.3647  10.3647  10.3647
    11.6325  11.6325  11.6325  11.6325  11.6576  11.6576  11.6576  11.6576
    11.7150  11.7150  11.7150  11.7150  11.7468  11.7468  11.7468  11.7468
    11.7833  11.7833  11.7833  11.7833  11.8250  11.8250  11.8250  11.8250
    11.9823  11.9823  11.9823  11.9823  12.0851  12.0851  12.0851  12.0851
    12.2016  12.2016  12.2016  12.2016  12.8628  12.8628  12.8628  12.8628
    17.7288  17.7289  17.7289  17.7289  18.2281  18.2281  18.2281  18.2281
    18.6382  18.6382  18.6382  18.6382  19.1820  19.1820  19.1820  19.1820
    19.3575  19.3575  19.3575  19.3575  19.9127

          k =-0.4368-0.4368-0.4368 ( 22496 PWs)   bands (ev):

   -70.9928 -70.9928 -70.9928 -70.9928 -70.9927 -70.9927 -70.9927 -70.9927
   -70.9853 -70.9852 -70.9852 -70.9852 -70.9852 -70.9852 -70.9852 -70.9852
   -36.7419 -36.7419 -36.7419 -36.7419 -36.7419 -36.7419 -36.7419 -36.7419
   -36.7419 -36.7419 -36.7419 -36.7419 -36.7419 -36.7419 -36.7419 -36.7419
   -36.7308 -36.7307 -36.7307 -36.7307 -36.7307 -36.7307 -36.7307 -36.7307
   -36.6799 -36.6799 -36.6799 -36.6799 -36.6799 -36.6799 -36.6799 -36.6799
   -36.6688 -36.6688 -36.6688 -36.6688 -36.6688 -36.6688 -36.6688 -36.6688
   -36.6688 -36.6688 -36.6688 -36.6688 -36.6688 -36.6688 -36.6688 -36.6688
     9.5345   9.5345   9.5345   9.5345   9.5345   9.5345   9.5345   9.5346
    10.1239  10.1239  10.1239  10.1239  10.1239  10.1239  10.1239  10.1239
    10.1239  10.1240  10.1240  10.1240  10.1240  10.1240  10.1240  10.1240
    10.1367  10.1367  10.1367  10.1368  10.1368  10.1368  10.1368  10.1368
    10.1797  10.1797  10.1797  10.1797  10.1797  10.1797  10.1797  10.1797
    10.1797  10.1797  10.1797  10.1797  10.1797  10.1797  10.1797  10.1797
    11.6886  11.6886  11.6886  11.6886  11.6886  11.6886  11.6886  11.6886
    11.6886  11.6886  11.6886  11.6886  11.6886  11.6886  11.6886  11.6886
    11.9239  11.9239  11.9239  11.9240  11.9240  11.9240  11.9240  11.9240
    11.9240  11.9240  11.9240  11.9240  11.9240  11.9240  11.9240  11.9240
    12.5158  12.5158  12.5158  12.5158  12.5158  12.5158  12.5158  12.5158
    18.7571  18.7571  18.7571  18.7571  18.7571  18.7571  18.7571  18.7571
    18.7571  18.7571  18.7571  18.7571  18.7571  18.9096  18.9096  18.9096
    18.9096  18.9096  18.9096  18.9096  18.9096

     the Fermi energy is    12.2901 ev

!    total energy              =   -8191.76040137 Ry

     total all-electron energy =   -161472.187255 Ry
     estimated scf accuracy    <       0.00000019 Ry
     smearing contrib. (-TS)   =       0.16827356 Ry
     internal energy E=F+TS    =   -8191.92867492 Ry

     The total energy is F=E-TS. E is the sum of the following terms:
     one-electron contribution =   -1753.57863306 Ry
     hartree contribution      =    1020.04241865 Ry
     xc contribution           =    -490.93113862 Ry
     ewald contribution        =   -2883.90115777 Ry
     one-center paw contrib.   =   -4083.56016412 Ry

     convergence has been achieved in  13 iterations

     Forces acting on atoms (cartesian axes, Ry/au):

     atom    1 type  1   force =     0.00000000    0.00000000    0.00000000
     atom    2 type  1   force =     0.00000091    0.00000091    0.00000091
     atom    3 type  1   force =     0.00000000    0.00000000    0.00000000
     atom    4 type  1   force =     0.00000091    0.00000091   -0.00000091
     atom    5 type  1   force =     0.00000000    0.00000000    0.00000000
     atom    6 type  1   force =     0.00000091   -0.00000091    0.00000091
     atom    7 type  1   force =     0.00000000    0.00000000    0.00000000
     atom    8 type  1   force =     0.00000091   -0.00000091   -0.00000091
     atom    9 type  1   force =     0.00000000    0.00000000    0.00000000
     atom   10 type  1   force =    -0.00000091    0.00000091    0.00000091
     atom   11 type  1   force =     0.00000000    0.00000000    0.00000000
     atom   12 type  1   force =    -0.00000091    0.00000091   -0.00000091
     atom   13 type  1   force =     0.00000000    0.00000000    0.00000000
     atom   14 type  1   force =    -0.00000091   -0.00000091    0.00000091
     atom   15 type  1   force =     0.00000000    0.00000000    0.00000000
     atom   16 type  1   force =    -0.00000091   -0.00000091   -0.00000091

     Total force =     0.000004     Total SCF correction =     0.000281
     SCF correction compared to forces is large: reduce conv_thr to get better values


     Computing stress (Cartesian axis) and pressure

          total   stress  (Ry/bohr**3)                   (kbar)     P=     -231.99
  -0.00157706   0.00000000   0.00000000         -231.99        0.00        0.00
   0.00000000  -0.00157706   0.00000000            0.00     -231.99        0.00
   0.00000000   0.00000000  -0.00157706            0.00        0.00     -231.99


     Writing output data file /scratch/BNZJBVpAQnzvccok.save/
 
     init_run     :      3.80s CPU      3.94s WALL (       1 calls)
     electrons    :    194.73s CPU    197.82s WALL (       1 calls)
     forces       :      1.40s CPU      1.43s WALL (       1 calls)
     stress       :      4.80s CPU      4.83s WALL (       1 calls)

     Called by init_run:
     wfcinit      :      3.49s CPU      3.58s WALL (       1 calls)
     potinit      :      0.10s CPU      0.12s WALL (       1 calls)
     hinit0       :      0.05s CPU      0.06s WALL (       1 calls)

     Called by electrons:
     c_bands      :    171.59s CPU    174.05s WALL (      14 calls)
     sum_band     :     21.96s CPU     22.41s WALL (      14 calls)
     v_of_rho     :      0.14s CPU      0.15s WALL (      14 calls)
     newd         :      0.24s CPU      0.29s WALL (      14 calls)
     PAW_pot      :      0.79s CPU      0.87s WALL (      14 calls)
     mix_rho      :      0.04s CPU      0.05s WALL (      14 calls)

     Called by c_bands:
     init_us_2    :      0.66s CPU      0.71s WALL (    1085 calls)
     cegterg      :    168.76s CPU    171.14s WALL (     490 calls)

     Called by *egterg:
     cdiaghg      :     23.11s CPU     23.40s WALL (    1410 calls)
     h_psi        :    101.48s CPU    103.22s WALL (    1480 calls)
     s_psi        :      3.34s CPU      3.38s WALL (    1480 calls)
     g_psi        :      0.15s CPU      0.15s WALL (     955 calls)

     Called by h_psi:
     h_psi:calbec :      7.77s CPU      7.85s WALL (    1480 calls)
     vloc_psi     :     89.88s CPU     91.48s WALL (    1480 calls)
     add_vuspsi   :      3.49s CPU      3.53s WALL (    1480 calls)

     General routines
     calbec       :     12.56s CPU     12.67s WALL (    2145 calls)
     fft          :      0.15s CPU      0.17s WALL (     206 calls)
     ffts         :      0.01s CPU      0.01s WALL (      28 calls)
     fftw         :    105.41s CPU    107.25s WALL (  483352 calls)
     interpolate  :      0.02s CPU      0.03s WALL (      14 calls)
 
     Parallel routines
     fft_scatt_xy :      3.66s CPU      3.73s WALL (  483586 calls)
     fft_scatt_yz :     94.83s CPU     96.50s WALL (  483586 calls)
 
     PWSCF        :   3m30.72s CPU   3m35.03s WALL

 
   This run was terminated on:  23:29:16  29Nov2021            

=------------------------------------------------------------------------------=
   JOB DONE.
=------------------------------------------------------------------------------=
