
     Program PWSCF v.6.7MaX starts on 29Nov2021 at 23:22: 5 

     This program is part of the open-source Quantum ESPRESSO suite
     for quantum simulation of materials; please cite
         "P. Giannozzi et al., J. Phys.:Condens. Matter 21 395502 (2009);
         "P. Giannozzi et al., J. Phys.:Condens. Matter 29 465901 (2017);
          URL http://www.quantum-espresso.org", 
     in publications or presentations arising from this work. More details at
     http://www.quantum-espresso.org/quote

     Parallel version (MPI & OpenMP), running on      72 processor cores
     Number of MPI processes:                72
     Threads/MPI process:                     1

     MPI processes distributed on     1 nodes
     R & G space division:  proc/nbgrp/npool/nimage =      72
     Reading input from bcc_6.in
Warning: card &CELL ignored
Warning: card CELL_DYNAMICS = 'BFGS', ignored
Warning: card CELL_FACTOR = 2.0, ignored
Warning: card PRESS = 0.0, ignored
Warning: card / ignored

     Current dimensions of program PWSCF are:
     Max number of different atomic species (ntypx) = 10
     Max number of k-points (npk) =  40000
     Max angular momentum in pseudopotentials (lmaxx) =  3
     file Pd.pbe-spn-kjpaw_psl.1.0.0.UPF: wavefunction(s)  4S 5S 4D renormalized

     Subspace diagonalization in iterative solution of the eigenvalue problem:
     one sub-group per band group will be used
     ELPA distributed-memory algorithm (size of sub-group:  8*  8 procs)

     Found symmetry operation: I + (  0.2500  0.2500  0.2500)
     This is a supercell, fractional translations are disabled
     Message from routine setup:
     using ibrav=0 with symmetry is DISCOURAGED, use correct ibrav instead
 
     Parallelization info
     --------------------
     sticks:   dense  smooth     PW     G-vecs:    dense   smooth      PW
     Min          72      47     13                 3920     2099     305
     Max          73      48     14                 3925     2106     310
     Sum        5193    3433    949               282353   151323   22119
 


     bravais-lattice index     =            0
     lattice parameter (alat)  =      11.4293  a.u.
     unit-cell volume          =    1875.2423 (a.u.)^3
     number of atoms/cell      =           16
     number of atomic types    =            1
     number of electrons       =       288.00
     number of Kohn-Sham states=          173
     kinetic-energy cutoff     =      71.0000  Ry
     charge density cutoff     =     430.0000  Ry
     scf convergence threshold =      1.0E-06
     mixing beta               =       0.1000
     number of iterations used =           10  TF        mixing
     Exchange-correlation= SLA  PW   PBX  PBC
                           (   1   4   3   4   0   0   0)

     celldm(1)=  11.429280  celldm(2)=   0.000000  celldm(3)=   0.000000
     celldm(4)=   0.000000  celldm(5)=   0.000000  celldm(6)=   0.000000

     crystal axes: (cart. coord. in units of alat)
               a(1) = (   1.078947   0.000000   0.000000 )  
               a(2) = (   0.000000   1.078947   0.000000 )  
               a(3) = (   0.000000   0.000000   1.078947 )  

     reciprocal axes: (cart. coord. in units 2 pi/alat)
               b(1) = (  0.926829  0.000000  0.000000 )  
               b(2) = (  0.000000  0.926829  0.000000 )  
               b(3) = (  0.000000  0.000000  0.926829 )  


     PseudoPot. # 1 for Pd read from file:
     /rds/homes/b/bxp912/pp/Pd.pbe-spn-kjpaw_psl.1.0.0.UPF
     MD5 check sum: 790f2ebce206edfd9790dcb9844eca51
     Pseudo is Projector augmented-wave + core cor, Zval = 18.0
     Generated using &quot;atomic&quot; code by A. Dal Corso  v.6.3
     Shape of augmentation charge: PSQ
     Using radial grid of 1235 points,  6 beta functions with: 
                l(1) =   0
                l(2) =   0
                l(3) =   1
                l(4) =   1
                l(5) =   2
                l(6) =   2
     Q(r) pseudized with 0 coefficients 


     atomic species   valence    mass     pseudopotential
        Pd            18.00   106.42000     Pd( 1.00)

     48 Sym. Ops., with inversion, found



   Cartesian axes

     site n.     atom                  positions (alat units)
         1           Pd  tau(   1) = (   0.0000000   0.0000000   0.0000000  )
         2           Pd  tau(   2) = (   0.2697368   0.2697368   0.2697368  )
         3           Pd  tau(   3) = (   0.0000000   0.0000000   0.5394737  )
         4           Pd  tau(   4) = (   0.2697368   0.2697368   0.8092105  )
         5           Pd  tau(   5) = (   0.0000000   0.5394737   0.0000000  )
         6           Pd  tau(   6) = (   0.2697368   0.8092105   0.2697368  )
         7           Pd  tau(   7) = (   0.0000000   0.5394737   0.5394737  )
         8           Pd  tau(   8) = (   0.2697368   0.8092105   0.8092105  )
         9           Pd  tau(   9) = (   0.5394737   0.0000000   0.0000000  )
        10           Pd  tau(  10) = (   0.8092105   0.2697368   0.2697368  )
        11           Pd  tau(  11) = (   0.5394737   0.0000000   0.5394737  )
        12           Pd  tau(  12) = (   0.8092105   0.2697368   0.8092105  )
        13           Pd  tau(  13) = (   0.5394737   0.5394737   0.0000000  )
        14           Pd  tau(  14) = (   0.8092105   0.8092105   0.2697368  )
        15           Pd  tau(  15) = (   0.5394737   0.5394737   0.5394737  )
        16           Pd  tau(  16) = (   0.8092105   0.8092105   0.8092105  )

     number of k points=    35  Marzari-Vanderbilt smearing, width (Ry)=  0.0400
                       cart. coord. in units 2pi/alat
        k(    1) = (   0.0514905   0.0514905   0.0514905), wk =   0.0219479
        k(    2) = (   0.0514905   0.0514905   0.1544715), wk =   0.0658436
        k(    3) = (   0.0514905   0.0514905   0.2574526), wk =   0.0658436
        k(    4) = (   0.0514905   0.0514905   0.3604336), wk =   0.0658436
        k(    5) = (   0.0514905   0.0514905  -0.4634146), wk =   0.0329218
        k(    6) = (   0.0514905   0.1544715   0.1544715), wk =   0.0658436
        k(    7) = (   0.0514905   0.1544715   0.2574526), wk =   0.1316872
        k(    8) = (   0.0514905   0.1544715   0.3604336), wk =   0.1316872
        k(    9) = (   0.0514905   0.1544715  -0.4634146), wk =   0.0658436
        k(   10) = (   0.0514905   0.2574526   0.2574526), wk =   0.0658436
        k(   11) = (   0.0514905   0.2574526   0.3604336), wk =   0.1316872
        k(   12) = (   0.0514905   0.2574526  -0.4634146), wk =   0.0658436
        k(   13) = (   0.0514905   0.3604336   0.3604336), wk =   0.0658436
        k(   14) = (   0.0514905   0.3604336  -0.4634146), wk =   0.0658436
        k(   15) = (   0.0514905  -0.4634146  -0.4634146), wk =   0.0164609
        k(   16) = (   0.1544715   0.1544715   0.1544715), wk =   0.0219479
        k(   17) = (   0.1544715   0.1544715   0.2574526), wk =   0.0658436
        k(   18) = (   0.1544715   0.1544715   0.3604336), wk =   0.0658436
        k(   19) = (   0.1544715   0.1544715  -0.4634146), wk =   0.0329218
        k(   20) = (   0.1544715   0.2574526   0.2574526), wk =   0.0658436
        k(   21) = (   0.1544715   0.2574526   0.3604336), wk =   0.1316872
        k(   22) = (   0.1544715   0.2574526  -0.4634146), wk =   0.0658436
        k(   23) = (   0.1544715   0.3604336   0.3604336), wk =   0.0658436
        k(   24) = (   0.1544715   0.3604336  -0.4634146), wk =   0.0658436
        k(   25) = (   0.1544715  -0.4634146  -0.4634146), wk =   0.0164609
        k(   26) = (   0.2574526   0.2574526   0.2574526), wk =   0.0219479
        k(   27) = (   0.2574526   0.2574526   0.3604336), wk =   0.0658436
        k(   28) = (   0.2574526   0.2574526  -0.4634146), wk =   0.0329218
        k(   29) = (   0.2574526   0.3604336   0.3604336), wk =   0.0658436
        k(   30) = (   0.2574526   0.3604336  -0.4634146), wk =   0.0658436
        k(   31) = (   0.2574526  -0.4634146  -0.4634146), wk =   0.0164609
        k(   32) = (   0.3604336   0.3604336   0.3604336), wk =   0.0219479
        k(   33) = (   0.3604336   0.3604336  -0.4634146), wk =   0.0329218
        k(   34) = (   0.3604336  -0.4634146  -0.4634146), wk =   0.0164609
        k(   35) = (  -0.4634146  -0.4634146  -0.4634146), wk =   0.0027435

     Dense  grid:   282353 G-vectors     FFT dimensions: (  81,  81,  81)

     Smooth grid:   151323 G-vectors     FFT dimensions: (  72,  72,  72)

     Estimated max dynamical RAM per process >      44.55 MB

     Estimated total dynamical RAM >       3.13 GB

     Check: negative core charge=   -0.000001

     Initial potential from superposition of free atoms

     starting charge  287.99388, renormalised to  288.00000
     Starting wfcs are  160 randomized atomic wfcs +   13 random wfcs
     Checking if some PAW data can be deallocated... 

     total cpu time spent up to now is        7.0 secs

     Self-consistent Calculation

     iteration #  1     ecut=    71.00 Ry     beta= 0.10
     Davidson diagonalization with overlap
     ethr =  1.00E-02,  avg # of iterations =  3.1

     Threshold (ethr) on eigenvalues was too large:
     Diagonalizing with lowered threshold

     Davidson diagonalization with overlap
     ethr =  2.35E-04,  avg # of iterations =  2.0

     total cpu time spent up to now is       36.9 secs

     total energy              =   -8192.36405138 Ry
     estimated scf accuracy    <       0.65008406 Ry

     iteration #  2     ecut=    71.00 Ry     beta= 0.10
     Davidson diagonalization with overlap
     ethr =  2.26E-04,  avg # of iterations =  1.0

     total cpu time spent up to now is       48.8 secs

     total energy              =   -8192.18778859 Ry
     estimated scf accuracy    <       0.45289044 Ry

     iteration #  3     ecut=    71.00 Ry     beta= 0.10
     Davidson diagonalization with overlap
     ethr =  1.57E-04,  avg # of iterations =  2.0

     total cpu time spent up to now is       65.1 secs

     total energy              =   -8192.25226965 Ry
     estimated scf accuracy    <       0.02205675 Ry

     iteration #  4     ecut=    71.00 Ry     beta= 0.10
     Davidson diagonalization with overlap
     ethr =  7.66E-06,  avg # of iterations =  2.5

     total cpu time spent up to now is       83.9 secs

     total energy              =   -8192.24567497 Ry
     estimated scf accuracy    <       0.01595956 Ry

     iteration #  5     ecut=    71.00 Ry     beta= 0.10
     Davidson diagonalization with overlap
     ethr =  5.54E-06,  avg # of iterations =  2.2

     total cpu time spent up to now is      103.1 secs

     total energy              =   -8192.25020904 Ry
     estimated scf accuracy    <       0.01563484 Ry

     iteration #  6     ecut=    71.00 Ry     beta= 0.10
     Davidson diagonalization with overlap
     ethr =  5.43E-06,  avg # of iterations =  1.0

     total cpu time spent up to now is      114.5 secs

     total energy              =   -8192.25046883 Ry
     estimated scf accuracy    <       0.00284026 Ry

     iteration #  7     ecut=    71.00 Ry     beta= 0.10
     Davidson diagonalization with overlap
     ethr =  9.86E-07,  avg # of iterations =  1.2

     total cpu time spent up to now is      125.5 secs

     total energy              =   -8192.25064357 Ry
     estimated scf accuracy    <       0.00144624 Ry

     iteration #  8     ecut=    71.00 Ry     beta= 0.10
     Davidson diagonalization with overlap
     ethr =  5.02E-07,  avg # of iterations =  1.0

     total cpu time spent up to now is      136.2 secs

     total energy              =   -8192.25025429 Ry
     estimated scf accuracy    <       0.00116482 Ry

     iteration #  9     ecut=    71.00 Ry     beta= 0.10
     Davidson diagonalization with overlap
     ethr =  4.04E-07,  avg # of iterations =  2.0

     total cpu time spent up to now is      151.2 secs

     total energy              =   -8192.25037215 Ry
     estimated scf accuracy    <       0.00005895 Ry

     iteration # 10     ecut=    71.00 Ry     beta= 0.10
     Davidson diagonalization with overlap
     ethr =  2.05E-08,  avg # of iterations =  2.1

     total cpu time spent up to now is      166.8 secs

     total energy              =   -8192.25039941 Ry
     estimated scf accuracy    <       0.00001211 Ry

     iteration # 11     ecut=    71.00 Ry     beta= 0.10
     Davidson diagonalization with overlap
     ethr =  4.21E-09,  avg # of iterations =  2.2

     total cpu time spent up to now is      177.4 secs

     total energy              =   -8192.25039559 Ry
     estimated scf accuracy    <       0.00002675 Ry

     iteration # 12     ecut=    71.00 Ry     beta= 0.10
     Davidson diagonalization with overlap
     ethr =  4.21E-09,  avg # of iterations =  2.0

     total cpu time spent up to now is      189.0 secs

     total energy              =   -8192.25039623 Ry
     estimated scf accuracy    <       0.00000487 Ry

     iteration # 13     ecut=    71.00 Ry     beta= 0.10
     Davidson diagonalization with overlap
     ethr =  1.69E-09,  avg # of iterations =  2.0

     total cpu time spent up to now is      201.7 secs

     End of self-consistent calculation

          k = 0.0515 0.0515 0.0515 ( 18991 PWs)   bands (ev):

   -67.7753 -67.7513 -67.7513 -67.7513 -67.7479 -67.7479 -67.7479 -67.7475
   -67.7475 -67.7475 -67.7470 -67.7470 -67.7470 -67.7463 -67.7462 -67.7259
   -33.5936 -33.5936 -33.5936 -33.5923 -33.5923 -33.5923 -33.5376 -33.5376
   -33.5351 -33.4964 -33.4940 -33.4940 -33.4940 -33.4862 -33.4862 -33.4792
   -33.4792 -33.4792 -33.4660 -33.4660 -33.4568 -33.4568 -33.4568 -33.4562
   -33.4513 -33.4513 -33.4513 -33.4475 -33.4475 -33.4475 -33.4462 -33.4462
   -33.4462 -33.4417 -33.4417 -33.4417 -33.4365 -33.4364 -33.4364 -33.3671
   -33.3646 -33.3646 -33.3639 -33.3639 -33.3639 -33.3626 -33.3626 -33.3626
     9.9657  11.7583  11.7583  11.7583  11.7688  11.7688  11.7688  11.8857
    11.8857  12.5659  12.5659  12.5659  12.6749  12.6749  12.6749  12.6870
    12.6870  12.6870  12.7528  12.7528  12.7528  12.9376  13.0349  13.0349
    13.2135  13.2135  13.2590  13.2590  13.2590  13.2916  13.5261  13.5261
    13.5261  13.5871  13.5871  13.6239  13.9836  13.9836  13.9836  14.0654
    14.0654  14.0654  14.1473  14.1473  14.1473  14.2239  14.2239  14.2239
    14.7131  14.7131  14.7131  14.9240  14.9240  14.9240  15.0728  15.0728
    15.0728  15.0849  15.0849  15.0849  15.1546  15.1546  15.2398  15.2398
    15.2398  15.3245  15.3245  15.3246  15.3579  15.3579  15.3579  15.3579
    15.9677  16.0301  16.0301  16.2250  16.2250  16.2250  16.2642  16.2642
    16.2642  16.2778  16.2778  16.2778  16.8533  16.8533  16.8533  17.5167
    17.5167  17.5167  17.7551  17.7551  17.7551  22.5801  22.5801  22.5801
    22.7667  22.7667  22.7667  23.1185  23.5591  24.0442  24.0442  24.1468
    24.5085  24.5101  24.5101  24.9843  24.9843

          k = 0.0515 0.0515 0.1545 ( 18984 PWs)   bands (ev):

   -67.7745 -67.7557 -67.7512 -67.7512 -67.7484 -67.7484 -67.7478 -67.7475
   -67.7473 -67.7472 -67.7470 -67.7470 -67.7464 -67.7463 -67.7428 -67.7266
   -33.5907 -33.5907 -33.5899 -33.5889 -33.5868 -33.5868 -33.5388 -33.5350
   -33.5310 -33.5112 -33.5078 -33.5078 -33.5068 -33.5063 -33.4935 -33.4935
   -33.4803 -33.4719 -33.4691 -33.4661 -33.4628 -33.4567 -33.4567 -33.4493
   -33.4490 -33.4490 -33.4479 -33.4462 -33.4449 -33.4449 -33.4420 -33.4419
   -33.4410 -33.4382 -33.4382 -33.4269 -33.4238 -33.4238 -33.4219 -33.3729
   -33.3679 -33.3679 -33.3670 -33.3670 -33.3660 -33.3655 -33.3639 -33.3639
    10.0689  11.7941  11.7941  11.8254  11.8254  11.8304  11.8396  11.9293
    11.9445  12.2394  12.5397  12.5397  12.6741  12.6859  12.7123  12.7124
    12.7223  12.7223  12.7484  12.7484  12.7938  12.8175  12.8997  12.9916
    13.0011  13.1072  13.2533  13.2533  13.4388  13.4540  13.4739  13.4739
    13.5713  13.5896  13.6761  13.7321  13.8084  13.8084  13.8472  13.9583
    13.9583  14.0052  14.2284  14.2285  14.3224  14.3224  14.3425  14.4281
    14.5088  14.9174  14.9174  14.9726  14.9726  15.0417  15.0417  15.0603
    15.0603  15.0894  15.0998  15.1002  15.1229  15.1229  15.1357  15.1767
    15.2184  15.2360  15.2360  15.3266  15.3399  15.3400  15.3560  15.3565
    15.7981  15.8323  15.8871  15.8966  15.9255  16.0224  16.1423  16.1423
    16.2462  16.2462  16.3101  16.3101  16.9241  16.9241  17.2407  17.2407
    17.6138  17.8642  17.8642  18.0341  18.2434  22.4473  22.5813  22.7739
    22.7849  22.7849  23.1154  23.2655  23.2854  23.2854  23.8719  23.8880
    24.7305  24.7364  24.7378  25.3068  25.9248

          k = 0.0515 0.0515 0.2575 ( 18951 PWs)   bands (ev):

   -67.7728 -67.7599 -67.7509 -67.7509 -67.7489 -67.7489 -67.7476 -67.7473
   -67.7471 -67.7471 -67.7470 -67.7469 -67.7466 -67.7464 -67.7389 -67.7279
   -33.5836 -33.5836 -33.5828 -33.5819 -33.5773 -33.5773 -33.5381 -33.5297
   -33.5280 -33.5256 -33.5254 -33.5254 -33.5246 -33.5174 -33.5119 -33.5119
   -33.4863 -33.4803 -33.4750 -33.4679 -33.4559 -33.4559 -33.4529 -33.4509
   -33.4505 -33.4505 -33.4450 -33.4440 -33.4440 -33.4420 -33.4420 -33.4274
   -33.4244 -33.4227 -33.4227 -33.4128 -33.4093 -33.4093 -33.4080 -33.3826
   -33.3744 -33.3743 -33.3733 -33.3725 -33.3720 -33.3694 -33.3680 -33.3680
    10.2716  11.8197  11.8740  11.8740  11.9261  11.9261  11.9687  11.9750
    12.0158  12.0569  12.4514  12.4514  12.6053  12.6053  12.6750  12.6869
    12.7070  12.7187  12.7388  12.7979  12.7979  12.8031  12.8460  12.8576
    12.8577  12.9522  13.3486  13.3486  13.4740  13.4740  13.5683  13.5964
    13.6332  13.6332  13.7100  13.7130  13.7155  13.7155  13.7366  13.7391
    13.7533  14.1729  14.3163  14.4503  14.4503  14.4750  14.4750  14.5719
    14.6545  14.6545  14.6674  14.8410  14.8410  14.9786  14.9786  14.9924
    15.0947  15.0947  15.1127  15.1206  15.1287  15.1768  15.1768  15.2197
    15.3048  15.3064  15.3070  15.3305  15.3416  15.3524  15.3545  15.3760
    15.3760  15.5284  15.6291  15.6394  15.7351  15.9591  16.0242  16.0242
    16.1675  16.1675  16.3764  16.3765  16.9946  16.9946  17.0592  17.0592
    17.8182  17.8182  18.5275  18.7069  18.9150  21.7348  22.2062  22.5893
    22.7951  22.9115  22.9811  23.3571  23.3571  23.4334  24.0524  24.0524
    25.1540  25.1689  25.6296  26.1321  26.8514

          k = 0.0515 0.0515 0.3604 ( 18921 PWs)   bands (ev):

   -67.7705 -67.7639 -67.7505 -67.7505 -67.7494 -67.7494 -67.7474 -67.7471
   -67.7470 -67.7470 -67.7469 -67.7469 -67.7468 -67.7466 -67.7354 -67.7298
   -33.5728 -33.5728 -33.5725 -33.5720 -33.5643 -33.5643 -33.5444 -33.5434
   -33.5430 -33.5430 -33.5359 -33.5308 -33.5308 -33.5255 -33.5219 -33.5162
   -33.4998 -33.4936 -33.4694 -33.4646 -33.4578 -33.4552 -33.4548 -33.4548
   -33.4520 -33.4520 -33.4433 -33.4433 -33.4422 -33.4422 -33.4271 -33.4102
   -33.4085 -33.4079 -33.4079 -33.3999 -33.3956 -33.3956 -33.3956 -33.3950
   -33.3832 -33.3832 -33.3825 -33.3823 -33.3793 -33.3759 -33.3747 -33.3747
    10.5663  11.3690  11.9931  11.9931  12.0663  12.0663  12.1433  12.1614
    12.1614  12.2116  12.3055  12.3055  12.4267  12.4267  12.5092  12.5710
    12.5720  12.6289  12.6820  12.6966  12.7390  12.8047  12.9287  12.9287
    13.0112  13.0112  13.3011  13.3011  13.4042  13.4042  13.5796  13.6113
    13.6388  13.6388  13.6603  13.6818  13.7861  13.7861  13.8569  14.0302
    14.0358  14.1408  14.2854  14.2854  14.4131  14.4811  14.4811  14.6306
    14.6306  14.6632  14.6632  14.7943  14.8300  14.8330  14.8371  14.8856
    14.8856  14.9329  14.9831  14.9831  15.1631  15.1698  15.2619  15.2638
    15.2829  15.3358  15.3474  15.3538  15.3783  15.3873  15.4341  15.4341
    15.4792  15.4877  15.5344  15.6251  15.6251  15.8509  15.8664  15.8664
    16.0323  16.0323  16.4789  16.4789  16.7890  16.7890  17.2442  17.2442
    17.6626  17.6626  19.4404  19.5548  19.6684  20.9791  21.3240  21.7974
    22.6150  22.7893  22.8446  23.1282  24.2071  24.2071  24.9988  24.9988
    25.7488  25.7762  26.4082  26.4082  26.6176

          k = 0.0515 0.0515-0.4634 ( 18924 PWs)   bands (ev):

   -67.7675 -67.7674 -67.7500 -67.7500 -67.7500 -67.7500 -67.7472 -67.7471
   -67.7470 -67.7469 -67.7469 -67.7469 -67.7469 -67.7468 -67.7324 -67.7323
   -33.5593 -33.5593 -33.5593 -33.5592 -33.5591 -33.5591 -33.5590 -33.5590
   -33.5486 -33.5486 -33.5486 -33.5486 -33.5318 -33.5317 -33.5118 -33.5118
   -33.5057 -33.5057 -33.4636 -33.4635 -33.4600 -33.4599 -33.4535 -33.4535
   -33.4535 -33.4535 -33.4426 -33.4426 -33.4426 -33.4426 -33.4102 -33.4101
   -33.3949 -33.3949 -33.3946 -33.3946 -33.3945 -33.3945 -33.3944 -33.3944
   -33.3886 -33.3885 -33.3849 -33.3848 -33.3840 -33.3840 -33.3839 -33.3839
    10.9394  10.9394  12.1425  12.1425  12.1425  12.1425  12.2378  12.2378
    12.2378  12.2378  12.3090  12.3090  12.3750  12.3750  12.3899  12.3899
    12.3912  12.3912  12.7010  12.7010  12.7270  12.7270  13.0997  13.0997
    13.0997  13.0997  13.2023  13.2023  13.2023  13.2023  13.6086  13.6086
    13.6387  13.6387  13.9268  13.9268  13.9268  13.9268  13.9867  13.9867
    14.1029  14.1029  14.1029  14.1030  14.4027  14.4027  14.4061  14.4061
    14.6407  14.6408  14.7695  14.7695  14.7695  14.7695  14.8433  14.8433
    14.8433  14.8433  15.1046  15.1046  15.2120  15.2121  15.2122  15.2122
    15.2161  15.2161  15.3416  15.3416  15.3591  15.3591  15.3669  15.3669
    15.6677  15.6677  15.6677  15.6678  15.7067  15.7067  15.8482  15.8482
    15.8482  15.8482  16.6172  16.6172  16.6172  16.6172  17.4561  17.4561
    17.4561  17.4561  20.2053  20.2053  20.4754  20.4754  20.6585  20.6585
    22.6747  22.6747  22.9450  22.9450  25.2450  25.2450  25.2450  25.2450
    26.0757  26.0757  26.0757  26.0757  26.4867

          k = 0.0515 0.1545 0.1545 ( 18976 PWs)   bands (ev):

   -67.7737 -67.7554 -67.7554 -67.7510 -67.7496 -67.7483 -67.7483 -67.7472
   -67.7472 -67.7470 -67.7466 -67.7463 -67.7462 -67.7430 -67.7430 -67.7272
   -33.5902 -33.5872 -33.5872 -33.5837 -33.5837 -33.5789 -33.5413 -33.5332
   -33.5243 -33.5209 -33.5199 -33.5199 -33.5160 -33.5126 -33.5025 -33.4846
   -33.4773 -33.4773 -33.4714 -33.4714 -33.4646 -33.4586 -33.4531 -33.4527
   -33.4527 -33.4511 -33.4511 -33.4466 -33.4466 -33.4431 -33.4412 -33.4386
   -33.4298 -33.4288 -33.4274 -33.4274 -33.4155 -33.4100 -33.4100 -33.3814
   -33.3742 -33.3705 -33.3705 -33.3691 -33.3671 -33.3671 -33.3643 -33.3626
    10.1701  11.8043  11.8660  11.8660  11.8938  11.8938  11.8980  11.9780
    11.9970  12.2385  12.2385  12.5342  12.7103  12.7103  12.7111  12.7232
    12.7252  12.7451  12.7451  12.7724  12.7724  12.8196  12.8333  13.0199
    13.0199  13.0214  13.1795  13.1941  13.3748  13.4720  13.4960  13.5265
    13.5856  13.6097  13.6097  13.7081  13.7081  13.7617  13.8068  13.9105
    14.1396  14.1396  14.2079  14.2079  14.2686  14.3551  14.4649  14.4649
    14.7140  14.7140  14.7327  14.9492  14.9492  14.9492  15.0479  15.0549
    15.0549  15.0582  15.0582  15.0737  15.0895  15.1605  15.2051  15.2051
    15.2458  15.3092  15.3269  15.3269  15.3277  15.3278  15.3487  15.3503
    15.6510  15.7530  15.7530  15.8473  15.8877  15.8877  15.9553  15.9553
    15.9587  16.0470  16.2776  16.3660  16.6775  17.0176  17.7185  17.7185
    17.7448  17.7448  18.2943  18.2943  18.3804  21.7595  22.5218  22.6013
    22.7940  22.7940  23.3052  23.3052  23.8363  24.0026  24.0734  24.1229
    24.2668  24.3910  24.9448  25.1918  26.5379

          k = 0.0515 0.1545 0.2575 ( 18966 PWs)   bands (ev):

   -67.7721 -67.7595 -67.7549 -67.7508 -67.7507 -67.7488 -67.7481 -67.7471
   -67.7470 -67.7469 -67.7468 -67.7464 -67.7453 -67.7432 -67.7392 -67.7285
   -33.5858 -33.5805 -33.5804 -33.5776 -33.5749 -33.5672 -33.5431 -33.5361
   -33.5330 -33.5294 -33.5292 -33.5281 -33.5274 -33.5167 -33.5157 -33.4961
   -33.4856 -33.4807 -33.4698 -33.4671 -33.4637 -33.4598 -33.4591 -33.4571
   -33.4553 -33.4531 -33.4495 -33.4457 -33.4439 -33.4377 -33.4369 -33.4284
   -33.4235 -33.4171 -33.4166 -33.4136 -33.4046 -33.3974 -33.3967 -33.3930
   -33.3829 -33.3760 -33.3757 -33.3739 -33.3733 -33.3705 -33.3657 -33.3641
    10.3687  11.8514  11.8531  11.9439  11.9910  12.0031  12.0092  12.0226
    12.0626  12.1083  12.2096  12.4763  12.6162  12.6415  12.6605  12.6913
    12.7095  12.7182  12.7438  12.7861  12.7927  12.8097  12.8483  12.9476
    12.9647  13.0783  13.1605  13.2112  13.3194  13.4282  13.4902  13.5673
    13.5894  13.6605  13.6701  13.6963  13.7012  13.7213  13.7777  13.8724
    13.8788  14.3130  14.3539  14.4029  14.4399  14.4457  14.4832  14.5161
    14.5256  14.6158  14.6586  14.8047  14.8336  14.8638  14.9538  14.9756
    14.9889  15.0015  15.0056  15.0681  15.0830  15.1196  15.1923  15.1971
    15.2691  15.2935  15.2945  15.3461  15.3517  15.4151  15.4162  15.4491
    15.5223  15.5684  15.6228  15.6502  15.6633  15.7305  15.7652  15.8913
    15.9425  16.0329  16.2435  16.2935  16.4823  17.1931  17.4432  17.9103
    18.1805  18.3764  18.6365  18.6575  18.9122  21.0918  21.8322  22.8193
    22.8464  23.1034  23.3525  23.3812  23.5040  24.0826  24.1808  24.5001
    24.8780  25.0133  25.3514  25.8074  26.8472

          k = 0.0515 0.1545 0.3604 ( 18933 PWs)   bands (ev):

   -67.7698 -67.7634 -67.7541 -67.7520 -67.7503 -67.7493 -67.7478 -67.7472
   -67.7469 -67.7469 -67.7468 -67.7465 -67.7446 -67.7435 -67.7358 -67.7303
   -33.5774 -33.5707 -33.5705 -33.5689 -33.5630 -33.5523 -33.5519 -33.5458
   -33.5439 -33.5433 -33.5430 -33.5364 -33.5328 -33.5204 -33.5158 -33.5055
   -33.4988 -33.4808 -33.4744 -33.4674 -33.4614 -33.4610 -33.4609 -33.4584
   -33.4551 -33.4536 -33.4450 -33.4443 -33.4414 -33.4347 -33.4300 -33.4213
   -33.4081 -33.4071 -33.4045 -33.4044 -33.4011 -33.3938 -33.3936 -33.3862
   -33.3848 -33.3836 -33.3831 -33.3824 -33.3809 -33.3761 -33.3698 -33.3682
    10.6561  11.4280  11.9342  12.0590  12.1269  12.1363  12.1531  12.1840
    12.1913  12.1937  12.2637  12.3521  12.4764  12.4970  12.5151  12.5190
    12.5941  12.6295  12.7168  12.7570  12.8197  12.8923  12.9164  12.9231
    12.9881  13.1389  13.2224  13.2282  13.2505  13.3812  13.4729  13.5096
    13.6013  13.6291  13.6618  13.7319  13.7918  13.8888  13.9328  13.9513
    14.0043  14.0522  14.2570  14.3281  14.4252  14.4981  14.5884  14.6002
    14.6019  14.6288  14.6375  14.6400  14.6536  14.6739  14.7754  14.8675
    14.8954  14.8967  14.9620  15.0329  15.1304  15.1475  15.1476  15.2379
    15.2441  15.2483  15.2556  15.3456  15.3624  15.3663  15.4225  15.4428
    15.4561  15.4688  15.5887  15.6376  15.6741  15.7001  15.7998  15.8667
    15.9051  15.9652  16.0651  16.1483  16.6603  17.1553  17.4288  17.9609
    18.1575  18.6108  19.0495  19.6110  19.7036  20.4200  21.1004  21.9750
    22.8752  23.1821  23.4430  23.5150  23.8446  24.2420  25.0344  25.0547
    25.6143  25.8754  25.9273  26.0010  26.4395

          k = 0.0515 0.1545-0.4634 ( 18928 PWs)   bands (ev):

   -67.7668 -67.7668 -67.7531 -67.7531 -67.7499 -67.7498 -67.7475 -67.7475
   -67.7469 -67.7468 -67.7467 -67.7466 -67.7440 -67.7439 -67.7328 -67.7328
   -33.5660 -33.5659 -33.5582 -33.5581 -33.5581 -33.5581 -33.5579 -33.5579
   -33.5487 -33.5486 -33.5409 -33.5409 -33.5350 -33.5350 -33.5106 -33.5105
   -33.4937 -33.4937 -33.4676 -33.4676 -33.4644 -33.4644 -33.4577 -33.4577
   -33.4570 -33.4569 -33.4446 -33.4446 -33.4321 -33.4321 -33.4237 -33.4237
   -33.4067 -33.4066 -33.3942 -33.3942 -33.3931 -33.3931 -33.3929 -33.3929
   -33.3902 -33.3901 -33.3840 -33.3839 -33.3769 -33.3768 -33.3753 -33.3752
    11.0173  11.0173  12.0353  12.0353  12.2013  12.2013  12.2937  12.2937
    12.3205  12.3205  12.3390  12.3390  12.3729  12.3729  12.4045  12.4045
    12.4447  12.4448  12.7447  12.7447  12.8078  12.8078  13.0398  13.0398
    13.0709  13.0709  13.1447  13.1447  13.3452  13.3452  13.4782  13.4782
    13.6252  13.6252  13.7200  13.7200  13.9306  13.9307  14.0609  14.0609
    14.1567  14.1567  14.2200  14.2200  14.2702  14.2703  14.2725  14.2725
    14.6867  14.6867  14.6930  14.6930  14.7791  14.7791  14.8197  14.8197
    14.8697  14.8697  14.8719  14.8720  15.1575  15.1575  15.1872  15.1872
    15.1968  15.1968  15.3414  15.3414  15.3491  15.3491  15.3921  15.3921
    15.4701  15.4701  15.5780  15.5780  15.7436  15.7436  15.8510  15.8510
    15.9486  15.9486  15.9975  15.9975  16.8902  16.8902  17.6959  17.6959
    18.4143  18.4143  19.7364  19.7364  20.3499  20.3499  20.8223  20.8223
    22.9851  22.9851  23.5991  23.5991  24.4778  24.4778  25.2829  25.2829
    25.7265  25.7266  26.1108  26.1108  26.6427

          k = 0.0515 0.2575 0.2575 ( 18949 PWs)   bands (ev):

   -67.7706 -67.7587 -67.7587 -67.7527 -67.7505 -67.7486 -67.7486 -67.7472
   -67.7469 -67.7469 -67.7468 -67.7464 -67.7438 -67.7396 -67.7396 -67.7297
   -33.5839 -33.5747 -33.5747 -33.5702 -33.5702 -33.5536 -33.5478 -33.5440
   -33.5440 -33.5397 -33.5365 -33.5345 -33.5254 -33.5234 -33.5049 -33.4832
   -33.4831 -33.4813 -33.4787 -33.4787 -33.4635 -33.4620 -33.4618 -33.4579
   -33.4579 -33.4513 -33.4513 -33.4486 -33.4486 -33.4459 -33.4319 -33.4155
   -33.4155 -33.4141 -33.4083 -33.4081 -33.4068 -33.3977 -33.3936 -33.3856
   -33.3856 -33.3793 -33.3793 -33.3784 -33.3755 -33.3755 -33.3640 -33.3627
    10.5581  11.8594  11.8933  11.8933  12.0750  12.0750  12.1102  12.1102
    12.1191  12.1412  12.2188  12.4796  12.5467  12.6172  12.6172  12.6334
    12.6453  12.7882  12.7882  12.8213  12.8395  12.8395  12.9671  12.9671
    13.0051  13.1166  13.1170  13.1267  13.2194  13.3664  13.3664  13.4151
    13.5905  13.6535  13.6773  13.7131  13.7231  13.7231  13.7690  14.0209
    14.0820  14.0820  14.1045  14.5031  14.5031  14.5075  14.5075  14.5206
    14.5571  14.6327  14.6327  14.6470  14.6470  14.7633  14.7716  14.7716
    14.9650  14.9956  15.0195  15.0195  15.0577  15.0577  15.1518  15.1727
    15.2592  15.2598  15.2824  15.2950  15.3461  15.3563  15.3732  15.4793
    15.4891  15.5099  15.5099  15.5904  15.5904  15.6922  15.6922  15.7443
    15.7443  15.8767  16.0790  16.2583  16.6867  17.4330  18.0103  18.0103
    18.7179  18.7179  18.8913  18.8913  19.2870  20.4639  21.2307  22.6531
    23.3196  23.4372  23.4372  23.6314  24.1500  24.1500  24.1708  24.7043
    24.8031  25.6019  25.8090  26.0695  26.0702

          k = 0.0515 0.2575 0.3604 ( 18946 PWs)   bands (ev):

   -67.7684 -67.7623 -67.7576 -67.7545 -67.7501 -67.7491 -67.7483 -67.7475
   -67.7469 -67.7468 -67.7467 -67.7465 -67.7424 -67.7403 -67.7364 -67.7314
   -33.5783 -33.5665 -33.5664 -33.5638 -33.5604 -33.5577 -33.5505 -33.5489
   -33.5477 -33.5461 -33.5450 -33.5372 -33.5368 -33.5160 -33.4987 -33.4956
   -33.4926 -33.4795 -33.4774 -33.4695 -33.4656 -33.4642 -33.4630 -33.4603
   -33.4599 -33.4598 -33.4526 -33.4482 -33.4471 -33.4353 -33.4267 -33.4232
   -33.4184 -33.4061 -33.4038 -33.4030 -33.3993 -33.3992 -33.3906 -33.3850
   -33.3845 -33.3844 -33.3828 -33.3791 -33.3765 -33.3758 -33.3653 -33.3643
    10.8289  11.5306  11.8833  11.9163  12.1777  12.2335  12.2463  12.2466
    12.2476  12.2583  12.3786  12.4138  12.4826  12.5067  12.5109  12.5399
    12.5458  12.7697  12.7980  12.8524  12.9012  12.9034  12.9402  12.9602
    13.0376  13.1174  13.1504  13.1801  13.1914  13.3098  13.3334  13.3606
    13.6027  13.6816  13.7486  13.7610  13.7873  13.7963  13.8070  13.8308
    13.8849  14.1761  14.1877  14.2765  14.3132  14.3200  14.3630  14.5638
    14.6202  14.6325  14.6500  14.6696  14.6835  14.6854  14.6953  14.8048
    14.8688  14.9115  14.9301  14.9604  14.9994  15.0361  15.0727  15.0917
    15.2047  15.2075  15.2125  15.2637  15.3527  15.3538  15.3766  15.4110
    15.4116  15.4510  15.5180  15.5217  15.5449  15.5514  15.6166  15.6751
    15.8932  15.9467  16.0694  16.2121  16.9669  17.6454  17.7404  18.4187
    18.6144  19.1816  19.3277  19.5561  19.8467  19.9690  20.6041  22.2844
    22.9718  23.5409  23.9729  24.0245  24.2674  24.3182  24.6947  24.8655
    25.1105  25.3284  25.5008  26.3132  26.4864

          k = 0.0515 0.2575-0.4634 ( 18948 PWs)   bands (ev):

   -67.7656 -67.7656 -67.7562 -67.7561 -67.7496 -67.7496 -67.7479 -67.7479
   -67.7468 -67.7468 -67.7466 -67.7466 -67.7413 -67.7412 -67.7337 -67.7336
   -33.5693 -33.5693 -33.5566 -33.5565 -33.5562 -33.5561 -33.5560 -33.5560
   -33.5510 -33.5509 -33.5489 -33.5489 -33.5186 -33.5185 -33.5067 -33.5067
   -33.4794 -33.4794 -33.4749 -33.4749 -33.4712 -33.4711 -33.4623 -33.4622
   -33.4566 -33.4565 -33.4479 -33.4478 -33.4412 -33.4412 -33.4221 -33.4221
   -33.4201 -33.4201 -33.3936 -33.3935 -33.3922 -33.3922 -33.3913 -33.3913
   -33.3912 -33.3911 -33.3843 -33.3842 -33.3696 -33.3695 -33.3687 -33.3686
    11.1627  11.1627  11.9089  11.9089  12.2990  12.2990  12.3732  12.3732
    12.3830  12.3830  12.3837  12.3837  12.3928  12.3928  12.4185  12.4185
    12.5688  12.5688  12.8451  12.8451  12.9176  12.9176  13.0225  13.0225
    13.0371  13.0371  13.0731  13.0731  13.3321  13.3321  13.4535  13.4535
    13.5636  13.5636  13.6332  13.6332  13.8991  13.8991  13.9521  13.9521
    14.0556  14.0556  14.0677  14.0677  14.2029  14.2029  14.3703  14.3703
    14.5862  14.5862  14.6366  14.6366  14.7784  14.7784  14.8158  14.8158
    14.8267  14.8267  14.8641  14.8641  15.0247  15.0247  15.1388  15.1388
    15.1476  15.1476  15.2800  15.2800  15.2947  15.2947  15.3712  15.3712
    15.4229  15.4229  15.4999  15.4999  15.5036  15.5036  15.6215  15.6215
    16.0049  16.0049  16.1064  16.1064  17.2937  17.2937  18.0797  18.0797
    19.2302  19.2302  19.4516  19.4516  19.9649  19.9650  21.1126  21.1126
    23.7137  23.7137  23.7813  23.7813  24.4495  24.4495  24.6374  24.6374
    25.3607  25.3607  26.1817  26.1817  26.5506

          k = 0.0515 0.3604 0.3604 ( 18938 PWs)   bands (ev):

   -67.7664 -67.7609 -67.7609 -67.7569 -67.7497 -67.7487 -67.7487 -67.7479
   -67.7468 -67.7467 -67.7467 -67.7465 -67.7405 -67.7375 -67.7375 -67.7330
   -33.5754 -33.5609 -33.5609 -33.5602 -33.5601 -33.5570 -33.5570 -33.5562
   -33.5503 -33.5498 -33.5489 -33.5426 -33.5195 -33.5095 -33.4909 -33.4908
   -33.4800 -33.4800 -33.4787 -33.4776 -33.4768 -33.4667 -33.4667 -33.4665
   -33.4582 -33.4520 -33.4520 -33.4498 -33.4498 -33.4496 -33.4413 -33.4197
   -33.4193 -33.4078 -33.4078 -33.3963 -33.3941 -33.3940 -33.3908 -33.3876
   -33.3866 -33.3866 -33.3837 -33.3837 -33.3691 -33.3691 -33.3636 -33.3630
    11.0700  11.6486  11.6486  11.8278  12.3185  12.3185  12.3223  12.3393
    12.3508  12.3508  12.4343  12.4636  12.4734  12.4734  12.5011  12.5402
    12.5481  12.9126  12.9126  12.9536  12.9609  12.9609  12.9745  12.9745
    13.0030  13.0648  13.0775  13.1023  13.1751  13.1751  13.2692  13.5048
    13.5202  13.6267  13.7107  13.7337  13.7548  13.7827  13.7895  13.7895
    14.0348  14.0349  14.0352  14.0352  14.0548  14.0548  14.3671  14.3879
    14.5781  14.6397  14.7111  14.7111  14.7656  14.7657  14.7657  14.7765
    14.8240  14.8240  14.9252  14.9569  14.9907  14.9907  15.0025  15.0025
    15.0650  15.1433  15.1447  15.1921  15.2501  15.3358  15.3501  15.3501
    15.3702  15.4018  15.4390  15.4390  15.4546  15.5335  15.5335  15.5335
    16.0554  16.0554  16.1222  16.2191  17.3422  18.1212  18.1783  18.1783
    18.9455  18.9455  19.2837  20.0568  20.2854  20.2854  20.3027  22.3807
    22.7547  23.2199  24.1678  24.1678  24.4462  24.4462  24.7007  25.2339
    25.2339  25.3413  25.4074  26.2042  26.3518

          k = 0.0515 0.3604-0.4634 ( 18922 PWs)   bands (ev):

   -67.7639 -67.7638 -67.7591 -67.7590 -67.7493 -67.7492 -67.7484 -67.7483
   -67.7467 -67.7467 -67.7466 -67.7465 -67.7388 -67.7388 -67.7350 -67.7350
   -33.5692 -33.5692 -33.5595 -33.5595 -33.5550 -33.5550 -33.5546 -33.5546
   -33.5535 -33.5535 -33.5496 -33.5496 -33.5010 -33.5010 -33.5003 -33.5002
   -33.4848 -33.4848 -33.4728 -33.4727 -33.4678 -33.4677 -33.4643 -33.4643
   -33.4605 -33.4605 -33.4555 -33.4555 -33.4512 -33.4512 -33.4343 -33.4342
   -33.4130 -33.4130 -33.3985 -33.3985 -33.3897 -33.3897 -33.3897 -33.3896
   -33.3896 -33.3895 -33.3853 -33.3853 -33.3650 -33.3649 -33.3646 -33.3645
    11.3546  11.3546  11.7521  11.7521  12.3918  12.3918  12.4032  12.4032
    12.4172  12.4172  12.4307  12.4307  12.4338  12.4338  12.4571  12.4571
    12.7535  12.7536  12.9629  12.9629  13.0175  13.0175  13.0296  13.0296
    13.0411  13.0411  13.0464  13.0464  13.2058  13.2058  13.2263  13.2263
    13.6887  13.6887  13.7644  13.7644  13.8089  13.8089  13.8281  13.8281
    13.8406  13.8406  13.8756  13.8756  14.0223  14.0223  14.2955  14.2955
    14.5995  14.5995  14.6495  14.6495  14.8663  14.8663  14.8686  14.8686
    14.8877  14.8877  14.8878  14.8878  14.8887  14.8887  15.0674  15.0675
    15.0712  15.0712  15.0758  15.0758  15.2407  15.2407  15.2845  15.2845
    15.3956  15.3956  15.4484  15.4484  15.4517  15.4517  15.5323  15.5323
    16.1164  16.1164  16.1665  16.1665  17.7517  17.7518  18.5324  18.5324
    18.7277  18.7277  19.4989  19.4989  20.5078  20.5078  21.4266  21.4266
    23.1943  23.1943  23.5483  23.5483  24.6293  24.6294  25.3977  25.3978
    25.4701  25.4701  26.1834  26.1835  26.2756

          k = 0.0515-0.4634-0.4634 ( 18916 PWs)   bands (ev):

   -67.7617 -67.7616 -67.7616 -67.7616 -67.7489 -67.7488 -67.7488 -67.7488
   -67.7467 -67.7466 -67.7466 -67.7466 -67.7368 -67.7367 -67.7367 -67.7367
   -33.5658 -33.5657 -33.5657 -33.5657 -33.5542 -33.5542 -33.5542 -33.5542
   -33.5513 -33.5512 -33.5512 -33.5512 -33.4936 -33.4935 -33.4935 -33.4935
   -33.4805 -33.4805 -33.4805 -33.4804 -33.4717 -33.4717 -33.4717 -33.4716
   -33.4540 -33.4539 -33.4539 -33.4539 -33.4492 -33.4491 -33.4491 -33.4491
   -33.4051 -33.4051 -33.4051 -33.4051 -33.3892 -33.3892 -33.3892 -33.3892
   -33.3871 -33.3871 -33.3871 -33.3870 -33.3633 -33.3633 -33.3633 -33.3632
    11.5617  11.5617  11.5617  11.5617  12.4215  12.4215  12.4215  12.4215
    12.4350  12.4350  12.4350  12.4351  12.4660  12.4660  12.4660  12.4660
    12.9799  12.9799  12.9799  12.9799  13.0315  13.0315  13.0315  13.0315
    13.0525  13.0525  13.0525  13.0525  13.1087  13.1087  13.1087  13.1087
    13.7390  13.7390  13.7390  13.7390  13.7890  13.7890  13.7890  13.7890
    13.8196  13.8196  13.8196  13.8196  14.0173  14.0173  14.0173  14.0173
    14.7324  14.7324  14.7324  14.7324  14.8362  14.8362  14.8362  14.8363
    14.9129  14.9129  14.9129  14.9129  14.9784  14.9784  14.9784  14.9784
    14.9790  14.9790  14.9790  14.9790  15.2186  15.2186  15.2186  15.2186
    15.4206  15.4206  15.4206  15.4206  15.4794  15.4794  15.4794  15.4794
    16.1711  16.1711  16.1711  16.1711  18.2338  18.2338  18.2338  18.2338
    19.0134  19.0134  19.0134  19.0134  21.3528  21.3528  21.3528  21.3528
    22.9333  22.9333  22.9333  22.9333  25.4276  25.4276  25.4276  25.4276
    26.1544  26.1544  26.1544  26.1545  26.1971

          k = 0.1545 0.1545 0.1545 ( 18997 PWs)   bands (ev):

   -67.7729 -67.7551 -67.7551 -67.7551 -67.7494 -67.7494 -67.7494 -67.7470
   -67.7462 -67.7462 -67.7462 -67.7461 -67.7431 -67.7431 -67.7431 -67.7278
   -33.5867 -33.5867 -33.5866 -33.5764 -33.5764 -33.5764 -33.5386 -33.5386
   -33.5294 -33.5272 -33.5272 -33.5272 -33.5163 -33.5044 -33.5044 -33.4870
   -33.4870 -33.4870 -33.4739 -33.4739 -33.4739 -33.4559 -33.4559 -33.4559
   -33.4451 -33.4451 -33.4425 -33.4425 -33.4425 -33.4424 -33.4424 -33.4424
   -33.4280 -33.4280 -33.4280 -33.4200 -33.4032 -33.4032 -33.4032 -33.3898
   -33.3760 -33.3759 -33.3759 -33.3669 -33.3669 -33.3660 -33.3660 -33.3659
    10.2698  11.8788  11.8788  11.8788  11.9627  11.9627  11.9627  12.0375
    12.0375  12.2508  12.2508  12.2508  12.6178  12.7226  12.7226  12.7226
    12.8049  12.8049  12.8049  12.8252  12.8252  12.8252  12.9018  12.9018
    12.9831  12.9831  12.9831  13.3772  13.3772  13.4901  13.4901  13.4901
    13.4950  13.5248  13.5248  13.6847  13.6847  13.6847  13.8600  14.0149
    14.0149  14.0149  14.2835  14.2835  14.2835  14.5156  14.5156  14.5156
    14.6878  14.6878  14.6878  14.8986  14.8986  14.8986  14.9773  14.9773
    14.9773  15.0622  15.0622  15.0622  15.1144  15.1144  15.3111  15.3111
    15.3111  15.3281  15.3281  15.3312  15.3312  15.4214  15.4214  15.4214
    15.4354  15.4642  15.4642  15.4642  15.9041  15.9041  15.9041  15.9431
    15.9431  16.0528  16.0528  16.0528  17.2413  17.2413  17.2413  17.8393
    17.8393  17.8393  18.7506  18.7506  18.7506  21.0651  22.6057  22.6057
    22.6057  23.3563  23.3563  23.4080  24.0314  24.0314  24.0314  24.2899
    24.2899  24.3103  24.9219  26.1210  26.1210

          k = 0.1545 0.1545 0.2575 ( 18967 PWs)   bands (ev):

   -67.7713 -67.7591 -67.7546 -67.7546 -67.7506 -67.7506 -67.7492 -67.7474
   -67.7461 -67.7460 -67.7453 -67.7453 -67.7433 -67.7433 -67.7394 -67.7290
   -33.5824 -33.5824 -33.5797 -33.5716 -33.5656 -33.5656 -33.5424 -33.5389
   -33.5389 -33.5383 -33.5355 -33.5330 -33.5232 -33.5063 -33.5019 -33.5019
   -33.4956 -33.4887 -33.4742 -33.4742 -33.4698 -33.4612 -33.4606 -33.4606
   -33.4562 -33.4489 -33.4444 -33.4387 -33.4387 -33.4295 -33.4295 -33.4291
   -33.4291 -33.4265 -33.4138 -33.4098 -33.4020 -33.3936 -33.3936 -33.3920
   -33.3833 -33.3833 -33.3794 -33.3725 -33.3719 -33.3672 -33.3671 -33.3668
    10.4650  11.8912  11.9287  11.9287  12.0217  12.0707  12.0707  12.0822
    12.1175  12.1508  12.2444  12.2444  12.5437  12.7199  12.7237  12.7238
    12.7685  12.7730  12.7815  12.7815  12.8176  12.8184  12.8606  12.9461
    12.9461  13.0687  13.0688  13.2212  13.3635  13.3635  13.4712  13.5229
    13.5320  13.5676  13.5874  13.6119  13.6543  13.6543  13.8366  13.8366
    13.9918  14.1623  14.3675  14.3675  14.3970  14.4574  14.4574  14.5817
    14.5829  14.5829  14.7088  14.7278  14.8992  14.8992  14.9159  14.9159
    14.9608  15.0248  15.0286  15.1028  15.1029  15.1101  15.1281  15.1281
    15.1622  15.1751  15.2918  15.2919  15.3144  15.3276  15.3429  15.4382
    15.4382  15.5722  15.5722  15.5928  15.6133  15.7548  15.7760  15.9496
    15.9496  15.9782  16.0634  16.0634  16.8334  16.8334  17.8605  18.0578
    18.0578  18.7967  18.9495  18.9495  19.3332  20.4119  22.4687  22.6200
    22.8621  22.8621  23.0730  23.2893  24.0960  24.3089  24.6517  24.7014
    24.9126  24.9126  24.9339  26.4877  26.8673

          k = 0.1545 0.1545 0.3604 ( 18941 PWs)   bands (ev):

   -67.7691 -67.7629 -67.7538 -67.7538 -67.7518 -67.7518 -67.7488 -67.7479
   -67.7461 -67.7459 -67.7446 -67.7446 -67.7436 -67.7436 -67.7361 -67.7309
   -33.5747 -33.5746 -33.5695 -33.5649 -33.5519 -33.5519 -33.5519 -33.5519
   -33.5476 -33.5443 -33.5410 -33.5408 -33.5249 -33.5189 -33.5188 -33.5024
   -33.4951 -33.4865 -33.4724 -33.4724 -33.4698 -33.4687 -33.4652 -33.4652
   -33.4516 -33.4501 -33.4470 -33.4354 -33.4354 -33.4306 -33.4306 -33.4170
   -33.4163 -33.4163 -33.4095 -33.4005 -33.4001 -33.3927 -33.3927 -33.3847
   -33.3842 -33.3842 -33.3823 -33.3821 -33.3794 -33.3706 -33.3706 -33.3695
    10.7461  11.4914  12.0082  12.0082  12.1918  12.1918  12.2126  12.2126
    12.2199  12.2330  12.2348  12.3056  12.4729  12.5586  12.5586  12.5662
    12.6510  12.6842  12.7217  12.7638  12.8331  12.8844  12.8844  13.0437
    13.0968  13.0968  13.1945  13.1945  13.2312  13.2312  13.4411  13.4839
    13.5232  13.5345  13.6845  13.6845  13.7978  13.7978  13.8173  13.8753
    14.0362  14.0362  14.1458  14.3684  14.3975  14.5033  14.5033  14.5107
    14.5270  14.5630  14.6541  14.6541  14.6570  14.6570  14.8177  14.8177
    14.8960  14.8964  14.9758  14.9797  14.9797  15.0950  15.1439  15.2302
    15.2353  15.2448  15.3184  15.3189  15.3189  15.3257  15.3720  15.4366
    15.4578  15.4578  15.5116  15.5619  15.7385  15.7385  15.7469  15.9513
    16.0040  16.0040  16.0536  16.0536  16.5060  16.5060  18.3367  18.3367
    18.4968  18.8696  18.8696  19.7743  19.8562  20.0285  21.6119  22.1489
    22.6554  22.8593  23.5487  23.5487  24.2097  24.6443  25.1410  25.2740
    25.3257  25.6560  25.6560  25.9125  25.9125

          k = 0.1545 0.1545-0.4634 ( 18898 PWs)   bands (ev):

   -67.7662 -67.7662 -67.7529 -67.7529 -67.7528 -67.7528 -67.7484 -67.7483
   -67.7460 -67.7460 -67.7441 -67.7441 -67.7440 -67.7440 -67.7333 -67.7332
   -33.5642 -33.5642 -33.5642 -33.5642 -33.5566 -33.5565 -33.5564 -33.5564
   -33.5439 -33.5438 -33.5360 -33.5360 -33.5360 -33.5360 -33.5146 -33.5146
   -33.4828 -33.4827 -33.4774 -33.4773 -33.4691 -33.4691 -33.4691 -33.4691
   -33.4491 -33.4490 -33.4338 -33.4338 -33.4328 -33.4328 -33.4327 -33.4327
   -33.4037 -33.4037 -33.4037 -33.4037 -33.3945 -33.3945 -33.3916 -33.3916
   -33.3890 -33.3889 -33.3764 -33.3764 -33.3764 -33.3764 -33.3746 -33.3746
    11.0970  11.0970  12.1035  12.1035  12.1035  12.1035  12.3745  12.3745
    12.3799  12.3799  12.3799  12.3799  12.3859  12.3860  12.4520  12.4520
    12.4820  12.4820  12.7341  12.7341  12.9020  12.9020  13.0257  13.0257
    13.0257  13.0257  13.2415  13.2415  13.2415  13.2415  13.4429  13.4429
    13.5276  13.5276  13.7534  13.7534  13.7535  13.7535  14.1004  14.1004
    14.1004  14.1004  14.1394  14.1394  14.1486  14.1486  14.3199  14.3199
    14.6200  14.6200  14.7360  14.7360  14.7360  14.7360  14.7378  14.7378
    14.8345  14.8345  14.8345  14.8345  15.1670  15.1670  15.1933  15.1933
    15.2435  15.2435  15.3185  15.3186  15.3225  15.3225  15.4264  15.4264
    15.4264  15.4264  15.4356  15.4356  15.8705  15.8705  15.8899  15.8899
    15.8899  15.8899  16.2422  16.2422  16.2422  16.2422  18.6295  18.6295
    18.6295  18.6295  19.1369  19.1369  20.7946  20.7946  20.9857  20.9857
    22.7281  22.7281  24.3892  24.3892  24.5215  24.5215  24.5215  24.5215
    25.7423  25.7423  25.9706  25.9707  26.4011

          k = 0.1545 0.2575 0.2575 ( 18943 PWs)   bands (ev):

   -67.7699 -67.7583 -67.7583 -67.7541 -67.7525 -67.7503 -67.7503 -67.7480
   -67.7457 -67.7453 -67.7453 -67.7438 -67.7434 -67.7398 -67.7398 -67.7302
   -33.5804 -33.5758 -33.5758 -33.5626 -33.5626 -33.5531 -33.5455 -33.5455
   -33.5448 -33.5444 -33.5434 -33.5312 -33.5275 -33.5121 -33.5005 -33.4950
   -33.4887 -33.4887 -33.4852 -33.4852 -33.4778 -33.4679 -33.4671 -33.4671
   -33.4428 -33.4427 -33.4427 -33.4401 -33.4401 -33.4322 -33.4303 -33.4198
   -33.4194 -33.4154 -33.4150 -33.4150 -33.4026 -33.3924 -33.3886 -33.3846
   -33.3846 -33.3840 -33.3840 -33.3749 -33.3732 -33.3732 -33.3666 -33.3661
    10.6523  11.9399  11.9477  11.9477  12.0727  12.0727  12.1795  12.1812
    12.1812  12.2029  12.2529  12.2816  12.4979  12.6931  12.6931  12.7509
    12.7760  12.7760  12.7785  12.8155  12.9137  12.9241  12.9241  12.9243
    12.9243  12.9830  13.0807  13.2757  13.2856  13.3531  13.3531  13.4079
    13.4976  13.5392  13.5836  13.5836  13.5836  13.6003  13.7604  13.9357
    13.9357  14.0773  14.1541  14.2858  14.2859  14.5425  14.5425  14.5544
    14.6286  14.6286  14.6656  14.7431  14.7432  14.7942  14.8188  14.8965
    14.9638  14.9638  14.9642  14.9642  15.0239  15.0409  15.0654  15.0654
    15.1403  15.2657  15.2705  15.2831  15.2846  15.3171  15.3436  15.3475
    15.3475  15.6008  15.6008  15.6010  15.6603  15.7221  15.7221  15.8214
    15.8214  15.9758  16.0934  16.1065  16.3747  17.4065  17.4065  18.3186
    19.0460  19.0460  19.4620  19.4620  19.5690  19.7813  22.0896  22.6650
    22.9007  22.9007  23.5259  23.6814  23.7600  23.8255  24.9875  24.9875
    25.0175  25.5557  25.8469  26.1145  26.1145

          k = 0.1545 0.2575 0.3604 ( 18949 PWs)   bands (ev):

   -67.7677 -67.7619 -67.7572 -67.7542 -67.7533 -67.7514 -67.7498 -67.7487
   -67.7455 -67.7453 -67.7447 -67.7437 -67.7425 -67.7405 -67.7368 -67.7319
   -33.5751 -33.5692 -33.5662 -33.5585 -33.5566 -33.5522 -33.5511 -33.5491
   -33.5485 -33.5482 -33.5405 -33.5378 -33.5247 -33.5241 -33.5028 -33.5022
   -33.4944 -33.4859 -33.4825 -33.4787 -33.4758 -33.4748 -33.4725 -33.4673
   -33.4562 -33.4429 -33.4417 -33.4366 -33.4317 -33.4315 -33.4289 -33.4265
   -33.4178 -33.4090 -33.4066 -33.4034 -33.4023 -33.3961 -33.3913 -33.3872
   -33.3835 -33.3821 -33.3818 -33.3766 -33.3764 -33.3753 -33.3675 -33.3673
    10.9193  11.6026  11.9663  11.9866  12.1458  12.2685  12.2775  12.3087
    12.3096  12.3104  12.3157  12.4087  12.4641  12.5761  12.5821  12.6534
    12.6537  12.7690  12.7771  12.8639  12.8758  12.8936  12.9301  13.0408
    13.0701  13.1363  13.1500  13.1640  13.1695  13.2395  13.3277  13.3501
    13.4937  13.5308  13.6468  13.6532  13.6962  13.7165  13.7229  13.7580
    13.7769  13.9884  14.1057  14.1483  14.2379  14.2524  14.3397  14.3878
    14.6101  14.6704  14.6999  14.7056  14.7314  14.7477  14.7604  14.7620
    14.8950  14.9398  14.9545  14.9724  14.9772  15.0474  15.1043  15.1897
    15.2018  15.2135  15.2161  15.3053  15.3180  15.3280  15.3724  15.3818
    15.3856  15.3996  15.4446  15.6104  15.6156  15.6631  15.8020  15.8489
    15.8700  15.9805  16.0244  16.0814  16.3363  17.0076  17.9929  18.6463
    19.1778  19.3006  19.3560  19.7980  20.0818  20.1287  21.4400  22.4574
    22.9779  23.0006  23.3584  23.6239  24.1553  24.7694  24.9225  25.1126
    25.4023  25.5047  25.5229  25.7281  25.9907

          k = 0.1545 0.2575-0.4634 ( 18934 PWs)   bands (ev):

   -67.7651 -67.7650 -67.7559 -67.7558 -67.7525 -67.7524 -67.7493 -67.7492
   -67.7454 -67.7454 -67.7442 -67.7441 -67.7414 -67.7414 -67.7341 -67.7340
   -33.5669 -33.5668 -33.5610 -33.5609 -33.5542 -33.5542 -33.5537 -33.5536
   -33.5499 -33.5498 -33.5382 -33.5382 -33.5208 -33.5207 -33.5142 -33.5141
   -33.4854 -33.4853 -33.4810 -33.4810 -33.4766 -33.4766 -33.4695 -33.4695
   -33.4491 -33.4490 -33.4428 -33.4427 -33.4338 -33.4338 -33.4216 -33.4216
   -33.4157 -33.4157 -33.3995 -33.3995 -33.3934 -33.3934 -33.3911 -33.3911
   -33.3909 -33.3909 -33.3788 -33.3788 -33.3708 -33.3708 -33.3708 -33.3707
    11.2463  11.2463  11.9893  11.9893  12.2233  12.2233  12.4115  12.4115
    12.4370  12.4370  12.4490  12.4490  12.4784  12.4784  12.4833  12.4833
    12.5901  12.5901  12.7989  12.7989  13.0052  13.0052  13.0117  13.0117
    13.0132  13.0132  13.1176  13.1176  13.3222  13.3222  13.3306  13.3306
    13.5028  13.5028  13.5783  13.5783  13.7591  13.7591  13.8871  13.8871
    13.9134  13.9134  13.9622  13.9622  13.9996  13.9996  14.3386  14.3386
    14.5438  14.5438  14.7314  14.7314  14.8137  14.8137  14.8233  14.8233
    14.8498  14.8498  14.8566  14.8566  15.1350  15.1350  15.1589  15.1589
    15.1968  15.1969  15.2767  15.2767  15.3157  15.3157  15.3214  15.3214
    15.3984  15.3984  15.4654  15.4654  15.7400  15.7400  15.7531  15.7531
    15.9384  15.9384  15.9979  15.9979  16.6500  16.6500  18.5840  18.5841
    18.9936  18.9937  19.6534  19.6534  20.7549  20.7549  21.2776  21.2776
    23.1186  23.1186  23.8315  23.8315  24.6130  24.6130  24.7418  24.7418
    25.2966  25.2966  25.8587  25.8587  26.1139

          k = 0.1545 0.3604 0.3604 ( 18943 PWs)   bands (ev):

   -67.7658 -67.7604 -67.7604 -67.7565 -67.7527 -67.7509 -67.7508 -67.7494
   -67.7452 -67.7448 -67.7448 -67.7440 -67.7406 -67.7377 -67.7377 -67.7334
   -33.5721 -33.5617 -33.5617 -33.5581 -33.5580 -33.5538 -33.5532 -33.5503
   -33.5503 -33.5491 -33.5448 -33.5325 -33.5215 -33.5183 -33.4983 -33.4983
   -33.4952 -33.4852 -33.4852 -33.4840 -33.4833 -33.4814 -33.4814 -33.4691
   -33.4484 -33.4421 -33.4421 -33.4399 -33.4378 -33.4378 -33.4333 -33.4185
   -33.4155 -33.4061 -33.4061 -33.4019 -33.3994 -33.3929 -33.3907 -33.3907
   -33.3877 -33.3827 -33.3821 -33.3821 -33.3709 -33.3709 -33.3665 -33.3662
    11.1603  11.7310  11.7310  11.9174  12.3211  12.3211  12.3446  12.3889
    12.4061  12.4224  12.4224  12.4753  12.5459  12.5459  12.5724  12.5898
    12.6724  12.8818  12.8818  12.9446  12.9475  12.9698  12.9698  13.0092
    13.0192  13.0192  13.1268  13.1651  13.1667  13.1667  13.2584  13.4122
    13.4985  13.4994  13.5543  13.5618  13.6168  13.6168  13.6839  13.7109
    13.8506  13.8506  13.9000  13.9000  13.9344  13.9344  14.0963  14.3246
    14.5585  14.7488  14.7953  14.7953  14.7994  14.8438  14.8716  14.8716
    14.9537  14.9689  14.9917  14.9917  15.0240  15.0240  15.0302  15.0302
    15.1596  15.1657  15.1731  15.2477  15.2679  15.3250  15.3539  15.3539
    15.3553  15.3553  15.3869  15.4128  15.6171  15.6183  15.6183  15.6612
    15.9667  15.9667  16.0184  16.0985  16.6994  17.5328  17.5328  18.6148
    19.0294  19.8221  19.8221  20.4583  20.4583  20.5369  20.9392  22.5839
    22.7803  23.3026  23.7555  23.7555  24.1350  24.2420  24.2420  24.4995
    25.6443  25.9265  26.1146  26.1147  26.3242

          k = 0.1545 0.3604-0.4634 ( 18922 PWs)   bands (ev):

   -67.7634 -67.7633 -67.7587 -67.7586 -67.7518 -67.7518 -67.7502 -67.7502
   -67.7450 -67.7449 -67.7443 -67.7443 -67.7391 -67.7390 -67.7354 -67.7353
   -33.5662 -33.5661 -33.5571 -33.5571 -33.5568 -33.5567 -33.5530 -33.5529
   -33.5496 -33.5496 -33.5414 -33.5413 -33.5093 -33.5093 -33.5036 -33.5036
   -33.4920 -33.4920 -33.4898 -33.4897 -33.4842 -33.4842 -33.4666 -33.4666
   -33.4556 -33.4556 -33.4388 -33.4388 -33.4351 -33.4350 -33.4284 -33.4283
   -33.4116 -33.4115 -33.3959 -33.3959 -33.3956 -33.3956 -33.3912 -33.3912
   -33.3905 -33.3904 -33.3823 -33.3822 -33.3675 -33.3674 -33.3674 -33.3674
    11.4431  11.4431  11.8417  11.8418  12.3558  12.3558  12.4730  12.4730
    12.4763  12.4764  12.4846  12.4846  12.4881  12.4881  12.5575  12.5575
    12.7695  12.7695  12.9203  12.9203  13.0177  13.0177  13.0365  13.0365
    13.0481  13.0482  13.0776  13.0776  13.1953  13.1954  13.2197  13.2197
    13.5376  13.5376  13.6182  13.6182  13.6660  13.6660  13.6772  13.6772
    13.7290  13.7290  13.7874  13.7874  13.8082  13.8082  14.0633  14.0633
    14.7903  14.7903  14.7932  14.7932  14.8950  14.8950  14.9070  14.9070
    14.9162  14.9162  14.9257  14.9257  15.0611  15.0611  15.0880  15.0880
    15.0907  15.0907  15.2282  15.2283  15.2358  15.2358  15.3378  15.3378
    15.3780  15.3780  15.3834  15.3834  15.4874  15.4874  15.6097  15.6097
    16.0176  16.0176  16.0573  16.0573  17.1030  17.1030  18.0691  18.0691
    19.4385  19.4385  20.3812  20.3813  20.7092  20.7092  21.6053  21.6053
    23.2464  23.2464  23.6357  23.6357  23.9603  23.9603  24.7524  24.7524
    25.4418  25.4418  26.2725  26.2990  26.2991

          k = 0.1545-0.4634-0.4634 ( 18920 PWs)   bands (ev):

   -67.7612 -67.7612 -67.7612 -67.7611 -67.7511 -67.7510 -67.7510 -67.7510
   -67.7446 -67.7446 -67.7446 -67.7445 -67.7371 -67.7370 -67.7370 -67.7369
   -33.5626 -33.5626 -33.5626 -33.5625 -33.5540 -33.5540 -33.5540 -33.5540
   -33.5453 -33.5453 -33.5453 -33.5452 -33.5018 -33.5017 -33.5017 -33.5017
   -33.4892 -33.4892 -33.4892 -33.4891 -33.4853 -33.4852 -33.4852 -33.4852
   -33.4418 -33.4418 -33.4418 -33.4417 -33.4366 -33.4366 -33.4366 -33.4365
   -33.4029 -33.4029 -33.4029 -33.4029 -33.3927 -33.3926 -33.3926 -33.3926
   -33.3864 -33.3864 -33.3864 -33.3864 -33.3663 -33.3663 -33.3663 -33.3662
    11.6536  11.6536  11.6536  11.6536  12.4485  12.4485  12.4485  12.4485
    12.4934  12.4934  12.4935  12.4935  12.5450  12.5450  12.5450  12.5450
    12.9908  12.9908  12.9908  12.9908  13.0155  13.0155  13.0155  13.0155
    13.0711  13.0711  13.0711  13.0711  13.0976  13.0976  13.0976  13.0976
    13.5599  13.5599  13.5599  13.5599  13.6374  13.6374  13.6374  13.6374
    13.7106  13.7106  13.7106  13.7106  13.8154  13.8154  13.8154  13.8154
    14.9093  14.9093  14.9093  14.9093  14.9356  14.9356  14.9356  14.9356
    15.0039  15.0039  15.0039  15.0040  15.0186  15.0187  15.0187  15.0187
    15.0637  15.0637  15.0637  15.0637  15.2098  15.2098  15.2098  15.2098
    15.3582  15.3582  15.3582  15.3582  15.5270  15.5270  15.5270  15.5270
    16.0631  16.0631  16.0631  16.0631  17.5777  17.5777  17.5777  17.5777
    19.9152  19.9152  19.9152  19.9152  21.5637  21.5637  21.5637  21.5637
    22.9817  22.9817  22.9817  22.9817  24.7847  24.7847  24.7847  24.7847
    25.3455  25.3455  25.3455  25.3455  26.9175

          k = 0.2575 0.2575 0.2575 ( 18940 PWs)   bands (ev):

   -67.7685 -67.7576 -67.7576 -67.7576 -67.7520 -67.7520 -67.7520 -67.7489
   -67.7451 -67.7439 -67.7439 -67.7439 -67.7402 -67.7402 -67.7402 -67.7312
   -33.5736 -33.5736 -33.5736 -33.5520 -33.5520 -33.5520 -33.5491 -33.5491
   -33.5491 -33.5460 -33.5391 -33.5391 -33.5189 -33.5189 -33.4964 -33.4964
   -33.4964 -33.4932 -33.4932 -33.4932 -33.4828 -33.4761 -33.4761 -33.4761
   -33.4324 -33.4324 -33.4324 -33.4315 -33.4314 -33.4314 -33.4287 -33.4249
   -33.4249 -33.4153 -33.4153 -33.4153 -33.3977 -33.3914 -33.3913 -33.3913
   -33.3812 -33.3812 -33.3812 -33.3723 -33.3723 -33.3723 -33.3719 -33.3719
    10.8348  12.0336  12.0336  12.0336  12.0948  12.0948  12.0948  12.2861
    12.2861  12.2861  12.3197  12.3197  12.4823  12.8068  12.8068  12.8068
    12.8326  12.8326  12.8326  12.8426  12.8426  12.8426  12.8517  12.8517
    13.0318  13.0318  13.0318  13.3231  13.3231  13.3231  13.3952  13.3952
    13.4065  13.4337  13.4337  13.4337  13.4449  13.4449  13.7609  13.7609
    13.7609  14.0184  14.0184  14.0184  14.3421  14.3860  14.3860  14.3860
    14.6055  14.6410  14.6410  14.6410  14.8361  14.8361  14.8361  14.9139
    14.9139  14.9139  15.0562  15.0562  15.0562  15.0771  15.0771  15.1866
    15.1866  15.1866  15.2728  15.2728  15.2840  15.2840  15.2840  15.3033
    15.3033  15.6560  15.6560  15.6560  15.7190  15.7191  15.7191  15.7905
    15.7905  15.8817  15.8817  15.8817  16.9118  16.9118  16.9118  19.1619
    19.3206  19.3206  19.3206  20.0572  20.0572  20.0572  22.6941  22.6941
    22.6941  22.9735  22.9735  23.3941  23.9157  23.9157  24.0547  25.9271
    25.9271  25.9271  26.0201  26.0201  26.0201

          k = 0.2575 0.2575 0.3604 ( 18926 PWs)   bands (ev):

   -67.7665 -67.7609 -67.7565 -67.7565 -67.7537 -67.7537 -67.7514 -67.7498
   -67.7447 -67.7441 -67.7427 -67.7427 -67.7409 -67.7409 -67.7374 -67.7328
   -33.5687 -33.5687 -33.5637 -33.5550 -33.5550 -33.5507 -33.5507 -33.5477
   -33.5453 -33.5392 -33.5392 -33.5359 -33.5307 -33.5103 -33.5102 -33.5087
   -33.5074 -33.4937 -33.4937 -33.4866 -33.4841 -33.4841 -33.4794 -33.4700
   -33.4446 -33.4441 -33.4322 -33.4287 -33.4259 -33.4259 -33.4200 -33.4200
   -33.4172 -33.4171 -33.4084 -33.4016 -33.3995 -33.3995 -33.3940 -33.3909
   -33.3818 -33.3797 -33.3778 -33.3778 -33.3755 -33.3731 -33.3731 -33.3709
    11.0928  11.7313  12.1088  12.1088  12.1250  12.1250  12.3098  12.4027
    12.4165  12.4186  12.4186  12.4771  12.4847  12.6806  12.7135  12.7135
    12.7847  12.7916  12.7996  12.8157  12.8825  12.8825  13.0158  13.0264
    13.0264  13.1411  13.1411  13.1636  13.1636  13.2545  13.3202  13.3279
    13.3454  13.3794  13.4430  13.5013  13.5013  13.6133  13.6133  13.6210
    13.7467  13.7467  13.8565  13.9216  14.0037  14.0393  14.0393  14.3163
    14.5578  14.7556  14.7679  14.7679  14.8699  14.8699  14.8826  14.8826
    14.9869  14.9998  14.9998  15.0234  15.0270  15.0534  15.1019  15.1504
    15.2178  15.2337  15.2788  15.2841  15.2925  15.2925  15.3055  15.3055
    15.3706  15.3847  15.5547  15.6611  15.7629  15.7629  15.8122  15.8387
    15.8387  15.8581  15.8792  15.8792  16.4986  16.4986  17.4615  18.5806
    19.6636  19.6636  20.2217  20.2217  20.4146  20.6781  22.1569  22.7510
    22.7699  23.0044  23.0664  23.0664  24.1581  24.3860  24.4533  25.0314
    25.0314  25.3989  25.8247  26.0570  26.4339

          k = 0.2575 0.2575-0.4634 ( 18934 PWs)   bands (ev):

   -67.7639 -67.7639 -67.7553 -67.7552 -67.7552 -67.7552 -67.7507 -67.7506
   -67.7444 -67.7443 -67.7417 -67.7417 -67.7416 -67.7416 -67.7349 -67.7348
   -33.5622 -33.5622 -33.5621 -33.5621 -33.5510 -33.5510 -33.5493 -33.5492
   -33.5492 -33.5492 -33.5250 -33.5249 -33.5249 -33.5249 -33.5200 -33.5200
   -33.4976 -33.4976 -33.4904 -33.4904 -33.4904 -33.4904 -33.4618 -33.4617
   -33.4570 -33.4570 -33.4311 -33.4311 -33.4207 -33.4207 -33.4207 -33.4207
   -33.4093 -33.4093 -33.4092 -33.4092 -33.3939 -33.3939 -33.3917 -33.3917
   -33.3897 -33.3897 -33.3750 -33.3750 -33.3750 -33.3749 -33.3721 -33.3720
    11.4034  11.4034  12.1385  12.1385  12.1385  12.1385  12.4727  12.4727
    12.5389  12.5389  12.5588  12.5588  12.5669  12.5669  12.5669  12.5669
    12.6492  12.6492  12.8004  12.8004  13.0034  13.0034  13.0034  13.0034
    13.0899  13.0899  13.1743  13.1743  13.1743  13.1743  13.2923  13.2923
    13.3627  13.3627  13.5692  13.5692  13.5692  13.5693  13.6771  13.6771
    13.7193  13.7193  13.7193  13.7193  13.7859  13.7859  14.0553  14.0553
    14.7926  14.7926  14.8730  14.8730  14.8730  14.8730  14.8762  14.8762
    14.8955  14.8955  14.8956  14.8956  15.1385  15.1386  15.1584  15.1585
    15.2438  15.2438  15.2826  15.2826  15.3001  15.3001  15.3166  15.3166
    15.3166  15.3166  15.4872  15.4872  15.8300  15.8300  15.8300  15.8300
    15.8628  15.8628  16.1397  16.1397  16.1397  16.1397  18.0173  18.0173
    20.0072  20.0072  20.0072  20.0072  21.3865  21.3866  21.5749  21.5749
    22.8504  22.8504  23.9385  23.9385  23.9385  23.9385  24.8502  24.8502
    25.1009  25.1010  25.2657  25.2657  26.2395

          k = 0.2575 0.3604 0.3604 ( 18916 PWs)   bands (ev):

   -67.7646 -67.7596 -67.7596 -67.7559 -67.7556 -67.7529 -67.7529 -67.7509
   -67.7440 -67.7430 -67.7430 -67.7414 -67.7410 -67.7383 -67.7383 -67.7342
   -33.5655 -33.5598 -33.5598 -33.5547 -33.5547 -33.5543 -33.5471 -33.5458
   -33.5410 -33.5410 -33.5382 -33.5287 -33.5251 -33.5199 -33.5128 -33.5077
   -33.5077 -33.4992 -33.4951 -33.4951 -33.4945 -33.4941 -33.4941 -33.4603
   -33.4569 -33.4317 -33.4317 -33.4247 -33.4247 -33.4226 -33.4175 -33.4165
   -33.4110 -33.4093 -33.4038 -33.4038 -33.4030 -33.3961 -33.3961 -33.3932
   -33.3836 -33.3814 -33.3814 -33.3794 -33.3741 -33.3741 -33.3724 -33.3720
    11.3331  11.8838  11.8838  12.0911  12.2409  12.3415  12.3415  12.5153
    12.5277  12.5307  12.5307  12.5309  12.6193  12.6840  12.6840  12.7297
    12.8223  12.8766  12.8766  12.9131  12.9292  12.9362  12.9534  12.9534
    13.0796  13.0796  13.1462  13.1601  13.1601  13.2391  13.2563  13.2576
    13.2951  13.3432  13.3475  13.3911  13.3911  13.4832  13.5423  13.5479
    13.6251  13.6251  13.6905  13.6905  13.7046  13.7046  13.7668  14.0309
    14.8071  14.8572  14.8572  14.8617  14.9107  14.9708  15.0071  15.0078
    15.0186  15.0186  15.0456  15.0456  15.0527  15.0528  15.1356  15.1802
    15.2238  15.2300  15.2300  15.2423  15.2679  15.2841  15.2841  15.3213
    15.3915  15.4501  15.4501  15.4629  15.6704  15.6704  15.6845  15.8303
    15.8303  15.8351  15.9017  16.0844  16.1817  16.9963  16.9963  18.0305
    20.0488  20.7574  20.7574  20.7680  20.7680  20.9617  21.9188  22.8362
    22.9651  23.1854  23.1854  23.4652  23.6857  23.7069  24.3919  24.3920
    24.8048  25.0344  25.5512  25.9669  25.9685

          k = 0.2575 0.3604-0.4634 ( 18936 PWs)   bands (ev):

   -67.7623 -67.7623 -67.7579 -67.7578 -67.7544 -67.7543 -67.7520 -67.7520
   -67.7435 -67.7434 -67.7421 -67.7421 -67.7395 -67.7394 -67.7361 -67.7360
   -33.5604 -33.5603 -33.5561 -33.5560 -33.5517 -33.5516 -33.5488 -33.5488
   -33.5435 -33.5435 -33.5306 -33.5305 -33.5197 -33.5197 -33.5098 -33.5098
   -33.5056 -33.5056 -33.5028 -33.5028 -33.4998 -33.4997 -33.4772 -33.4771
   -33.4441 -33.4441 -33.4233 -33.4233 -33.4201 -33.4200 -33.4199 -33.4198
   -33.4091 -33.4090 -33.4029 -33.4029 -33.3940 -33.3940 -33.3925 -33.3924
   -33.3920 -33.3920 -33.3807 -33.3807 -33.3728 -33.3728 -33.3724 -33.3724
    11.6112  11.6112  12.0139  12.0139  12.3264  12.3264  12.5681  12.5681
    12.5732  12.5732  12.6050  12.6050  12.6224  12.6224  12.6840  12.6840
    12.8003  12.8003  12.8923  12.8923  13.0093  13.0093  13.0214  13.0214
    13.0549  13.0549  13.1321  13.1321  13.1783  13.1783  13.1893  13.1894
    13.3460  13.3460  13.4241  13.4241  13.4360  13.4360  13.4503  13.4503
    13.5318  13.5318  13.5457  13.5457  13.6118  13.6118  13.7843  13.7843
    14.9471  14.9471  14.9531  14.9531  14.9639  14.9639  14.9761  14.9761
    15.0114  15.0114  15.0717  15.0717  15.1169  15.1169  15.1412  15.1412
    15.2088  15.2088  15.2432  15.2432  15.2559  15.2559  15.2754  15.2754
    15.3056  15.3056  15.4988  15.4988  15.6631  15.6631  15.7308  15.7308
    15.8526  15.8526  15.8767  15.8767  16.5732  16.5732  17.5065  17.5065
    20.4506  20.4506  21.0711  21.0711  21.3458  21.3458  21.9287  21.9287
    23.3587  23.3587  23.3841  23.3841  23.8164  23.8164  24.1124  24.1124
    24.7870  24.7870  25.3060  25.3061  25.6127

          k = 0.2575-0.4634-0.4634 ( 18948 PWs)   bands (ev):

   -67.7603 -67.7602 -67.7602 -67.7602 -67.7533 -67.7533 -67.7533 -67.7532
   -67.7428 -67.7427 -67.7427 -67.7426 -67.7376 -67.7376 -67.7376 -67.7375
   -33.5564 -33.5564 -33.5564 -33.5563 -33.5507 -33.5506 -33.5506 -33.5506
   -33.5370 -33.5369 -33.5369 -33.5369 -33.5132 -33.5131 -33.5131 -33.5131
   -33.5061 -33.5060 -33.5060 -33.5060 -33.4937 -33.4936 -33.4936 -33.4936
   -33.4318 -33.4317 -33.4317 -33.4317 -33.4201 -33.4200 -33.4200 -33.4200
   -33.3995 -33.3994 -33.3994 -33.3994 -33.3976 -33.3976 -33.3976 -33.3975
   -33.3871 -33.3870 -33.3870 -33.3870 -33.3723 -33.3722 -33.3722 -33.3722
    11.8305  11.8305  11.8305  11.8305  12.4920  12.4920  12.4920  12.4920
    12.6319  12.6319  12.6319  12.6319  12.6713  12.6713  12.6713  12.6713
    13.0095  13.0095  13.0095  13.0095  13.0106  13.0106  13.0106  13.0106
    13.0778  13.0778  13.0778  13.0778  13.0800  13.0800  13.0800  13.0801
    13.2961  13.2961  13.2961  13.2961  13.4022  13.4022  13.4022  13.4022
    13.5356  13.5356  13.5356  13.5356  13.5552  13.5552  13.5552  13.5552
    14.9841  14.9842  14.9842  14.9842  15.0435  15.0436  15.0436  15.0436
    15.1076  15.1076  15.1076  15.1076  15.1185  15.1185  15.1185  15.1186
    15.1919  15.1919  15.1919  15.1920  15.2894  15.2894  15.2895  15.2895
    15.3873  15.3873  15.3873  15.3873  15.5458  15.5458  15.5458  15.5458
    15.8776  15.8776  15.8776  15.8776  17.0293  17.0293  17.0293  17.0293
    20.9256  20.9256  20.9256  20.9256  21.9550  21.9550  21.9550  21.9550
    23.0811  23.0811  23.0811  23.0811  24.2619  24.2619  24.2619  24.2619
    24.5614  24.5614  24.5614  24.5614  25.7266

          k = 0.3604 0.3604 0.3604 ( 18922 PWs)   bands (ev):

   -67.7629 -67.7583 -67.7583 -67.7583 -67.7549 -67.7549 -67.7549 -67.7524
   -67.7430 -67.7415 -67.7415 -67.7415 -67.7391 -67.7391 -67.7391 -67.7355
   -33.5560 -33.5560 -33.5560 -33.5518 -33.5518 -33.5518 -33.5411 -33.5383
   -33.5383 -33.5300 -33.5300 -33.5300 -33.5292 -33.5292 -33.5141 -33.5141
   -33.5141 -33.5067 -33.5067 -33.5067 -33.5055 -33.5055 -33.5055 -33.4745
   -33.4445 -33.4213 -33.4213 -33.4213 -33.4138 -33.4138 -33.4138 -33.4068
   -33.4068 -33.4032 -33.4032 -33.4032 -33.4032 -33.4032 -33.4032 -33.3950
   -33.3812 -33.3812 -33.3812 -33.3801 -33.3801 -33.3779 -33.3779 -33.3779
    11.5703  12.0766  12.0766  12.0766  12.3376  12.3376  12.3376  12.6183
    12.6640  12.6640  12.6640  12.6855  12.6855  12.8519  12.8519  12.8519
    12.8985  12.8985  12.9124  12.9124  12.9124  12.9297  12.9297  12.9297
    12.9977  13.1313  13.1313  13.1313  13.1663  13.1663  13.1663  13.1913
    13.1913  13.1913  13.2148  13.2148  13.3400  13.3400  13.4302  13.4302
    13.4302  13.4505  13.4505  13.4505  13.4544  13.4544  13.4544  13.7478
    14.9371  14.9371  14.9371  15.0633  15.0633  15.0633  15.0774  15.0774
    15.0774  15.0813  15.0813  15.0919  15.1511  15.1511  15.1511  15.2011
    15.2011  15.2330  15.2330  15.2330  15.2474  15.2474  15.2474  15.3284
    15.3284  15.6077  15.6077  15.6830  15.6830  15.6830  15.7144  15.7144
    15.7144  15.7612  15.7612  15.7612  16.5397  16.5397  16.5397  17.5044
    21.1581  21.1581  21.1581  21.5241  21.5241  21.5241  22.9092  22.9092
    22.9303  22.9303  22.9303  23.4737  23.4865  23.4865  23.8174  24.5171
    24.5171  24.5171  24.8073  24.8073  24.8073

          k = 0.3604 0.3604-0.4634 ( 18946 PWs)   bands (ev):

   -67.7608 -67.7608 -67.7568 -67.7568 -67.7567 -67.7567 -67.7538 -67.7537
   -67.7422 -67.7421 -67.7402 -67.7402 -67.7401 -67.7401 -67.7371 -67.7371
   -33.5523 -33.5523 -33.5523 -33.5522 -33.5464 -33.5463 -33.5438 -33.5437
   -33.5356 -33.5356 -33.5273 -33.5272 -33.5184 -33.5184 -33.5179 -33.5179
   -33.5179 -33.5178 -33.5138 -33.5138 -33.5138 -33.5138 -33.4902 -33.4901
   -33.4325 -33.4324 -33.4117 -33.4117 -33.4116 -33.4116 -33.4106 -33.4106
   -33.4063 -33.4063 -33.4063 -33.4063 -33.3982 -33.3982 -33.3930 -33.3929
   -33.3907 -33.3907 -33.3805 -33.3805 -33.3805 -33.3805 -33.3783 -33.3782
    11.8370  11.8370  12.2503  12.2503  12.2503  12.2503  12.6375  12.6375
    12.6989  12.6989  12.7654  12.7654  12.7960  12.7960  12.7960  12.7960
    12.8606  12.8606  12.9000  12.9000  13.0112  13.0112  13.0112  13.0113
    13.0901  13.0901  13.0901  13.0901  13.1513  13.1513  13.1575  13.1575
    13.1692  13.1692  13.1895  13.1895  13.2648  13.2648  13.2648  13.2648
    13.3267  13.3267  13.3267  13.3267  13.4073  13.4073  13.5146  13.5146
    15.0132  15.0132  15.0173  15.0173  15.0173  15.0173  15.1304  15.1304
    15.1452  15.1452  15.1452  15.1452  15.1647  15.1647  15.2192  15.2192
    15.2217  15.2217  15.2290  15.2290  15.2290  15.2290  15.3704  15.3704
    15.4060  15.4060  15.4840  15.4840  15.6770  15.6770  15.6770  15.6770
    15.6915  15.6915  16.1333  16.1333  16.1333  16.1333  17.0122  17.0122
    21.5341  21.5341  21.5341  21.5341  22.1825  22.1825  22.3328  22.3328
    23.0629  23.0629  23.5474  23.5474  23.5474  23.5474  24.0919  24.0919
    24.1109  24.1110  24.2467  24.2467  25.0046

          k = 0.3604-0.4634-0.4634 ( 18932 PWs)   bands (ev):

   -67.7590 -67.7589 -67.7589 -67.7589 -67.7554 -67.7554 -67.7554 -67.7553
   -67.7411 -67.7410 -67.7410 -67.7410 -67.7385 -67.7385 -67.7385 -67.7384
   -33.5472 -33.5472 -33.5472 -33.5471 -33.5444 -33.5443 -33.5443 -33.5443
   -33.5268 -33.5268 -33.5268 -33.5267 -33.5248 -33.5248 -33.5248 -33.5248
   -33.5217 -33.5216 -33.5216 -33.5216 -33.5042 -33.5041 -33.5041 -33.5041
   -33.4216 -33.4215 -33.4215 -33.4215 -33.4051 -33.4050 -33.4050 -33.4050
   -33.4043 -33.4042 -33.4042 -33.4042 -33.3954 -33.3953 -33.3953 -33.3953
   -33.3889 -33.3889 -33.3889 -33.3889 -33.3807 -33.3807 -33.3807 -33.3806
    12.0749  12.0749  12.0749  12.0749  12.5038  12.5039  12.5039  12.5039
    12.8260  12.8260  12.8260  12.8260  12.8420  12.8420  12.8420  12.8420
    13.0153  13.0153  13.0153  13.0153  13.0353  13.0353  13.0353  13.0353
    13.0540  13.0540  13.0540  13.0540  13.0573  13.0573  13.0573  13.0573
    13.0756  13.0756  13.0756  13.0757  13.1836  13.1836  13.1836  13.1836
    13.2936  13.2936  13.2936  13.2936  13.3055  13.3055  13.3055  13.3055
    15.0509  15.0509  15.0509  15.0509  15.0877  15.0877  15.0877  15.0877
    15.1650  15.1650  15.1650  15.1650  15.2118  15.2118  15.2118  15.2118
    15.2495  15.2495  15.2495  15.2496  15.3019  15.3019  15.3019  15.3019
    15.5193  15.5193  15.5193  15.5193  15.6568  15.6568  15.6568  15.6568
    15.7513  15.7513  15.7513  15.7513  16.5599  16.5600  16.5600  16.5600
    22.0218  22.0218  22.0218  22.0219  22.4841  22.4841  22.4841  22.4841
    23.2288  23.2288  23.2288  23.2288  23.8123  23.8124  23.8124  23.8124
    23.8536  23.8536  23.8536  23.8536  24.4962

          k =-0.4634-0.4634-0.4634 ( 19064 PWs)   bands (ev):

   -67.7574 -67.7573 -67.7573 -67.7573 -67.7573 -67.7573 -67.7573 -67.7572
   -67.7397 -67.7396 -67.7396 -67.7396 -67.7396 -67.7396 -67.7396 -67.7395
   -33.5355 -33.5355 -33.5355 -33.5355 -33.5355 -33.5355 -33.5355 -33.5355
   -33.5354 -33.5354 -33.5354 -33.5354 -33.5354 -33.5354 -33.5354 -33.5354
   -33.5159 -33.5158 -33.5158 -33.5158 -33.5158 -33.5158 -33.5158 -33.5158
   -33.4123 -33.4123 -33.4123 -33.4123 -33.4122 -33.4122 -33.4122 -33.4122
   -33.3921 -33.3921 -33.3920 -33.3920 -33.3920 -33.3920 -33.3920 -33.3920
   -33.3920 -33.3920 -33.3920 -33.3919 -33.3919 -33.3919 -33.3919 -33.3919
    12.3421  12.3421  12.3421  12.3421  12.3421  12.3421  12.3421  12.3421
    13.0313  13.0313  13.0313  13.0313  13.0313  13.0313  13.0313  13.0313
    13.0313  13.0313  13.0313  13.0313  13.0313  13.0313  13.0314  13.0314
    13.0514  13.0514  13.0514  13.0514  13.0514  13.0514  13.0514  13.0514
    13.0591  13.0591  13.0591  13.0591  13.0591  13.0591  13.0591  13.0591
    13.0591  13.0591  13.0591  13.0591  13.0591  13.0591  13.0591  13.0591
    15.1295  15.1295  15.1295  15.1295  15.1295  15.1295  15.1295  15.1295
    15.1295  15.1295  15.1295  15.1295  15.1295  15.1295  15.1295  15.1295
    15.4382  15.4382  15.4382  15.4382  15.4382  15.4382  15.4382  15.4382
    15.4382  15.4382  15.4382  15.4382  15.4382  15.4382  15.4382  15.4382
    16.1404  16.1404  16.1404  16.1404  16.1404  16.1404  16.1404  16.1404
    23.1129  23.1129  23.1129  23.1129  23.1129  23.1130  23.1130  23.1130
    23.1130  23.1130  23.1130  23.1130  23.1130  23.1130  23.1130  23.1130
    23.6199  23.6199  23.6199  23.6199  23.6199

     the Fermi energy is    15.8697 ev

!    total energy              =   -8192.25040077 Ry

     total all-electron energy =   -161472.677254 Ry
     estimated scf accuracy    <       0.00000010 Ry
     smearing contrib. (-TS)   =       0.15598175 Ry
     internal energy E=F+TS    =   -8192.40638252 Ry

     The total energy is F=E-TS. E is the sum of the following terms:
     one-electron contribution =   -1469.35941652 Ry
     hartree contribution      =     912.40623523 Ry
     xc contribution           =    -492.07277564 Ry
     ewald contribution        =   -3059.74878936 Ry
     one-center paw contrib.   =   -4083.63163623 Ry

     convergence has been achieved in  13 iterations

     Forces acting on atoms (cartesian axes, Ry/au):

     atom    1 type  1   force =     0.00000000    0.00000000    0.00000000
     atom    2 type  1   force =     0.00015117    0.00015117    0.00015117
     atom    3 type  1   force =     0.00000000    0.00000000    0.00000000
     atom    4 type  1   force =     0.00015117    0.00015117   -0.00015117
     atom    5 type  1   force =     0.00000000    0.00000000    0.00000000
     atom    6 type  1   force =     0.00015117   -0.00015117    0.00015117
     atom    7 type  1   force =     0.00000000    0.00000000    0.00000000
     atom    8 type  1   force =     0.00015117   -0.00015117   -0.00015117
     atom    9 type  1   force =     0.00000000    0.00000000    0.00000000
     atom   10 type  1   force =    -0.00015117    0.00015117    0.00015117
     atom   11 type  1   force =     0.00000000    0.00000000    0.00000000
     atom   12 type  1   force =    -0.00015117    0.00015117   -0.00015117
     atom   13 type  1   force =     0.00000000    0.00000000    0.00000000
     atom   14 type  1   force =    -0.00015117   -0.00015117    0.00015117
     atom   15 type  1   force =     0.00000000    0.00000000    0.00000000
     atom   16 type  1   force =    -0.00015117   -0.00015117   -0.00015117

     Total force =     0.000741     Total SCF correction =     0.000039


     Computing stress (Cartesian axis) and pressure

          total   stress  (Ry/bohr**3)                   (kbar)     P=     -165.49
  -0.00112495   0.00000000   0.00000000         -165.49        0.00        0.00
   0.00000000  -0.00112495   0.00000000            0.00     -165.49        0.00
   0.00000000   0.00000000  -0.00112495            0.00        0.00     -165.49


     Writing output data file /scratch/mNyjTBZZYRnoVlUV.save/
 
     init_run     :      4.05s CPU      4.21s WALL (       1 calls)
     electrons    :    191.45s CPU    194.84s WALL (       1 calls)
     forces       :      1.40s CPU      1.44s WALL (       1 calls)
     stress       :      3.08s CPU      3.10s WALL (       1 calls)

     Called by init_run:
     wfcinit      :      3.75s CPU      3.83s WALL (       1 calls)
     potinit      :      0.09s CPU      0.10s WALL (       1 calls)
     hinit0       :      0.05s CPU      0.05s WALL (       1 calls)

     Called by electrons:
     c_bands      :    166.86s CPU    169.54s WALL (      14 calls)
     sum_band     :     22.90s CPU     23.44s WALL (      14 calls)
     v_of_rho     :      0.35s CPU      0.36s WALL (      14 calls)
     newd         :      0.19s CPU      0.26s WALL (      14 calls)
     PAW_pot      :      0.99s CPU      1.08s WALL (      14 calls)
     mix_rho      :      0.06s CPU      0.06s WALL (      14 calls)

     Called by c_bands:
     init_us_2    :      0.58s CPU      0.62s WALL (    1085 calls)
     cegterg      :    164.49s CPU    167.09s WALL (     490 calls)

     Called by *egterg:
     cdiaghg      :     22.68s CPU     22.81s WALL (    1372 calls)
     h_psi        :    100.94s CPU    103.12s WALL (    1442 calls)
     s_psi        :      2.82s CPU      2.85s WALL (    1442 calls)
     g_psi        :      0.12s CPU      0.12s WALL (     917 calls)

     Called by h_psi:
     h_psi:calbec :      7.05s CPU      7.14s WALL (    1442 calls)
     vloc_psi     :     90.47s CPU     92.53s WALL (    1442 calls)
     add_vuspsi   :      3.13s CPU      3.17s WALL (    1442 calls)

     General routines
     calbec       :     11.21s CPU     11.33s WALL (    2107 calls)
     fft          :      0.32s CPU      0.33s WALL (     206 calls)
     ffts         :      0.01s CPU      0.02s WALL (      28 calls)
     fftw         :    106.98s CPU    109.37s WALL (  480342 calls)
     interpolate  :      0.02s CPU      0.03s WALL (      14 calls)
 
     Parallel routines
     fft_scatt_xy :      3.60s CPU      3.67s WALL (  480576 calls)
     fft_scatt_yz :     96.79s CPU     99.04s WALL (  480576 calls)
 
     PWSCF        :   3m25.76s CPU   3m30.13s WALL

 
   This run was terminated on:  23:25:36  29Nov2021            

=------------------------------------------------------------------------------=
   JOB DONE.
=------------------------------------------------------------------------------=
