
     Program PWSCF v.6.7MaX starts on 29Nov2021 at 23:57:56 

     This program is part of the open-source Quantum ESPRESSO suite
     for quantum simulation of materials; please cite
         "P. Giannozzi et al., J. Phys.:Condens. Matter 21 395502 (2009);
         "P. Giannozzi et al., J. Phys.:Condens. Matter 29 465901 (2017);
          URL http://www.quantum-espresso.org", 
     in publications or presentations arising from this work. More details at
     http://www.quantum-espresso.org/quote

     Parallel version (MPI & OpenMP), running on      72 processor cores
     Number of MPI processes:                72
     Threads/MPI process:                     1

     MPI processes distributed on     1 nodes
     R & G space division:  proc/nbgrp/npool/nimage =      72
     Reading input from bcc_13.in
Warning: card &CELL ignored
Warning: card CELL_DYNAMICS = 'BFGS', ignored
Warning: card CELL_FACTOR = 2.0, ignored
Warning: card PRESS = 0.0, ignored
Warning: card / ignored

     Current dimensions of program PWSCF are:
     Max number of different atomic species (ntypx) = 10
     Max number of k-points (npk) =  40000
     Max angular momentum in pseudopotentials (lmaxx) =  3
     file Pd.pbe-spn-kjpaw_psl.1.0.0.UPF: wavefunction(s)  4S 5S 4D renormalized

     Subspace diagonalization in iterative solution of the eigenvalue problem:
     one sub-group per band group will be used
     ELPA distributed-memory algorithm (size of sub-group:  8*  8 procs)

     Found symmetry operation: I + (  0.2500  0.2500  0.2500)
     This is a supercell, fractional translations are disabled
     Message from routine setup:
     using ibrav=0 with symmetry is DISCOURAGED, use correct ibrav instead
 
     Parallelization info
     --------------------
     sticks:   dense  smooth     PW     G-vecs:    dense   smooth      PW
     Min         147      97     26                11391     6119     852
     Max         148      98     27                11394     6122     857
     Sum       10597    7009   1885               820225   440623   61445
 


     bravais-lattice index     =            0
     lattice parameter (alat)  =      11.4293  a.u.
     unit-cell volume          =    5447.2013 (a.u.)^3
     number of atoms/cell      =           16
     number of atomic types    =            1
     number of electrons       =       288.00
     number of Kohn-Sham states=          173
     kinetic-energy cutoff     =      71.0000  Ry
     charge density cutoff     =     430.0000  Ry
     scf convergence threshold =      1.0E-06
     mixing beta               =       0.1000
     number of iterations used =           10  TF        mixing
     Exchange-correlation= SLA  PW   PBX  PBC
                           (   1   4   3   4   0   0   0)

     celldm(1)=  11.429280  celldm(2)=   0.000000  celldm(3)=   0.000000
     celldm(4)=   0.000000  celldm(5)=   0.000000  celldm(6)=   0.000000

     crystal axes: (cart. coord. in units of alat)
               a(1) = (   1.539474   0.000000   0.000000 )  
               a(2) = (   0.000000   1.539474   0.000000 )  
               a(3) = (   0.000000   0.000000   1.539474 )  

     reciprocal axes: (cart. coord. in units 2 pi/alat)
               b(1) = (  0.649573  0.000000  0.000000 )  
               b(2) = (  0.000000  0.649573  0.000000 )  
               b(3) = (  0.000000  0.000000  0.649573 )  


     PseudoPot. # 1 for Pd read from file:
     /rds/homes/b/bxp912/pp/Pd.pbe-spn-kjpaw_psl.1.0.0.UPF
     MD5 check sum: 790f2ebce206edfd9790dcb9844eca51
     Pseudo is Projector augmented-wave + core cor, Zval = 18.0
     Generated using &quot;atomic&quot; code by A. Dal Corso  v.6.3
     Shape of augmentation charge: PSQ
     Using radial grid of 1235 points,  6 beta functions with: 
                l(1) =   0
                l(2) =   0
                l(3) =   1
                l(4) =   1
                l(5) =   2
                l(6) =   2
     Q(r) pseudized with 0 coefficients 


     atomic species   valence    mass     pseudopotential
        Pd            18.00   106.42000     Pd( 1.00)

     48 Sym. Ops., with inversion, found



   Cartesian axes

     site n.     atom                  positions (alat units)
         1           Pd  tau(   1) = (   0.0000000   0.0000000   0.0000000  )
         2           Pd  tau(   2) = (   0.3848684   0.3848684   0.3848684  )
         3           Pd  tau(   3) = (   0.0000000   0.0000000   0.7697368  )
         4           Pd  tau(   4) = (   0.3848684   0.3848684   1.1546053  )
         5           Pd  tau(   5) = (   0.0000000   0.7697368   0.0000000  )
         6           Pd  tau(   6) = (   0.3848684   1.1546053   0.3848684  )
         7           Pd  tau(   7) = (   0.0000000   0.7697368   0.7697368  )
         8           Pd  tau(   8) = (   0.3848684   1.1546053   1.1546053  )
         9           Pd  tau(   9) = (   0.7697368   0.0000000   0.0000000  )
        10           Pd  tau(  10) = (   1.1546053   0.3848684   0.3848684  )
        11           Pd  tau(  11) = (   0.7697368   0.0000000   0.7697368  )
        12           Pd  tau(  12) = (   1.1546053   0.3848684   1.1546053  )
        13           Pd  tau(  13) = (   0.7697368   0.7697368   0.0000000  )
        14           Pd  tau(  14) = (   1.1546053   1.1546053   0.3848684  )
        15           Pd  tau(  15) = (   0.7697368   0.7697368   0.7697368  )
        16           Pd  tau(  16) = (   1.1546053   1.1546053   1.1546053  )

     number of k points=    35  Marzari-Vanderbilt smearing, width (Ry)=  0.0400
                       cart. coord. in units 2pi/alat
        k(    1) = (   0.0360874   0.0360874   0.0360874), wk =   0.0219479
        k(    2) = (   0.0360874   0.0360874   0.1082621), wk =   0.0658436
        k(    3) = (   0.0360874   0.0360874   0.1804368), wk =   0.0658436
        k(    4) = (   0.0360874   0.0360874   0.2526116), wk =   0.0658436
        k(    5) = (   0.0360874   0.0360874  -0.3247863), wk =   0.0329218
        k(    6) = (   0.0360874   0.1082621   0.1082621), wk =   0.0658436
        k(    7) = (   0.0360874   0.1082621   0.1804368), wk =   0.1316872
        k(    8) = (   0.0360874   0.1082621   0.2526116), wk =   0.1316872
        k(    9) = (   0.0360874   0.1082621  -0.3247863), wk =   0.0658436
        k(   10) = (   0.0360874   0.1804368   0.1804368), wk =   0.0658436
        k(   11) = (   0.0360874   0.1804368   0.2526116), wk =   0.1316872
        k(   12) = (   0.0360874   0.1804368  -0.3247863), wk =   0.0658436
        k(   13) = (   0.0360874   0.2526116   0.2526116), wk =   0.0658436
        k(   14) = (   0.0360874   0.2526116  -0.3247863), wk =   0.0658436
        k(   15) = (   0.0360874  -0.3247863  -0.3247863), wk =   0.0164609
        k(   16) = (   0.1082621   0.1082621   0.1082621), wk =   0.0219479
        k(   17) = (   0.1082621   0.1082621   0.1804368), wk =   0.0658436
        k(   18) = (   0.1082621   0.1082621   0.2526116), wk =   0.0658436
        k(   19) = (   0.1082621   0.1082621  -0.3247863), wk =   0.0329218
        k(   20) = (   0.1082621   0.1804368   0.1804368), wk =   0.0658436
        k(   21) = (   0.1082621   0.1804368   0.2526116), wk =   0.1316872
        k(   22) = (   0.1082621   0.1804368  -0.3247863), wk =   0.0658436
        k(   23) = (   0.1082621   0.2526116   0.2526116), wk =   0.0658436
        k(   24) = (   0.1082621   0.2526116  -0.3247863), wk =   0.0658436
        k(   25) = (   0.1082621  -0.3247863  -0.3247863), wk =   0.0164609
        k(   26) = (   0.1804368   0.1804368   0.1804368), wk =   0.0219479
        k(   27) = (   0.1804368   0.1804368   0.2526116), wk =   0.0658436
        k(   28) = (   0.1804368   0.1804368  -0.3247863), wk =   0.0329218
        k(   29) = (   0.1804368   0.2526116   0.2526116), wk =   0.0658436
        k(   30) = (   0.1804368   0.2526116  -0.3247863), wk =   0.0658436
        k(   31) = (   0.1804368  -0.3247863  -0.3247863), wk =   0.0164609
        k(   32) = (   0.2526116   0.2526116   0.2526116), wk =   0.0219479
        k(   33) = (   0.2526116   0.2526116  -0.3247863), wk =   0.0329218
        k(   34) = (   0.2526116  -0.3247863  -0.3247863), wk =   0.0164609
        k(   35) = (  -0.3247863  -0.3247863  -0.3247863), wk =   0.0027435

     Dense  grid:   820225 G-vectors     FFT dimensions: ( 120, 120, 120)

     Smooth grid:   440623 G-vectors     FFT dimensions: (  96,  96,  96)

     Estimated max dynamical RAM per process >     125.48 MB

     Estimated total dynamical RAM >       8.82 GB

     Initial potential from superposition of free atoms

     starting charge  287.99388, renormalised to  288.00000
     Starting wfcs are  160 randomized atomic wfcs +   13 random wfcs
     Checking if some PAW data can be deallocated... 

     total cpu time spent up to now is        9.4 secs

     Self-consistent Calculation

     iteration #  1     ecut=    71.00 Ry     beta= 0.10
     Davidson diagonalization with overlap
     ethr =  1.00E-02,  avg # of iterations =  4.4

     total cpu time spent up to now is       39.4 secs

     total energy              =   -8190.59030948 Ry
     estimated scf accuracy    <      11.14858163 Ry

     iteration #  2     ecut=    71.00 Ry     beta= 0.10
     Davidson diagonalization with overlap
     ethr =  3.87E-03,  avg # of iterations =  1.0

     total cpu time spent up to now is       57.2 secs

     total energy              =   -8187.32285237 Ry
     estimated scf accuracy    <       8.17593503 Ry

     iteration #  3     ecut=    71.00 Ry     beta= 0.10
     Davidson diagonalization with overlap
     ethr =  2.84E-03,  avg # of iterations =  2.0

     total cpu time spent up to now is       85.5 secs

     total energy              =   -8188.87805105 Ry
     estimated scf accuracy    <       2.76794678 Ry

     iteration #  4     ecut=    71.00 Ry     beta= 0.10
     Davidson diagonalization with overlap
     ethr =  9.61E-04,  avg # of iterations =  1.2

     total cpu time spent up to now is      104.4 secs

     total energy              =   -8188.81588438 Ry
     estimated scf accuracy    <       0.71872142 Ry

     iteration #  5     ecut=    71.00 Ry     beta= 0.10
     Davidson diagonalization with overlap
     ethr =  2.50E-04,  avg # of iterations =  1.4

     total cpu time spent up to now is      123.3 secs

     total energy              =   -8188.79335441 Ry
     estimated scf accuracy    <       0.23646753 Ry

     iteration #  6     ecut=    71.00 Ry     beta= 0.10
     Davidson diagonalization with overlap
     ethr =  8.21E-05,  avg # of iterations =  2.6

     total cpu time spent up to now is      153.8 secs

     total energy              =   -8188.88434617 Ry
     estimated scf accuracy    <       2.51720776 Ry

     iteration #  7     ecut=    71.00 Ry     beta= 0.10
     Davidson diagonalization with overlap
     ethr =  8.21E-05,  avg # of iterations =  2.0

     total cpu time spent up to now is      173.0 secs

     total energy              =   -8188.88160803 Ry
     estimated scf accuracy    <       1.04961356 Ry

     iteration #  8     ecut=    71.00 Ry     beta= 0.10
     Davidson diagonalization with overlap
     ethr =  8.21E-05,  avg # of iterations =  1.0

     total cpu time spent up to now is      189.4 secs

     total energy              =   -8188.87618558 Ry
     estimated scf accuracy    <       0.85842980 Ry

     iteration #  9     ecut=    71.00 Ry     beta= 0.10
     Davidson diagonalization with overlap
     ethr =  8.21E-05,  avg # of iterations =  1.2

     total cpu time spent up to now is      207.5 secs

     total energy              =   -8188.81739804 Ry
     estimated scf accuracy    <       0.91153738 Ry

     iteration # 10     ecut=    71.00 Ry     beta= 0.10
     Davidson diagonalization with overlap
     ethr =  8.21E-05,  avg # of iterations =  1.2

     total cpu time spent up to now is      224.9 secs

     total energy              =   -8188.78132130 Ry
     estimated scf accuracy    <       0.47754143 Ry

     iteration # 11     ecut=    71.00 Ry     beta= 0.10
     Davidson diagonalization with overlap
     ethr =  8.21E-05,  avg # of iterations =  1.2

     total cpu time spent up to now is      243.5 secs

     total energy              =   -8188.77747397 Ry
     estimated scf accuracy    <       0.24959583 Ry

     iteration # 12     ecut=    71.00 Ry     beta= 0.10
     Davidson diagonalization with overlap
     ethr =  8.21E-05,  avg # of iterations =  1.0

     total cpu time spent up to now is      260.5 secs

     total energy              =   -8188.74550425 Ry
     estimated scf accuracy    <       0.24173876 Ry

     iteration # 13     ecut=    71.00 Ry     beta= 0.10
     Davidson diagonalization with overlap
     ethr =  8.21E-05,  avg # of iterations =  1.4

     total cpu time spent up to now is      277.5 secs

     total energy              =   -8188.73828940 Ry
     estimated scf accuracy    <       0.06188123 Ry

     iteration # 14     ecut=    71.00 Ry     beta= 0.10
     Davidson diagonalization with overlap
     ethr =  2.15E-05,  avg # of iterations =  4.3

     total cpu time spent up to now is      298.2 secs

     total energy              =   -8188.74395582 Ry
     estimated scf accuracy    <       0.00081200 Ry

     iteration # 15     ecut=    71.00 Ry     beta= 0.10
     Davidson diagonalization with overlap
     ethr =  2.82E-07,  avg # of iterations =  4.8

     total cpu time spent up to now is      327.3 secs

     total energy              =   -8188.74422718 Ry
     estimated scf accuracy    <       0.00100910 Ry

     iteration # 16     ecut=    71.00 Ry     beta= 0.10
     Davidson diagonalization with overlap
     ethr =  2.82E-07,  avg # of iterations =  1.0

     total cpu time spent up to now is      344.3 secs

     total energy              =   -8188.74415299 Ry
     estimated scf accuracy    <       0.00187137 Ry

     iteration # 17     ecut=    71.00 Ry     beta= 0.10
     Davidson diagonalization with overlap
     ethr =  2.82E-07,  avg # of iterations =  1.7

     total cpu time spent up to now is      361.5 secs

     total energy              =   -8188.74422164 Ry
     estimated scf accuracy    <       0.00006994 Ry

     iteration # 18     ecut=    71.00 Ry     beta= 0.10
     Davidson diagonalization with overlap
     ethr =  2.43E-08,  avg # of iterations =  2.0

     total cpu time spent up to now is      381.6 secs

     total energy              =   -8188.74422603 Ry
     estimated scf accuracy    <       0.00000644 Ry

     iteration # 19     ecut=    71.00 Ry     beta= 0.10
     Davidson diagonalization with overlap
     ethr =  2.24E-09,  avg # of iterations =  3.0

     total cpu time spent up to now is      407.0 secs

     total energy              =   -8188.74423129 Ry
     estimated scf accuracy    <       0.00000828 Ry

     iteration # 20     ecut=    71.00 Ry     beta= 0.10
     Davidson diagonalization with overlap
     ethr =  2.24E-09,  avg # of iterations =  1.0

     total cpu time spent up to now is      422.9 secs

     total energy              =   -8188.74423232 Ry
     estimated scf accuracy    <       0.00000472 Ry

     iteration # 21     ecut=    71.00 Ry     beta= 0.10
     Davidson diagonalization with overlap
     ethr =  1.64E-09,  avg # of iterations =  1.0

     total cpu time spent up to now is      441.4 secs

     total energy              =   -8188.74423259 Ry
     estimated scf accuracy    <       0.00000359 Ry

     iteration # 22     ecut=    71.00 Ry     beta= 0.10
     Davidson diagonalization with overlap
     ethr =  1.25E-09,  avg # of iterations =  1.3

     total cpu time spent up to now is      458.8 secs

     total energy              =   -8188.74423647 Ry
     estimated scf accuracy    <       0.00000219 Ry

     iteration # 23     ecut=    71.00 Ry     beta= 0.10
     Davidson diagonalization with overlap
     ethr =  7.61E-10,  avg # of iterations =  3.1

     total cpu time spent up to now is      484.1 secs

     total energy              =   -8188.74423166 Ry
     estimated scf accuracy    <       0.00003096 Ry

     iteration # 24     ecut=    71.00 Ry     beta= 0.10
     Davidson diagonalization with overlap
     ethr =  7.61E-10,  avg # of iterations =  3.0

     total cpu time spent up to now is      510.1 secs

     End of self-consistent calculation

          k = 0.0361 0.0361 0.0361 ( 55068 PWs)   bands (ev):

   -80.0940 -80.0940 -80.0940 -80.0939 -80.0939 -80.0939 -80.0939 -80.0939
   -80.0939 -80.0939 -80.0939 -80.0939 -80.0939 -80.0939 -80.0938 -80.0938
   -45.8877 -45.8877 -45.8877 -45.8877 -45.8877 -45.8877 -45.8873 -45.8873
   -45.8872 -45.8867 -45.8867 -45.8867 -45.8866 -45.8866 -45.8866 -45.8865
   -45.8865 -45.8865 -45.8865 -45.8865 -45.8865 -45.8864 -45.8864 -45.8864
   -45.8864 -45.8864 -45.8864 -45.8864 -45.8864 -45.8863 -45.8863 -45.8863
   -45.8863 -45.8863 -45.8863 -45.8863 -45.8862 -45.8862 -45.8862 -45.8857
   -45.8857 -45.8857 -45.8855 -45.8855 -45.8855 -45.8855 -45.8855 -45.8855
     0.5897   1.2572   1.2572   1.2572   1.2598   1.2598   1.2598   1.3085
     1.3085   1.3900   1.3900   1.3900   1.3924   1.3924   1.3924   1.4823
     1.5039   1.5039   1.5257   1.5257   1.5307   1.5307   1.5307   1.5318
     1.5342   1.5342   1.5342   1.5396   1.5396   1.5396   1.5447   1.5447
     1.5636   1.5690   1.5690   1.5690   1.6262   1.6262   1.6262   1.6337
     1.6337   1.6337   1.6506   1.6506   1.6506   1.6625   1.6625   1.6625
     1.7206   1.7206   1.7206   1.7544   1.7544   1.7544   1.7653   1.7653
     1.7653   1.7667   1.7667   1.7667   1.7845   1.7845   1.7916   1.7916
     1.7916   1.7969   1.7969   1.7969   1.8004   1.8004   1.8005   1.8005
     1.9128   1.9205   1.9205   1.9576   1.9576   1.9576   1.9610   1.9611
     1.9611   2.4380   2.4380   2.4380   2.8160   2.8161   2.8161   4.0796
     4.0796   4.0796   4.3159   4.3160   4.3160   4.8201   4.8201   4.8201
     4.8755   4.8942   5.0561   5.0561   5.0561   6.6183   6.7511   6.9207
     6.9207   7.3715   7.3715   7.6332   7.8646

          k = 0.0361 0.0361 0.1083 ( 55066 PWs)   bands (ev):

   -80.0940 -80.0940 -80.0940 -80.0939 -80.0939 -80.0939 -80.0939 -80.0939
   -80.0939 -80.0939 -80.0939 -80.0939 -80.0939 -80.0939 -80.0938 -80.0938
   -45.8877 -45.8877 -45.8877 -45.8876 -45.8876 -45.8876 -45.8873 -45.8873
   -45.8872 -45.8869 -45.8869 -45.8869 -45.8869 -45.8867 -45.8867 -45.8867
   -45.8867 -45.8866 -45.8866 -45.8865 -45.8865 -45.8865 -45.8864 -45.8864
   -45.8864 -45.8864 -45.8864 -45.8864 -45.8863 -45.8863 -45.8863 -45.8862
   -45.8862 -45.8862 -45.8862 -45.8862 -45.8861 -45.8861 -45.8861 -45.8857
   -45.8856 -45.8856 -45.8855 -45.8855 -45.8855 -45.8855 -45.8855 -45.8855
     0.6347   1.2653   1.2653   1.2728   1.2728   1.2728   1.2748   1.3162
     1.3202   1.3916   1.3943   1.3965   1.3965   1.4038   1.4038   1.4544
     1.4707   1.4903   1.4917   1.4952   1.4952   1.5002   1.5041   1.5041
     1.5212   1.5233   1.5241   1.5275   1.5414   1.5473   1.5473   1.5665
     1.5665   1.5878   1.5931   1.5989   1.6031   1.6032   1.6032   1.6194
     1.6194   1.6282   1.6691   1.6691   1.6799   1.6799   1.6825   1.6874
     1.6978   1.7548   1.7549   1.7582   1.7582   1.7626   1.7626   1.7676
     1.7688   1.7767   1.7767   1.7779   1.7871   1.7872   1.7872   1.7879
     1.7915   1.7917   1.7917   1.7971   1.7986   1.7988   1.8002   1.8005
     1.8963   1.9087   1.9194   1.9341   1.9385   1.9462   1.9462   1.9565
     1.9565   2.1347   2.4843   2.4843   2.8665   2.8665   3.2474   3.7342
     3.7342   4.1142   4.1151   4.1151   4.3361   4.7849   4.8382   4.8910
     5.1103   5.1103   5.1126   5.4905   5.4905   6.3174   6.4956   6.5034
     7.1479   7.4081   7.5771   7.7009   7.8538

          k = 0.0361 0.0361 0.1804 ( 55063 PWs)   bands (ev):

   -80.0940 -80.0940 -80.0940 -80.0939 -80.0939 -80.0939 -80.0939 -80.0939
   -80.0939 -80.0939 -80.0939 -80.0939 -80.0939 -80.0939 -80.0938 -80.0938
   -45.8876 -45.8876 -45.8876 -45.8875 -45.8875 -45.8875 -45.8873 -45.8872
   -45.8872 -45.8871 -45.8871 -45.8870 -45.8870 -45.8869 -45.8869 -45.8869
   -45.8868 -45.8868 -45.8865 -45.8865 -45.8865 -45.8865 -45.8864 -45.8864
   -45.8864 -45.8864 -45.8863 -45.8863 -45.8863 -45.8863 -45.8862 -45.8861
   -45.8861 -45.8861 -45.8861 -45.8860 -45.8860 -45.8859 -45.8859 -45.8857
   -45.8856 -45.8856 -45.8856 -45.8856 -45.8856 -45.8856 -45.8856 -45.8856
     0.7236   1.2838   1.2838   1.2958   1.2958   1.3021   1.3029   1.3312
     1.3426   1.3843   1.3953   1.3985   1.4116   1.4116   1.4236   1.4236
     1.4292   1.4440   1.4440   1.4447   1.4508   1.4597   1.4597   1.4735
     1.4892   1.4921   1.5257   1.5311   1.5397   1.5397   1.5555   1.5565
     1.5565   1.5740   1.5769   1.5941   1.5941   1.6144   1.6144   1.6480
     1.6499   1.6552   1.6580   1.7025   1.7025   1.7049   1.7049   1.7201
     1.7368   1.7372   1.7372   1.7492   1.7492   1.7620   1.7620   1.7648
     1.7719   1.7729   1.7804   1.7804   1.7908   1.7925   1.7951   1.7951
     1.7951   1.7952   1.7975   1.7998   1.8006   1.8198   1.8264   1.8264
     1.8710   1.8861   1.8912   1.8974   1.9107   1.9274   1.9274   1.9412
     1.9441   1.9441   2.5772   2.5773   2.9659   2.9659   3.4144   3.4144
     3.7212   3.8141   3.8141   4.1797   4.3771   4.6543   4.7376   5.0288
     5.2257   5.5883   5.5883   5.8454   5.9879   5.9879   6.1220   6.1830
     7.4871   7.6330   7.6810   7.8228   7.9482

          k = 0.0361 0.0361 0.2526 ( 55059 PWs)   bands (ev):

   -80.0940 -80.0940 -80.0940 -80.0939 -80.0939 -80.0939 -80.0939 -80.0939
   -80.0939 -80.0939 -80.0939 -80.0939 -80.0939 -80.0939 -80.0938 -80.0938
   -45.8875 -45.8875 -45.8875 -45.8875 -45.8874 -45.8874 -45.8872 -45.8872
   -45.8872 -45.8872 -45.8872 -45.8871 -45.8871 -45.8871 -45.8870 -45.8870
   -45.8870 -45.8869 -45.8866 -45.8865 -45.8865 -45.8865 -45.8865 -45.8864
   -45.8864 -45.8864 -45.8863 -45.8863 -45.8863 -45.8863 -45.8860 -45.8860
   -45.8859 -45.8859 -45.8859 -45.8859 -45.8858 -45.8858 -45.8858 -45.8858
   -45.8858 -45.8857 -45.8857 -45.8857 -45.8857 -45.8856 -45.8856 -45.8856
     0.8542   1.2098   1.3121   1.3121   1.3278   1.3278   1.3398   1.3420
     1.3530   1.3738   1.3941   1.3941   1.4015   1.4060   1.4069   1.4124
     1.4124   1.4139   1.4252   1.4336   1.4348   1.4348   1.4508   1.4511
     1.4511   1.4551   1.5010   1.5010   1.5237   1.5237   1.5310   1.5371
     1.5553   1.5584   1.5743   1.6204   1.6204   1.6248   1.6483   1.6483
     1.6910   1.7018   1.7018   1.7072   1.7092   1.7222   1.7222   1.7226
     1.7227   1.7330   1.7330   1.7455   1.7508   1.7508   1.7604   1.7681
     1.7681   1.7776   1.7776   1.7782   1.7873   1.7901   1.7901   1.7981
     1.7993   1.8017   1.8018   1.8344   1.8344   1.8351   1.8384   1.8461
     1.8490   1.8537   1.8550   1.8639   1.8639   1.8954   1.9019   1.9019
     1.9240   1.9240   2.7169   2.7169   3.1123   3.1123   3.1362   3.1362
     3.5389   3.5389   4.2296   4.2712   4.4395   4.5149   4.6259   5.2273
     5.3105   5.3942   5.7794   5.8812   6.1258   6.1258   6.5306   6.5307
     7.3161   7.3161   7.7233   7.7233   7.9210

          k = 0.0361 0.0361-0.3248 ( 55040 PWs)   bands (ev):

   -80.0940 -80.0940 -80.0940 -80.0939 -80.0939 -80.0939 -80.0939 -80.0939
   -80.0939 -80.0939 -80.0939 -80.0939 -80.0939 -80.0939 -80.0939 -80.0938
   -45.8874 -45.8874 -45.8874 -45.8874 -45.8874 -45.8874 -45.8874 -45.8873
   -45.8872 -45.8872 -45.8872 -45.8872 -45.8871 -45.8871 -45.8870 -45.8870
   -45.8870 -45.8869 -45.8866 -45.8865 -45.8865 -45.8865 -45.8865 -45.8865
   -45.8864 -45.8864 -45.8864 -45.8863 -45.8863 -45.8863 -45.8859 -45.8859
   -45.8859 -45.8858 -45.8858 -45.8858 -45.8858 -45.8858 -45.8858 -45.8858
   -45.8858 -45.8858 -45.8857 -45.8857 -45.8857 -45.8857 -45.8857 -45.8856
     1.0209   1.0209   1.3494   1.3494   1.3494   1.3494   1.3674   1.3674
     1.3674   1.3674   1.3775   1.3775   1.3809   1.3809   1.3877   1.3877
     1.4110   1.4110   1.4111   1.4111   1.4239   1.4239   1.4651   1.4651
     1.4651   1.4651   1.4853   1.4853   1.4853   1.4853   1.5405   1.5405
     1.5461   1.5461   1.5976   1.5976   1.6607   1.6607   1.6607   1.6607
     1.6869   1.6869   1.6869   1.6869   1.7207   1.7207   1.7380   1.7380
     1.7381   1.7381   1.7533   1.7533   1.7533   1.7533   1.7631   1.7631
     1.7724   1.7724   1.7840   1.7840   1.7844   1.7844   1.7987   1.7987
     1.8007   1.8007   1.8088   1.8088   1.8179   1.8179   1.8184   1.8184
     1.8704   1.8704   1.8705   1.8705   1.8745   1.8745   1.8969   1.8969
     1.8969   1.8969   2.9033   2.9033   2.9033   2.9033   3.3038   3.3039
     3.3039   3.3039   4.3844   4.3844   4.5235   4.5235   4.7638   4.7638
     5.4795   5.4795   5.6148   5.6148   6.7048   6.7048   6.7048   6.7048
     7.1115   7.1115   7.1115   7.1115   7.9497

          k = 0.0361 0.1083 0.1083 ( 55088 PWs)   bands (ev):

   -80.0940 -80.0940 -80.0940 -80.0939 -80.0939 -80.0939 -80.0939 -80.0939
   -80.0939 -80.0939 -80.0939 -80.0939 -80.0939 -80.0939 -80.0938 -80.0938
   -45.8877 -45.8876 -45.8876 -45.8876 -45.8876 -45.8875 -45.8873 -45.8873
   -45.8872 -45.8870 -45.8870 -45.8870 -45.8870 -45.8869 -45.8868 -45.8867
   -45.8867 -45.8866 -45.8866 -45.8865 -45.8865 -45.8865 -45.8864 -45.8864
   -45.8864 -45.8864 -45.8864 -45.8864 -45.8864 -45.8863 -45.8863 -45.8862
   -45.8862 -45.8862 -45.8861 -45.8861 -45.8860 -45.8860 -45.8859 -45.8857
   -45.8856 -45.8856 -45.8856 -45.8856 -45.8856 -45.8856 -45.8856 -45.8854
     0.6790   1.2675   1.2805   1.2805   1.2866   1.2866   1.2897   1.3253
     1.3300   1.3980   1.3982   1.3982   1.4058   1.4058   1.4197   1.4303
     1.4536   1.4563   1.4563   1.4756   1.4837   1.4837   1.5007   1.5011
     1.5173   1.5218   1.5249   1.5249   1.5285   1.5376   1.5451   1.5567
     1.5594   1.5594   1.6018   1.6123   1.6123   1.6129   1.6288   1.6292
     1.6477   1.6477   1.6634   1.6634   1.6634   1.6799   1.7020   1.7020
     1.7237   1.7237   1.7506   1.7515   1.7610   1.7610   1.7629   1.7650
     1.7650   1.7757   1.7758   1.7765   1.7785   1.7851   1.7914   1.7914
     1.7959   1.7972   1.7977   1.7996   1.8005   1.8054   1.8190   1.8190
     1.8730   1.8995   1.9228   1.9228   1.9230   1.9285   1.9354   1.9354
     1.9590   2.1698   2.1698   2.5327   2.9172   3.2989   3.2989   3.3717
     3.7775   3.7775   4.1490   4.1490   4.3684   4.6459   4.7905   4.9460
     5.1668   5.1668   5.5377   5.5378   5.9415   6.1638   6.4625   6.4849
     7.0170   7.3331   7.4649   7.7275   8.1208

          k = 0.0361 0.1083 0.1804 ( 55081 PWs)   bands (ev):

   -80.0940 -80.0940 -80.0940 -80.0939 -80.0939 -80.0939 -80.0939 -80.0939
   -80.0939 -80.0939 -80.0939 -80.0939 -80.0939 -80.0939 -80.0938 -80.0938
   -45.8876 -45.8876 -45.8876 -45.8876 -45.8875 -45.8874 -45.8873 -45.8872
   -45.8871 -45.8871 -45.8871 -45.8871 -45.8871 -45.8871 -45.8869 -45.8868
   -45.8867 -45.8866 -45.8866 -45.8866 -45.8865 -45.8865 -45.8865 -45.8864
   -45.8864 -45.8864 -45.8864 -45.8863 -45.8863 -45.8863 -45.8862 -45.8862
   -45.8861 -45.8860 -45.8860 -45.8860 -45.8859 -45.8858 -45.8858 -45.8858
   -45.8857 -45.8857 -45.8856 -45.8856 -45.8856 -45.8856 -45.8856 -45.8855
     0.7664   1.2795   1.2977   1.3076   1.3088   1.3114   1.3149   1.3402
     1.3518   1.3732   1.4022   1.4082   1.4085   1.4114   1.4115   1.4136
     1.4257   1.4303   1.4375   1.4438   1.4513   1.4582   1.4604   1.4870
     1.4953   1.5130   1.5175   1.5210   1.5249   1.5297   1.5328   1.5420
     1.5458   1.5768   1.6038   1.6055   1.6216   1.6312   1.6394   1.6414
     1.6467   1.6739   1.6831   1.6931   1.6933   1.6994   1.7057   1.7086
     1.7153   1.7342   1.7390   1.7433   1.7520   1.7560   1.7619   1.7645
     1.7656   1.7661   1.7695   1.7733   1.7787   1.7889   1.7902   1.7914
     1.7936   1.7942   1.7997   1.8019   1.8060   1.8312   1.8417   1.8487
     1.8558   1.8774   1.8810   1.8980   1.9040   1.9055   1.9213   1.9251
     1.9533   1.9553   2.2458   2.6282   3.0168   3.0490   3.4001   3.4625
     3.7719   3.8561   3.8601   4.2136   4.2189   4.4683   4.6782   5.2712
     5.2795   5.6318   5.6351   5.8127   6.0288   6.2160   6.3592   6.4422
     7.2266   7.2529   7.5890   7.6479   7.9061

          k = 0.0361 0.1083 0.2526 ( 55025 PWs)   bands (ev):

   -80.0940 -80.0940 -80.0940 -80.0939 -80.0939 -80.0939 -80.0939 -80.0939
   -80.0939 -80.0939 -80.0939 -80.0939 -80.0939 -80.0939 -80.0939 -80.0938
   -45.8876 -45.8875 -45.8875 -45.8874 -45.8874 -45.8873 -45.8873 -45.8873
   -45.8872 -45.8872 -45.8872 -45.8872 -45.8871 -45.8870 -45.8869 -45.8869
   -45.8868 -45.8867 -45.8866 -45.8865 -45.8865 -45.8865 -45.8865 -45.8864
   -45.8864 -45.8864 -45.8863 -45.8863 -45.8862 -45.8862 -45.8861 -45.8861
   -45.8859 -45.8859 -45.8859 -45.8859 -45.8859 -45.8858 -45.8858 -45.8858
   -45.8857 -45.8857 -45.8857 -45.8857 -45.8857 -45.8856 -45.8856 -45.8855
     0.8939   1.2278   1.3008   1.3235   1.3370   1.3414   1.3456   1.3471
     1.3611   1.3684   1.3827   1.3890   1.3957   1.4085   1.4104   1.4156
     1.4180   1.4226   1.4241   1.4265   1.4371   1.4525   1.4570   1.4586
     1.4751   1.4831   1.4842   1.5007   1.5122   1.5129   1.5273   1.5407
     1.5504   1.5757   1.5916   1.6008   1.6327   1.6543   1.6601   1.6737
     1.6747   1.6916   1.6963   1.7001   1.7036   1.7166   1.7207   1.7229
     1.7238   1.7253   1.7344   1.7383   1.7410   1.7487   1.7512   1.7623
     1.7647   1.7717   1.7746   1.7754   1.7813   1.7841   1.7883   1.7885
     1.7980   1.8007   1.8031   1.8048   1.8066   1.8319   1.8328   1.8467
     1.8535   1.8541   1.8589   1.8739   1.8749   1.8836   1.8897   1.9079
     1.9122   1.9396   2.3698   2.7696   2.7724   3.1627   3.1873   3.5480
     3.5852   3.9686   3.9763   4.2770   4.2873   4.3043   4.5451   5.3297
     5.4471   5.7709   5.7814   5.9275   6.1566   6.1647   6.5645   6.9584
     6.9855   7.2794   7.3244   7.6417   7.6691

          k = 0.0361 0.1083-0.3248 ( 55032 PWs)   bands (ev):

   -80.0940 -80.0940 -80.0940 -80.0939 -80.0939 -80.0939 -80.0939 -80.0939
   -80.0939 -80.0939 -80.0939 -80.0939 -80.0939 -80.0939 -80.0939 -80.0938
   -45.8874 -45.8874 -45.8874 -45.8874 -45.8874 -45.8873 -45.8873 -45.8873
   -45.8872 -45.8872 -45.8872 -45.8872 -45.8871 -45.8871 -45.8870 -45.8870
   -45.8869 -45.8869 -45.8866 -45.8866 -45.8866 -45.8865 -45.8865 -45.8864
   -45.8864 -45.8864 -45.8863 -45.8863 -45.8862 -45.8862 -45.8860 -45.8860
   -45.8859 -45.8859 -45.8859 -45.8858 -45.8858 -45.8858 -45.8858 -45.8858
   -45.8858 -45.8857 -45.8857 -45.8857 -45.8857 -45.8857 -45.8856 -45.8856
     1.0541   1.0541   1.3308   1.3308   1.3568   1.3568   1.3682   1.3682
     1.3736   1.3736   1.3820   1.3820   1.3841   1.3841   1.3874   1.3874
     1.4196   1.4196   1.4273   1.4273   1.4485   1.4485   1.4522   1.4522
     1.4672   1.4672   1.4835   1.4835   1.5122   1.5122   1.5175   1.5175
     1.5541   1.5541   1.6288   1.6288   1.6299   1.6299   1.6650   1.6650
     1.6898   1.6898   1.7098   1.7098   1.7253   1.7253   1.7261   1.7261
     1.7371   1.7371   1.7379   1.7379   1.7475   1.7475   1.7505   1.7505
     1.7644   1.7644   1.7657   1.7657   1.7816   1.7816   1.7820   1.7820
     1.8052   1.8052   1.8104   1.8104   1.8149   1.8149   1.8206   1.8206
     1.8398   1.8398   1.8589   1.8589   1.8853   1.8853   1.8964   1.8964
     1.9181   1.9181   2.5454   2.5454   2.9561   2.9561   3.3528   3.3528
     3.7393   3.7393   4.1205   4.1205   4.4166   4.4166   4.8031   4.8031
     5.6655   5.6656   5.9499   5.9499   6.3512   6.3512   6.7330   6.7330
     7.1348   7.1348   7.4283   7.5646   7.5660

          k = 0.0361 0.1804 0.1804 ( 55027 PWs)   bands (ev):

   -80.0940 -80.0940 -80.0940 -80.0939 -80.0939 -80.0939 -80.0939 -80.0939
   -80.0939 -80.0939 -80.0939 -80.0939 -80.0939 -80.0939 -80.0938 -80.0938
   -45.8876 -45.8875 -45.8875 -45.8875 -45.8875 -45.8874 -45.8873 -45.8872
   -45.8872 -45.8872 -45.8872 -45.8872 -45.8871 -45.8870 -45.8869 -45.8868
   -45.8867 -45.8866 -45.8865 -45.8865 -45.8865 -45.8865 -45.8865 -45.8865
   -45.8864 -45.8864 -45.8864 -45.8864 -45.8864 -45.8863 -45.8862 -45.8861
   -45.8861 -45.8860 -45.8859 -45.8859 -45.8859 -45.8858 -45.8858 -45.8858
   -45.8857 -45.8857 -45.8856 -45.8856 -45.8856 -45.8856 -45.8856 -45.8855
     0.8502   1.2829   1.3223   1.3223   1.3275   1.3275   1.3397   1.3539
     1.3540   1.3549   1.3722   1.3916   1.4108   1.4131   1.4191   1.4191
     1.4192   1.4325   1.4325   1.4425   1.4425   1.4447   1.4716   1.4962
     1.5017   1.5061   1.5061   1.5117   1.5156   1.5156   1.5219   1.5262
     1.5397   1.6033   1.6334   1.6381   1.6381   1.6410   1.6457   1.6515
     1.6515   1.6515   1.6799   1.6976   1.7012   1.7012   1.7062   1.7279
     1.7279   1.7312   1.7372   1.7372   1.7388   1.7388   1.7562   1.7562
     1.7568   1.7633   1.7633   1.7644   1.7740   1.7740   1.7861   1.7897
     1.7907   1.7941   1.8013   1.8048   1.8051   1.8190   1.8403   1.8558
     1.8691   1.8691   1.8746   1.8817   1.8817   1.8924   1.8924   1.9278
     1.9547   1.9947   1.9947   2.7269   2.7271   3.1161   3.5543   3.5544
     3.8711   3.8711   3.9368   3.9368   4.2501   4.4782   4.5300   5.1855
     5.6730   5.7276   5.7276   6.1087   6.1087   6.3000   6.4971   6.8785
     6.9430   7.2071   7.2793   7.2793   7.6498

          k = 0.0361 0.1804 0.2526 ( 55014 PWs)   bands (ev):

   -80.0940 -80.0940 -80.0940 -80.0939 -80.0939 -80.0939 -80.0939 -80.0939
   -80.0939 -80.0939 -80.0939 -80.0939 -80.0939 -80.0939 -80.0939 -80.0938
   -45.8876 -45.8875 -45.8874 -45.8874 -45.8874 -45.8874 -45.8873 -45.8873
   -45.8873 -45.8872 -45.8872 -45.8871 -45.8871 -45.8871 -45.8869 -45.8868
   -45.8867 -45.8867 -45.8866 -45.8866 -45.8865 -45.8865 -45.8865 -45.8865
   -45.8864 -45.8864 -45.8864 -45.8864 -45.8863 -45.8862 -45.8861 -45.8861
   -45.8860 -45.8859 -45.8859 -45.8859 -45.8859 -45.8858 -45.8858 -45.8858
   -45.8857 -45.8857 -45.8857 -45.8856 -45.8856 -45.8856 -45.8855 -45.8855
     0.9701   1.2534   1.2937   1.3316   1.3418   1.3486   1.3507   1.3509
     1.3681   1.3735   1.3780   1.3931   1.3933   1.4027   1.4129   1.4198
     1.4232   1.4261   1.4319   1.4445   1.4487   1.4592   1.4737   1.4786
     1.4823   1.4946   1.4965   1.5044   1.5055   1.5061   1.5074   1.5482
     1.5538   1.5931   1.6219   1.6335   1.6372   1.6425   1.6562   1.6723
     1.6776   1.6777   1.6980   1.7028   1.7032   1.7160   1.7193   1.7226
     1.7233   1.7240   1.7257   1.7294   1.7370   1.7485   1.7503   1.7532
     1.7535   1.7574   1.7592   1.7635   1.7687   1.7703   1.7756   1.7836
     1.7846   1.7891   1.7916   1.8047   1.8124   1.8260   1.8314   1.8329
     1.8407   1.8529   1.8561   1.8563   1.8564   1.8816   1.9029   1.9107
     1.9268   1.9479   2.0824   2.4539   2.8706   3.2605   3.2849   3.6746
     3.6842   4.0145   4.0377   4.0513   4.3579   4.3683   4.3884   5.3395
     5.5324   5.8626   6.2057   6.2227   6.2390   6.4771   6.6278   6.6559
     6.7625   7.0247   7.3086   7.4785   7.4855

          k = 0.0361 0.1804-0.3248 ( 55058 PWs)   bands (ev):

   -80.0940 -80.0940 -80.0940 -80.0939 -80.0939 -80.0939 -80.0939 -80.0939
   -80.0939 -80.0939 -80.0939 -80.0939 -80.0939 -80.0939 -80.0939 -80.0938
   -45.8875 -45.8875 -45.8874 -45.8874 -45.8874 -45.8874 -45.8874 -45.8873
   -45.8873 -45.8873 -45.8873 -45.8873 -45.8870 -45.8870 -45.8868 -45.8868
   -45.8867 -45.8867 -45.8866 -45.8866 -45.8866 -45.8866 -45.8865 -45.8865
   -45.8864 -45.8864 -45.8864 -45.8864 -45.8861 -45.8861 -45.8861 -45.8861
   -45.8861 -45.8861 -45.8859 -45.8859 -45.8858 -45.8858 -45.8858 -45.8858
   -45.8858 -45.8857 -45.8857 -45.8857 -45.8856 -45.8856 -45.8855 -45.8855
     1.1136   1.1136   1.3105   1.3105   1.3650   1.3650   1.3661   1.3661
     1.3750   1.3750   1.3799   1.3799   1.3957   1.3957   1.3971   1.3971
     1.4395   1.4395   1.4466   1.4466   1.4552   1.4552   1.4752   1.4752
     1.4762   1.4762   1.4864   1.4864   1.4928   1.4928   1.5452   1.5452
     1.5805   1.5805   1.5936   1.5936   1.6674   1.6674   1.6676   1.6676
     1.6882   1.6882   1.7057   1.7057   1.7175   1.7175   1.7202   1.7202
     1.7210   1.7210   1.7295   1.7295   1.7351   1.7351   1.7402   1.7402
     1.7415   1.7415   1.7716   1.7716   1.7763   1.7763   1.7767   1.7767
     1.7918   1.7918   1.8069   1.8069   1.8083   1.8083   1.8127   1.8127
     1.8279   1.8279   1.8436   1.8436   1.8675   1.8675   1.9182   1.9182
     1.9331   1.9331   2.2362   2.2362   3.0566   3.0566   3.4475   3.4475
     3.8469   3.8469   4.1939   4.1939   4.1945   4.1945   4.8727   4.8727
     6.0310   6.0310   6.0633   6.0633   6.3575   6.3575   6.7794   6.7794
     6.8397   6.8397   7.1702   7.1702   7.9418

          k = 0.0361 0.2526 0.2526 ( 55008 PWs)   bands (ev):

   -80.0940 -80.0940 -80.0940 -80.0939 -80.0939 -80.0939 -80.0939 -80.0939
   -80.0939 -80.0939 -80.0939 -80.0939 -80.0939 -80.0939 -80.0939 -80.0938
   -45.8875 -45.8874 -45.8874 -45.8874 -45.8874 -45.8874 -45.8874 -45.8873
   -45.8873 -45.8873 -45.8872 -45.8872 -45.8870 -45.8869 -45.8868 -45.8868
   -45.8867 -45.8866 -45.8866 -45.8866 -45.8865 -45.8865 -45.8865 -45.8865
   -45.8864 -45.8864 -45.8864 -45.8864 -45.8863 -45.8863 -45.8861 -45.8861
   -45.8861 -45.8860 -45.8860 -45.8859 -45.8858 -45.8858 -45.8858 -45.8857
   -45.8857 -45.8857 -45.8857 -45.8857 -45.8855 -45.8855 -45.8855 -45.8855
     1.0733   1.2734   1.2735   1.2891   1.3595   1.3595   1.3617   1.3617
     1.3717   1.3820   1.3837   1.3876   1.3882   1.3988   1.4153   1.4153
     1.4333   1.4336   1.4607   1.4607   1.4697   1.4697   1.4759   1.4759
     1.4807   1.4936   1.5052   1.5062   1.5109   1.5109   1.5149   1.5431
     1.5827   1.5950   1.6307   1.6307   1.6478   1.6564   1.6650   1.6703
     1.6705   1.6934   1.6934   1.6936   1.6936   1.7113   1.7113   1.7189
     1.7217   1.7295   1.7301   1.7301   1.7340   1.7411   1.7411   1.7507
     1.7541   1.7551   1.7551   1.7598   1.7598   1.7599   1.7599   1.7763
     1.7779   1.7877   1.7919   1.7983   1.8026   1.8101   1.8201   1.8310
     1.8326   1.8326   1.8499   1.8540   1.8540   1.8792   1.8792   1.9256
     1.9256   1.9342   1.9485   2.1867   3.0148   3.4020   3.4230   3.4230
     3.8024   3.8024   3.8035   4.1530   4.4942   4.4942   4.6546   5.2477
     5.5199   6.3380   6.3380   6.3919   6.4165   6.4225   6.4226   6.7074
     6.7074   6.7126   7.1675   7.4864   7.5430

          k = 0.0361 0.2526-0.3248 ( 54968 PWs)   bands (ev):

   -80.0940 -80.0940 -80.0940 -80.0939 -80.0939 -80.0939 -80.0939 -80.0939
   -80.0939 -80.0939 -80.0939 -80.0939 -80.0939 -80.0939 -80.0939 -80.0938
   -45.8875 -45.8875 -45.8874 -45.8874 -45.8873 -45.8873 -45.8873 -45.8873
   -45.8873 -45.8873 -45.8873 -45.8873 -45.8869 -45.8869 -45.8867 -45.8867
   -45.8867 -45.8867 -45.8865 -45.8865 -45.8865 -45.8865 -45.8865 -45.8865
   -45.8864 -45.8864 -45.8863 -45.8863 -45.8863 -45.8863 -45.8862 -45.8862
   -45.8860 -45.8860 -45.8859 -45.8859 -45.8857 -45.8857 -45.8857 -45.8857
   -45.8857 -45.8857 -45.8857 -45.8857 -45.8855 -45.8855 -45.8855 -45.8855
     1.1836   1.1837   1.2840   1.2840   1.3676   1.3676   1.3711   1.3711
     1.3721   1.3721   1.3796   1.3796   1.4023   1.4023   1.4045   1.4045
     1.4483   1.4483   1.4708   1.4708   1.4721   1.4721   1.4823   1.4823
     1.4891   1.4891   1.4979   1.4979   1.4995   1.4995   1.5511   1.5511
     1.5854   1.5854   1.6361   1.6361   1.6634   1.6634   1.6738   1.6738
     1.6756   1.6756   1.6767   1.6767   1.6856   1.6856   1.7143   1.7143
     1.7280   1.7280   1.7435   1.7436   1.7449   1.7450   1.7454   1.7454
     1.7478   1.7478   1.7564   1.7564   1.7675   1.7675   1.7682   1.7682
     1.7690   1.7690   1.7874   1.7874   1.7996   1.7996   1.8183   1.8183
     1.8316   1.8316   1.8330   1.8330   1.8509   1.8509   1.9337   1.9337
     1.9411   1.9411   1.9841   1.9841   3.1993   3.1993   3.5837   3.5837
     3.5970   3.5970   3.9638   3.9638   4.6267   4.6267   4.9419   4.9419
     5.8812   5.8812   6.2996   6.2996   6.4289   6.4289   6.7659   6.7659
     6.8092   6.8092   7.1802   7.1802   7.7957

          k = 0.0361-0.3248-0.3248 ( 55052 PWs)   bands (ev):

   -80.0940 -80.0940 -80.0940 -80.0939 -80.0939 -80.0939 -80.0939 -80.0939
   -80.0939 -80.0939 -80.0939 -80.0939 -80.0939 -80.0939 -80.0939 -80.0938
   -45.8876 -45.8876 -45.8875 -45.8875 -45.8873 -45.8873 -45.8873 -45.8873
   -45.8873 -45.8873 -45.8873 -45.8873 -45.8868 -45.8868 -45.8868 -45.8868
   -45.8866 -45.8866 -45.8865 -45.8865 -45.8865 -45.8865 -45.8865 -45.8865
   -45.8864 -45.8864 -45.8864 -45.8864 -45.8864 -45.8864 -45.8863 -45.8863
   -45.8860 -45.8860 -45.8860 -45.8860 -45.8858 -45.8858 -45.8858 -45.8858
   -45.8857 -45.8857 -45.8857 -45.8857 -45.8855 -45.8855 -45.8855 -45.8855
     1.2435   1.2435   1.2436   1.2436   1.3718   1.3718   1.3718   1.3718
     1.3737   1.3737   1.3737   1.3737   1.4058   1.4058   1.4058   1.4058
     1.4571   1.4571   1.4571   1.4571   1.4959   1.4959   1.4959   1.4959
     1.5074   1.5074   1.5074   1.5074   1.5096   1.5096   1.5096   1.5096
     1.6280   1.6280   1.6280   1.6280   1.6618   1.6618   1.6618   1.6618
     1.6690   1.6690   1.6690   1.6690   1.7090   1.7090   1.7090   1.7090
     1.7451   1.7451   1.7451   1.7451   1.7478   1.7478   1.7478   1.7478
     1.7562   1.7562   1.7562   1.7562   1.7587   1.7587   1.7587   1.7587
     1.7896   1.7897   1.7897   1.7897   1.8060   1.8060   1.8060   1.8060
     1.8239   1.8239   1.8239   1.8239   1.8396   1.8396   1.8396   1.8396
     1.9414   1.9414   1.9414   1.9414   3.3801   3.3801   3.3802   3.3802
     3.7573   3.7573   3.7573   3.7573   4.9083   4.9083   4.9083   4.9083
     5.9291   5.9291   5.9291   5.9291   6.7236   6.7236   6.7236   6.7236
     7.0706   7.0706   7.0706   7.0706   7.8476

          k = 0.1083 0.1083 0.1083 ( 55107 PWs)   bands (ev):

   -80.0940 -80.0940 -80.0940 -80.0939 -80.0939 -80.0939 -80.0939 -80.0939
   -80.0939 -80.0939 -80.0939 -80.0939 -80.0939 -80.0939 -80.0938 -80.0938
   -45.8877 -45.8877 -45.8877 -45.8875 -45.8875 -45.8875 -45.8873 -45.8873
   -45.8871 -45.8871 -45.8871 -45.8871 -45.8870 -45.8868 -45.8868 -45.8867
   -45.8867 -45.8867 -45.8866 -45.8866 -45.8866 -45.8865 -45.8865 -45.8865
   -45.8863 -45.8863 -45.8863 -45.8863 -45.8863 -45.8863 -45.8862 -45.8862
   -45.8862 -45.8862 -45.8862 -45.8860 -45.8859 -45.8859 -45.8859 -45.8858
   -45.8856 -45.8856 -45.8856 -45.8856 -45.8856 -45.8856 -45.8855 -45.8855
     0.7227   1.2836   1.2836   1.2836   1.3016   1.3016   1.3016   1.3370
     1.3370   1.3994   1.3994   1.3994   1.4087   1.4218   1.4218   1.4218
     1.4370   1.4370   1.4370   1.4704   1.4704   1.4907   1.4907   1.4907
     1.5097   1.5097   1.5097   1.5186   1.5186   1.5537   1.5537   1.5537
     1.5752   1.5805   1.5805   1.6134   1.6134   1.6134   1.6217   1.6324
     1.6324   1.6324   1.6655   1.6655   1.6655   1.7085   1.7085   1.7085
     1.7489   1.7489   1.7489   1.7553   1.7553   1.7553   1.7558   1.7558
     1.7558   1.7652   1.7652   1.7652   1.7793   1.7793   1.7960   1.7960
     1.7960   1.7971   1.7971   1.7992   1.7992   1.8335   1.8335   1.8335
     1.8450   1.9028   1.9028   1.9028   1.9112   1.9112   1.9400   1.9400
     1.9400   2.2107   2.2107   2.2107   3.3499   3.3499   3.3499   3.4206
     3.4206   3.4206   4.3893   4.3894   4.3894   4.4372   4.8274   5.0150
     5.0150   5.0150   5.9829   5.9830   5.9830   6.0575   6.5692   6.6030
     6.6030   7.3928   7.3928   7.9447   7.9447

          k = 0.1083 0.1083 0.1804 ( 55035 PWs)   bands (ev):

   -80.0940 -80.0940 -80.0940 -80.0939 -80.0939 -80.0939 -80.0939 -80.0939
   -80.0939 -80.0939 -80.0939 -80.0939 -80.0939 -80.0939 -80.0938 -80.0938
   -45.8876 -45.8876 -45.8876 -45.8875 -45.8874 -45.8874 -45.8873 -45.8872
   -45.8872 -45.8872 -45.8871 -45.8871 -45.8870 -45.8869 -45.8868 -45.8868
   -45.8867 -45.8867 -45.8866 -45.8866 -45.8865 -45.8865 -45.8865 -45.8865
   -45.8865 -45.8864 -45.8863 -45.8863 -45.8863 -45.8862 -45.8862 -45.8861
   -45.8861 -45.8861 -45.8861 -45.8860 -45.8859 -45.8858 -45.8858 -45.8858
   -45.8856 -45.8856 -45.8856 -45.8856 -45.8856 -45.8856 -45.8855 -45.8855
     0.8087   1.2954   1.2954   1.3136   1.3220   1.3249   1.3249   1.3507
     1.3593   1.3698   1.3910   1.4024   1.4067   1.4067   1.4095   1.4096
     1.4286   1.4451   1.4451   1.4467   1.4576   1.4670   1.4682   1.4682
     1.4946   1.5116   1.5175   1.5175   1.5213   1.5256   1.5256   1.5489
     1.5493   1.5777   1.6002   1.6126   1.6126   1.6275   1.6336   1.6336
     1.6436   1.6528   1.6834   1.6920   1.6920   1.7143   1.7143   1.7162
     1.7162   1.7345   1.7439   1.7445   1.7476   1.7476   1.7586   1.7586
     1.7622   1.7681   1.7694   1.7850   1.7858   1.7858   1.7902   1.7902
     1.7931   1.7953   1.7963   1.7971   1.8030   1.8095   1.8569   1.8569
     1.8573   1.8599   1.8778   1.8778   1.8888   1.9064   1.9155   1.9363
     1.9363   1.9782   2.2951   2.2951   3.1022   3.1022   3.4499   3.4499
     3.5137   3.8215   4.2127   4.2515   4.2515   4.4317   4.7726   5.1493
     5.3273   5.3273   5.7813   6.0645   6.2253   6.4782   6.4782   6.5786
     6.9124   7.1866   7.5547   7.5548   7.7226

          k = 0.1083 0.1083 0.2526 ( 55033 PWs)   bands (ev):

   -80.0940 -80.0940 -80.0940 -80.0939 -80.0939 -80.0939 -80.0939 -80.0939
   -80.0939 -80.0939 -80.0939 -80.0939 -80.0939 -80.0939 -80.0939 -80.0938
   -45.8875 -45.8875 -45.8875 -45.8874 -45.8873 -45.8873 -45.8873 -45.8873
   -45.8873 -45.8872 -45.8872 -45.8872 -45.8872 -45.8870 -45.8869 -45.8869
   -45.8868 -45.8866 -45.8866 -45.8866 -45.8866 -45.8866 -45.8865 -45.8865
   -45.8863 -45.8863 -45.8863 -45.8863 -45.8862 -45.8862 -45.8862 -45.8860
   -45.8860 -45.8860 -45.8859 -45.8859 -45.8859 -45.8858 -45.8857 -45.8857
   -45.8857 -45.8857 -45.8857 -45.8857 -45.8857 -45.8857 -45.8856 -45.8855
     0.9333   1.2472   1.3153   1.3153   1.3443   1.3539   1.3554   1.3554
     1.3706   1.3734   1.3734   1.3765   1.3901   1.4078   1.4253   1.4284
     1.4284   1.4290   1.4304   1.4304   1.4397   1.4447   1.4633   1.4736
     1.4736   1.4889   1.4889   1.5105   1.5111   1.5233   1.5233   1.5258
     1.5399   1.5406   1.6083   1.6083   1.6303   1.6711   1.6711   1.6740
     1.6742   1.6742   1.6855   1.6871   1.7042   1.7073   1.7235   1.7235
     1.7238   1.7238   1.7342   1.7396   1.7396   1.7412   1.7412   1.7517
     1.7695   1.7711   1.7748   1.7753   1.7753   1.7826   1.7878   1.7889
     1.7945   1.7965   1.7970   1.8007   1.8091   1.8091   1.8122   1.8520
     1.8520   1.8571   1.8580   1.8666   1.8827   1.8828   1.8828   1.9116
     1.9247   1.9247   2.4253   2.4253   2.8288   2.8288   3.5958   3.5959
     3.6446   3.9990   4.0091   4.0091   4.3229   4.4956   4.6776   5.3435
     5.3461   5.8267   5.8267   5.8868   6.1823   6.4762   6.9731   6.9731
     7.0148   7.0148   7.1711   7.3440   7.4728

          k = 0.1083 0.1083-0.3248 ( 54962 PWs)   bands (ev):

   -80.0940 -80.0940 -80.0940 -80.0939 -80.0939 -80.0939 -80.0939 -80.0939
   -80.0939 -80.0939 -80.0939 -80.0939 -80.0939 -80.0939 -80.0939 -80.0938
   -45.8874 -45.8874 -45.8874 -45.8874 -45.8874 -45.8873 -45.8873 -45.8873
   -45.8872 -45.8872 -45.8871 -45.8871 -45.8871 -45.8870 -45.8870 -45.8870
   -45.8867 -45.8867 -45.8866 -45.8866 -45.8866 -45.8866 -45.8866 -45.8866
   -45.8864 -45.8864 -45.8862 -45.8862 -45.8862 -45.8862 -45.8860 -45.8860
   -45.8859 -45.8859 -45.8859 -45.8859 -45.8858 -45.8858 -45.8858 -45.8858
   -45.8857 -45.8857 -45.8856 -45.8856 -45.8856 -45.8856 -45.8855 -45.8855
     1.0872   1.0872   1.3419   1.3419   1.3419   1.3419   1.3623   1.3623
     1.3914   1.3914   1.3914   1.3914   1.3958   1.3958   1.3985   1.3986
     1.4163   1.4163   1.4263   1.4263   1.4553   1.4553   1.4554   1.4554
     1.4736   1.4736   1.5032   1.5033   1.5033   1.5033   1.5183   1.5183
     1.5322   1.5322   1.6347   1.6347   1.6347   1.6347   1.6658   1.6658
     1.7105   1.7105   1.7105   1.7105   1.7118   1.7118   1.7276   1.7276
     1.7310   1.7310   1.7316   1.7316   1.7316   1.7316   1.7402   1.7402
     1.7525   1.7525   1.7525   1.7525   1.7804   1.7804   1.7817   1.7817
     1.7968   1.7968   1.8123   1.8123   1.8216   1.8216   1.8295   1.8295
     1.8295   1.8295   1.8324   1.8324   1.9004   1.9004   1.9063   1.9063
     1.9063   1.9063   2.6030   2.6030   2.6030   2.6030   3.7842   3.7842
     3.7842   3.7842   3.8077   3.8078   4.5797   4.5797   4.8403   4.8403
     5.5912   5.5913   6.3270   6.3270   6.3853   6.3853   6.3854   6.3854
     7.2822   7.2822   7.5848   7.5849   7.5849

          k = 0.1083 0.1804 0.1804 ( 55025 PWs)   bands (ev):

   -80.0940 -80.0940 -80.0940 -80.0939 -80.0939 -80.0939 -80.0939 -80.0939
   -80.0939 -80.0939 -80.0939 -80.0939 -80.0939 -80.0939 -80.0939 -80.0938
   -45.8876 -45.8875 -45.8875 -45.8874 -45.8874 -45.8874 -45.8873 -45.8873
   -45.8872 -45.8872 -45.8872 -45.8872 -45.8871 -45.8868 -45.8868 -45.8868
   -45.8868 -45.8868 -45.8867 -45.8866 -45.8866 -45.8866 -45.8865 -45.8865
   -45.8863 -45.8863 -45.8863 -45.8863 -45.8862 -45.8862 -45.8862 -45.8861
   -45.8861 -45.8860 -45.8860 -45.8860 -45.8859 -45.8858 -45.8858 -45.8857
   -45.8857 -45.8857 -45.8856 -45.8856 -45.8856 -45.8856 -45.8856 -45.8855
     0.8913   1.3004   1.3246   1.3246   1.3407   1.3407   1.3486   1.3599
     1.3600   1.3667   1.3780   1.3787   1.3948   1.4131   1.4131   1.4140
     1.4337   1.4514   1.4514   1.4542   1.4542   1.4704   1.4710   1.4712
     1.4938   1.5023   1.5063   1.5063   1.5154   1.5154   1.5212   1.5240
     1.5599   1.6119   1.6119   1.6140   1.6179   1.6179   1.6258   1.6272
     1.6321   1.6446   1.6781   1.7013   1.7015   1.7015   1.7102   1.7102
     1.7269   1.7388   1.7439   1.7440   1.7560   1.7560   1.7592   1.7635
     1.7635   1.7675   1.7698   1.7715   1.7715   1.7818   1.7852   1.7852
     1.7899   1.7940   1.7945   1.7963   1.8026   1.8062   1.8356   1.8356
     1.8432   1.8622   1.8771   1.8800   1.8800   1.9063   1.9063   1.9160
     1.9391   2.0356   2.0356   2.3903   2.7852   3.2025   3.2025   3.5474
     3.9186   3.9186   3.9577   4.3142   4.3142   4.5005   4.7363   5.2514
     5.4386   5.4387   5.6556   6.2538   6.5476   6.5476   6.7617   6.7989
     6.9371   6.9740   7.2552   7.2552   7.3838

          k = 0.1083 0.1804 0.2526 ( 55028 PWs)   bands (ev):

   -80.0940 -80.0940 -80.0940 -80.0939 -80.0939 -80.0939 -80.0939 -80.0939
   -80.0939 -80.0939 -80.0939 -80.0939 -80.0939 -80.0939 -80.0939 -80.0938
   -45.8876 -45.8875 -45.8875 -45.8874 -45.8873 -45.8873 -45.8873 -45.8873
   -45.8873 -45.8872 -45.8872 -45.8871 -45.8871 -45.8870 -45.8869 -45.8867
   -45.8867 -45.8867 -45.8867 -45.8867 -45.8867 -45.8867 -45.8866 -45.8865
   -45.8864 -45.8863 -45.8862 -45.8862 -45.8862 -45.8862 -45.8861 -45.8861
   -45.8861 -45.8860 -45.8859 -45.8859 -45.8859 -45.8858 -45.8858 -45.8857
   -45.8857 -45.8857 -45.8857 -45.8856 -45.8856 -45.8856 -45.8856 -45.8855
     1.0085   1.2751   1.3116   1.3401   1.3445   1.3552   1.3612   1.3668
     1.3707   1.3770   1.3774   1.3851   1.4079   1.4157   1.4208   1.4272
     1.4310   1.4343   1.4347   1.4358   1.4611   1.4687   1.4764   1.4788
     1.4791   1.4954   1.4988   1.4993   1.5023   1.5037   1.5285   1.5295
     1.5340   1.5731   1.5899   1.6178   1.6368   1.6449   1.6522   1.6527
     1.6663   1.6682   1.6708   1.6722   1.7002   1.7197   1.7210   1.7226
     1.7268   1.7344   1.7360   1.7386   1.7415   1.7497   1.7514   1.7537
     1.7563   1.7582   1.7606   1.7671   1.7701   1.7782   1.7801   1.7842
     1.7883   1.7885   1.7936   1.7973   1.8059   1.8131   1.8136   1.8174
     1.8254   1.8491   1.8709   1.8732   1.8735   1.8985   1.8991   1.9022
     1.9167   1.9338   2.1412   2.5170   2.5286   2.9338   3.3426   3.6893
     3.7233   4.0587   4.0875   4.4029   4.4111   4.4199   4.6315   5.3512
     5.5873   5.6028   5.9149   6.0558   6.6428   6.6786   6.7981   6.8107
     6.9719   7.0141   7.0680   7.1032   7.5100

          k = 0.1083 0.1804-0.3248 ( 55022 PWs)   bands (ev):

   -80.0940 -80.0940 -80.0940 -80.0939 -80.0939 -80.0939 -80.0939 -80.0939
   -80.0939 -80.0939 -80.0939 -80.0939 -80.0939 -80.0939 -80.0939 -80.0938
   -45.8875 -45.8875 -45.8874 -45.8874 -45.8874 -45.8873 -45.8873 -45.8873
   -45.8873 -45.8873 -45.8871 -45.8871 -45.8870 -45.8870 -45.8869 -45.8869
   -45.8867 -45.8867 -45.8867 -45.8867 -45.8866 -45.8866 -45.8866 -45.8866
   -45.8863 -45.8863 -45.8862 -45.8862 -45.8862 -45.8862 -45.8861 -45.8861
   -45.8861 -45.8861 -45.8859 -45.8859 -45.8858 -45.8858 -45.8858 -45.8858
   -45.8858 -45.8858 -45.8856 -45.8856 -45.8856 -45.8856 -45.8855 -45.8855
     1.1466   1.1466   1.3272   1.3272   1.3583   1.3583   1.3643   1.3643
     1.3941   1.3941   1.3991   1.3991   1.4069   1.4069   1.4070   1.4070
     1.4376   1.4376   1.4435   1.4435   1.4490   1.4490   1.4644   1.4644
     1.4957   1.4957   1.4967   1.4967   1.4986   1.4986   1.5267   1.5267
     1.5437   1.5437   1.5984   1.5984   1.6379   1.6379   1.6812   1.6812
     1.6838   1.6838   1.6969   1.6969   1.7090   1.7090   1.7159   1.7159
     1.7245   1.7245   1.7344   1.7344   1.7393   1.7393   1.7416   1.7416
     1.7432   1.7432   1.7448   1.7448   1.7772   1.7772   1.7785   1.7785
     1.7993   1.7993   1.8043   1.8043   1.8079   1.8079   1.8146   1.8146
     1.8197   1.8197   1.8391   1.8391   1.8869   1.8869   1.9110   1.9110
     1.9211   1.9211   2.3015   2.3015   2.7094   2.7094   3.5172   3.5172
     3.8717   3.8717   4.2338   4.2339   4.5121   4.5121   4.9054   4.9055
     5.8138   5.8138   6.1052   6.1052   6.4451   6.4451   6.7453   6.7453
     6.8479   6.8479   7.5894   7.5894   7.6100

          k = 0.1083 0.2526 0.2526 ( 55046 PWs)   bands (ev):

   -80.0940 -80.0940 -80.0940 -80.0939 -80.0939 -80.0939 -80.0939 -80.0939
   -80.0939 -80.0939 -80.0939 -80.0939 -80.0939 -80.0939 -80.0939 -80.0938
   -45.8876 -45.8874 -45.8874 -45.8874 -45.8874 -45.8874 -45.8873 -45.8873
   -45.8873 -45.8873 -45.8873 -45.8871 -45.8870 -45.8869 -45.8869 -45.8869
   -45.8868 -45.8867 -45.8867 -45.8867 -45.8867 -45.8866 -45.8866 -45.8866
   -45.8863 -45.8863 -45.8863 -45.8863 -45.8862 -45.8862 -45.8861 -45.8861
   -45.8861 -45.8860 -45.8860 -45.8859 -45.8858 -45.8858 -45.8858 -45.8858
   -45.8858 -45.8857 -45.8857 -45.8857 -45.8856 -45.8855 -45.8855 -45.8855
     1.1098   1.2969   1.2969   1.3103   1.3665   1.3665   1.3704   1.3733
     1.3733   1.3764   1.3986   1.4001   1.4012   1.4218   1.4280   1.4280
     1.4340   1.4372   1.4475   1.4475   1.4728   1.4728   1.4752   1.4809
     1.4911   1.4911   1.5007   1.5022   1.5093   1.5093   1.5286   1.5371
     1.5455   1.5947   1.6033   1.6033   1.6235   1.6298   1.6298   1.6425
     1.6439   1.6566   1.6651   1.6652   1.6821   1.7114   1.7114   1.7208
     1.7328   1.7341   1.7341   1.7373   1.7481   1.7521   1.7582   1.7582
     1.7608   1.7608   1.7626   1.7626   1.7637   1.7637   1.7774   1.7842
     1.7848   1.7848   1.7849   1.7913   1.8000   1.8106   1.8106   1.8143
     1.8248   1.8263   1.8669   1.8696   1.8696   1.9156   1.9156   1.9222
     1.9335   1.9335   1.9351   2.2587   2.6730   3.0792   3.0793   3.4755
     3.8249   4.1994   4.1994   4.4926   4.5320   4.5320   4.6779   5.2603
     5.5826   6.0381   6.0381   6.2176   6.4507   6.4560   6.4560   6.8501
     7.0653   7.0852   7.1291   7.1291   7.8903

          k = 0.1083 0.2526-0.3248 ( 55002 PWs)   bands (ev):

   -80.0940 -80.0940 -80.0940 -80.0939 -80.0939 -80.0939 -80.0939 -80.0939
   -80.0939 -80.0939 -80.0939 -80.0939 -80.0939 -80.0939 -80.0939 -80.0938
   -45.8875 -45.8875 -45.8874 -45.8874 -45.8874 -45.8874 -45.8874 -45.8874
   -45.8873 -45.8873 -45.8871 -45.8871 -45.8870 -45.8870 -45.8868 -45.8868
   -45.8867 -45.8867 -45.8867 -45.8867 -45.8867 -45.8867 -45.8865 -45.8865
   -45.8863 -45.8863 -45.8862 -45.8862 -45.8862 -45.8862 -45.8862 -45.8862
   -45.8860 -45.8860 -45.8859 -45.8859 -45.8858 -45.8858 -45.8858 -45.8858
   -45.8857 -45.8857 -45.8856 -45.8856 -45.8856 -45.8856 -45.8855 -45.8855
     1.2158   1.2158   1.3073   1.3073   1.3719   1.3719   1.3728   1.3728
     1.3865   1.3865   1.3969   1.3969   1.4150   1.4150   1.4166   1.4166
     1.4493   1.4493   1.4667   1.4667   1.4731   1.4731   1.4734   1.4734
     1.4791   1.4791   1.5038   1.5038   1.5163   1.5163   1.5459   1.5459
     1.5680   1.5680   1.5801   1.5801   1.6372   1.6372   1.6390   1.6390
     1.6531   1.6531   1.6672   1.6672   1.6739   1.6739   1.6971   1.6971
     1.7469   1.7469   1.7476   1.7476   1.7476   1.7476   1.7481   1.7481
     1.7569   1.7569   1.7690   1.7690   1.7736   1.7736   1.7751   1.7751
     1.7918   1.7918   1.7943   1.7943   1.8040   1.8040   1.8116   1.8116
     1.8133   1.8133   1.8436   1.8436   1.8666   1.8666   1.9224   1.9224
     1.9287   1.9287   2.0620   2.0620   2.8563   2.8563   3.2604   3.2604
     3.9977   3.9977   4.3384   4.3384   4.6570   4.6570   4.9679   4.9679
     5.9338   5.9338   6.1706   6.1706   6.3477   6.3477   6.4993   6.4993
     7.1563   7.1563   7.4150   7.4150   7.6017

          k = 0.1083-0.3248-0.3248 ( 55028 PWs)   bands (ev):

   -80.0940 -80.0940 -80.0940 -80.0939 -80.0939 -80.0939 -80.0939 -80.0939
   -80.0939 -80.0939 -80.0939 -80.0939 -80.0939 -80.0939 -80.0939 -80.0938
   -45.8875 -45.8875 -45.8875 -45.8875 -45.8874 -45.8874 -45.8874 -45.8874
   -45.8872 -45.8872 -45.8872 -45.8872 -45.8869 -45.8869 -45.8869 -45.8869
   -45.8867 -45.8867 -45.8867 -45.8867 -45.8866 -45.8866 -45.8865 -45.8865
   -45.8863 -45.8863 -45.8863 -45.8863 -45.8861 -45.8861 -45.8861 -45.8861
   -45.8860 -45.8860 -45.8860 -45.8859 -45.8858 -45.8858 -45.8858 -45.8858
   -45.8857 -45.8857 -45.8857 -45.8857 -45.8856 -45.8856 -45.8855 -45.8855
     1.2726   1.2726   1.2726   1.2726   1.3802   1.3802   1.3802   1.3802
     1.3854   1.3854   1.3854   1.3854   1.4188   1.4188   1.4188   1.4188
     1.4572   1.4572   1.4572   1.4572   1.4846   1.4846   1.4846   1.4846
     1.5114   1.5114   1.5114   1.5114   1.5168   1.5168   1.5168   1.5168
     1.5972   1.5972   1.5972   1.5972   1.6384   1.6384   1.6384   1.6384
     1.6384   1.6384   1.6384   1.6384   1.6545   1.6545   1.6545   1.6545
     1.7517   1.7517   1.7517   1.7517   1.7585   1.7585   1.7585   1.7585
     1.7683   1.7683   1.7683   1.7683   1.7698   1.7698   1.7698   1.7698
     1.7881   1.7882   1.7882   1.7882   1.8085   1.8086   1.8086   1.8086
     1.8515   1.8515   1.8515   1.8515   1.8959   1.8959   1.8959   1.8959
     1.9290   1.9290   1.9290   1.9290   3.0401   3.0401   3.0401   3.0401
     4.1568   4.1568   4.1568   4.1568   4.9300   4.9300   4.9300   4.9300
     5.9894   5.9894   5.9894   5.9894   6.4461   6.4461   6.4461   6.4461
     7.4532   7.4532   7.4532   7.4532   7.4701

          k = 0.1804 0.1804 0.1804 ( 55050 PWs)   bands (ev):

   -80.0940 -80.0940 -80.0940 -80.0939 -80.0939 -80.0939 -80.0939 -80.0939
   -80.0939 -80.0939 -80.0939 -80.0939 -80.0939 -80.0939 -80.0939 -80.0938
   -45.8875 -45.8875 -45.8875 -45.8873 -45.8873 -45.8873 -45.8873 -45.8873
   -45.8873 -45.8873 -45.8873 -45.8872 -45.8870 -45.8870 -45.8868 -45.8868
   -45.8868 -45.8867 -45.8867 -45.8867 -45.8867 -45.8866 -45.8866 -45.8866
   -45.8863 -45.8863 -45.8863 -45.8862 -45.8862 -45.8862 -45.8861 -45.8861
   -45.8861 -45.8860 -45.8860 -45.8860 -45.8859 -45.8857 -45.8857 -45.8857
   -45.8857 -45.8857 -45.8857 -45.8856 -45.8856 -45.8856 -45.8856 -45.8856
     0.9709   1.3328   1.3328   1.3328   1.3616   1.3616   1.3616   1.3645
     1.3645   1.3645   1.3723   1.3892   1.3892   1.4161   1.4162   1.4162
     1.4515   1.4515   1.4715   1.4715   1.4715   1.4733   1.4733   1.4733
     1.4899   1.4899   1.4899   1.5038   1.5038   1.5206   1.5206   1.5206
     1.5877   1.5877   1.5877   1.5946   1.5946   1.5974   1.5974   1.5974
     1.6351   1.6727   1.6738   1.6738   1.6738   1.7136   1.7136   1.7136
     1.7270   1.7520   1.7520   1.7520   1.7565   1.7565   1.7565   1.7636
     1.7636   1.7636   1.7735   1.7735   1.7908   1.7908   1.7916   1.7916
     1.7916   1.7923   1.7923   1.7923   1.7937   1.7937   1.7937   1.8030
     1.8030   1.8814   1.8814   1.8814   1.8938   1.8938   1.9114   1.9114
     1.9114   2.1192   2.1192   2.1192   2.8925   2.8926   2.8926   3.6824
     4.0113   4.0113   4.0113   4.5449   4.5450   4.5450   4.8079   5.3803
     5.3803   5.3804   5.5765   6.4276   6.4276   7.0159   7.0318   7.0318
     7.0319   7.0526   7.1010   7.1012   7.1012

          k = 0.1804 0.1804 0.2526 ( 55026 PWs)   bands (ev):

   -80.0940 -80.0940 -80.0940 -80.0939 -80.0939 -80.0939 -80.0939 -80.0939
   -80.0939 -80.0939 -80.0939 -80.0939 -80.0939 -80.0939 -80.0939 -80.0938
   -45.8875 -45.8875 -45.8874 -45.8873 -45.8873 -45.8873 -45.8873 -45.8873
   -45.8873 -45.8872 -45.8871 -45.8871 -45.8871 -45.8870 -45.8869 -45.8868
   -45.8868 -45.8868 -45.8868 -45.8868 -45.8867 -45.8867 -45.8866 -45.8865
   -45.8864 -45.8862 -45.8862 -45.8861 -45.8861 -45.8861 -45.8861 -45.8861
   -45.8861 -45.8860 -45.8859 -45.8859 -45.8859 -45.8859 -45.8858 -45.8857
   -45.8857 -45.8857 -45.8856 -45.8856 -45.8856 -45.8856 -45.8856 -45.8856
     1.0816   1.3083   1.3439   1.3439   1.3625   1.3625   1.3705   1.3710
     1.3749   1.3890   1.3890   1.4052   1.4197   1.4202   1.4302   1.4303
     1.4369   1.4479   1.4481   1.4532   1.4532   1.4830   1.4887   1.4907
     1.4907   1.4942   1.4942   1.4946   1.5013   1.5013   1.5063   1.5152
     1.5350   1.5568   1.5880   1.5880   1.6060   1.6218   1.6218   1.6259
     1.6346   1.6346   1.6433   1.6653   1.6821   1.7227   1.7294   1.7294
     1.7298   1.7325   1.7387   1.7387   1.7515   1.7515   1.7571   1.7571
     1.7585   1.7585   1.7614   1.7675   1.7705   1.7832   1.7842   1.7844
     1.7914   1.7917   1.7933   1.7949   1.7990   1.7990   1.8007   1.8007
     1.8192   1.8635   1.8775   1.8892   1.8892   1.8954   1.9024   1.9087
     1.9087   1.9285   2.2449   2.2449   2.6292   2.6292   3.0395   3.4356
     4.1448   4.1448   4.4806   4.4806   4.4930   4.6100   4.7698   5.3509
     5.5677   5.6953   5.6953   6.0961   6.6967   6.6967   6.7949   6.7970
     6.8860   7.1051   7.1560   7.2226   7.5520

          k = 0.1804 0.1804-0.3248 ( 54996 PWs)   bands (ev):

   -80.0940 -80.0940 -80.0940 -80.0939 -80.0939 -80.0939 -80.0939 -80.0939
   -80.0939 -80.0939 -80.0939 -80.0939 -80.0939 -80.0939 -80.0939 -80.0938
   -45.8874 -45.8874 -45.8874 -45.8874 -45.8873 -45.8873 -45.8873 -45.8873
   -45.8873 -45.8873 -45.8871 -45.8871 -45.8869 -45.8869 -45.8869 -45.8869
   -45.8868 -45.8868 -45.8868 -45.8868 -45.8868 -45.8868 -45.8865 -45.8865
   -45.8863 -45.8863 -45.8861 -45.8861 -45.8861 -45.8861 -45.8861 -45.8861
   -45.8860 -45.8860 -45.8860 -45.8860 -45.8858 -45.8858 -45.8858 -45.8857
   -45.8857 -45.8857 -45.8856 -45.8856 -45.8856 -45.8856 -45.8855 -45.8855
     1.2059   1.2059   1.3547   1.3547   1.3547   1.3547   1.3721   1.3721
     1.4179   1.4179   1.4207   1.4207   1.4207   1.4207   1.4252   1.4252
     1.4268   1.4268   1.4539   1.4539   1.4560   1.4560   1.4560   1.4560
     1.5014   1.5014   1.5072   1.5072   1.5072   1.5072   1.5102   1.5102
     1.5189   1.5189   1.6011   1.6011   1.6011   1.6011   1.6393   1.6393
     1.6499   1.6499   1.6792   1.6792   1.6792   1.6793   1.6793   1.6793
     1.7449   1.7449   1.7449   1.7449   1.7465   1.7465   1.7547   1.7547
     1.7547   1.7547   1.7697   1.7697   1.7775   1.7775   1.7826   1.7826
     1.7926   1.7926   1.8019   1.8019   1.8019   1.8019   1.8177   1.8177
     1.8283   1.8283   1.8447   1.8447   1.9001   1.9001   1.9001   1.9001
     1.9027   1.9027   2.4139   2.4139   2.4139   2.4139   3.2210   3.2210
     4.3101   4.3101   4.3101   4.3101   4.6903   4.6903   4.9616   4.9617
     5.8080   5.8080   6.1825   6.1825   6.1825   6.1825   6.7639   6.7639
     7.1660   7.1660   7.2897   7.2897   7.4436

          k = 0.1804 0.2526 0.2526 ( 55022 PWs)   bands (ev):

   -80.0940 -80.0940 -80.0940 -80.0939 -80.0939 -80.0939 -80.0939 -80.0939
   -80.0939 -80.0939 -80.0939 -80.0939 -80.0939 -80.0939 -80.0939 -80.0938
   -45.8875 -45.8874 -45.8874 -45.8874 -45.8874 -45.8874 -45.8874 -45.8872
   -45.8872 -45.8872 -45.8872 -45.8872 -45.8870 -45.8870 -45.8869 -45.8869
   -45.8869 -45.8869 -45.8868 -45.8868 -45.8868 -45.8867 -45.8866 -45.8865
   -45.8863 -45.8862 -45.8862 -45.8861 -45.8861 -45.8861 -45.8860 -45.8860
   -45.8860 -45.8860 -45.8859 -45.8859 -45.8858 -45.8858 -45.8858 -45.8858
   -45.8857 -45.8857 -45.8857 -45.8856 -45.8856 -45.8856 -45.8856 -45.8856
     1.1787   1.3363   1.3363   1.3492   1.3755   1.3776   1.3819   1.3819
     1.3934   1.3934   1.4143   1.4236   1.4270   1.4352   1.4380   1.4380
     1.4448   1.4514   1.4516   1.4516   1.4605   1.4816   1.4817   1.4817
     1.4933   1.4950   1.5027   1.5027   1.5037   1.5037   1.5089   1.5114
     1.5576   1.5713   1.5713   1.5718   1.5718   1.5895   1.5936   1.6018
     1.6118   1.6264   1.6293   1.6293   1.6364   1.6841   1.6841   1.6938
     1.7411   1.7418   1.7418   1.7591   1.7604   1.7622   1.7643   1.7643
     1.7706   1.7706   1.7717   1.7795   1.7799   1.7883   1.7883   1.7900
     1.7912   1.7913   1.7920   1.7920   1.7953   1.7953   1.7974   1.8016
     1.8262   1.8509   1.8779   1.8779   1.8789   1.8992   1.8992   1.9000
     1.9107   2.0303   2.0303   2.3764   2.3852   2.7794   2.7794   3.1819
     4.2679   4.5657   4.5657   4.6037   4.6037   4.7228   4.7536   5.2694
     5.7059   5.8518   5.8518   6.1869   6.5013   6.5013   6.5666   6.6034
     6.7215   7.2049   7.5382   7.6184   7.6185

          k = 0.1804 0.2526-0.3248 ( 55024 PWs)   bands (ev):

   -80.0940 -80.0940 -80.0940 -80.0939 -80.0939 -80.0939 -80.0939 -80.0939
   -80.0939 -80.0939 -80.0939 -80.0939 -80.0939 -80.0939 -80.0939 -80.0938
   -45.8875 -45.8875 -45.8874 -45.8874 -45.8874 -45.8874 -45.8873 -45.8873
   -45.8872 -45.8872 -45.8871 -45.8871 -45.8870 -45.8870 -45.8869 -45.8869
   -45.8869 -45.8869 -45.8869 -45.8869 -45.8868 -45.8868 -45.8865 -45.8865
   -45.8864 -45.8864 -45.8861 -45.8861 -45.8860 -45.8860 -45.8860 -45.8860
   -45.8860 -45.8860 -45.8859 -45.8859 -45.8858 -45.8858 -45.8858 -45.8858
   -45.8857 -45.8857 -45.8857 -45.8857 -45.8856 -45.8856 -45.8856 -45.8856
     1.2750   1.2750   1.3490   1.3490   1.3813   1.3813   1.3870   1.3870
     1.4106   1.4106   1.4220   1.4220   1.4376   1.4376   1.4389   1.4389
     1.4522   1.4522   1.4535   1.4535   1.4695   1.4695   1.4761   1.4761
     1.4784   1.4784   1.5060   1.5060   1.5230   1.5230   1.5285   1.5285
     1.5300   1.5300   1.5605   1.5605   1.5949   1.5949   1.6014   1.6014
     1.6201   1.6201   1.6319   1.6319   1.6327   1.6327   1.6403   1.6403
     1.7530   1.7530   1.7535   1.7536   1.7543   1.7543   1.7723   1.7723
     1.7741   1.7741   1.7746   1.7746   1.7845   1.7845   1.7874   1.7874
     1.7910   1.7910   1.7930   1.7930   1.7992   1.7992   1.8210   1.8210
     1.8480   1.8480   1.8762   1.8762   1.8854   1.8854   1.9024   1.9024
     1.9064   1.9064   2.1778   2.1778   2.5622   2.5622   2.9635   2.9635
     4.4179   4.4179   4.6651   4.6651   4.7139   4.7139   5.0115   5.0115
     6.0352   6.0352   6.0417   6.0417   6.2706   6.2706   6.4323   6.4323
     7.0804   7.0804   7.3853   7.4724   7.4730

          k = 0.1804-0.3248-0.3248 ( 54992 PWs)   bands (ev):

   -80.0940 -80.0940 -80.0940 -80.0939 -80.0939 -80.0939 -80.0939 -80.0939
   -80.0939 -80.0939 -80.0939 -80.0939 -80.0939 -80.0939 -80.0939 -80.0938
   -45.8874 -45.8874 -45.8874 -45.8874 -45.8873 -45.8873 -45.8873 -45.8873
   -45.8871 -45.8871 -45.8871 -45.8871 -45.8870 -45.8870 -45.8870 -45.8870
   -45.8869 -45.8869 -45.8869 -45.8869 -45.8866 -45.8866 -45.8866 -45.8866
   -45.8862 -45.8862 -45.8862 -45.8862 -45.8860 -45.8860 -45.8860 -45.8860
   -45.8859 -45.8859 -45.8859 -45.8859 -45.8859 -45.8858 -45.8858 -45.8858
   -45.8857 -45.8857 -45.8857 -45.8857 -45.8856 -45.8856 -45.8856 -45.8856
     1.3269   1.3269   1.3269   1.3269   1.3988   1.3988   1.3989   1.3989
     1.4061   1.4061   1.4061   1.4061   1.4433   1.4433   1.4433   1.4433
     1.4578   1.4578   1.4578   1.4578   1.4748   1.4748   1.4748   1.4748
     1.5147   1.5147   1.5147   1.5147   1.5226   1.5226   1.5226   1.5226
     1.5562   1.5562   1.5562   1.5562   1.5733   1.5733   1.5733   1.5733
     1.6041   1.6041   1.6041   1.6041   1.6156   1.6156   1.6156   1.6156
     1.7578   1.7578   1.7578   1.7578   1.7634   1.7634   1.7634   1.7634
     1.7852   1.7852   1.7852   1.7852   1.7863   1.7863   1.7863   1.7863
     1.7961   1.7961   1.7961   1.7961   1.7992   1.7992   1.7992   1.7992
     1.8569   1.8569   1.8569   1.8569   1.9062   1.9062   1.9062   1.9062
     2.0043   2.0043   2.0043   2.0043   2.7447   2.7447   2.7447   2.7447
     4.5461   4.5461   4.5461   4.5461   4.9679   4.9679   4.9680   4.9680
     6.1081   6.1081   6.1081   6.1081   6.2699   6.2700   6.2700   6.2700
     7.0965   7.0965   7.0965   7.0965   7.5294

          k = 0.2526 0.2526 0.2526 ( 55030 PWs)   bands (ev):

   -80.0940 -80.0940 -80.0940 -80.0939 -80.0939 -80.0939 -80.0939 -80.0939
   -80.0939 -80.0939 -80.0939 -80.0939 -80.0939 -80.0939 -80.0939 -80.0938
   -45.8874 -45.8874 -45.8874 -45.8874 -45.8874 -45.8874 -45.8873 -45.8873
   -45.8871 -45.8871 -45.8871 -45.8870 -45.8870 -45.8870 -45.8870 -45.8870
   -45.8870 -45.8869 -45.8869 -45.8869 -45.8868 -45.8868 -45.8868 -45.8865
   -45.8864 -45.8861 -45.8861 -45.8861 -45.8860 -45.8860 -45.8860 -45.8860
   -45.8860 -45.8859 -45.8859 -45.8859 -45.8859 -45.8858 -45.8858 -45.8858
   -45.8857 -45.8857 -45.8857 -45.8857 -45.8857 -45.8856 -45.8856 -45.8856
     1.2682   1.3748   1.3748   1.3748   1.3915   1.3984   1.3984   1.3984
     1.4205   1.4205   1.4205   1.4377   1.4377   1.4377   1.4496   1.4496
     1.4554   1.4554   1.4813   1.4813   1.4813   1.4830   1.4830   1.4835
     1.4835   1.4835   1.4897   1.4897   1.4897   1.5108   1.5108   1.5108
     1.5389   1.5389   1.5389   1.5542   1.5542   1.5542   1.5738   1.5738
     1.5899   1.5907   1.5907   1.5908   1.5937   1.6339   1.6339   1.6339
     1.7515   1.7515   1.7515   1.7662   1.7662   1.7662   1.7718   1.7718
     1.7828   1.7828   1.7842   1.7842   1.7842   1.7881   1.7881   1.7882
     1.7914   1.7914   1.7914   1.8022   1.8022   1.8022   1.8188   1.8188
     1.8702   1.8702   1.8765   1.8797   1.8797   1.8797   1.8840   1.8840
     1.8840   2.1586   2.1586   2.1586   2.5270   2.5271   2.5271   2.9267
     4.6988   4.6989   4.6989   4.7835   4.7835   4.7835   4.8606   5.2275
     5.8859   5.8859   5.8859   6.3980   6.3980   6.4561   6.4562   6.4562
     6.7370   6.7370   7.2264   7.2268   7.2270

          k = 0.2526 0.2526-0.3248 ( 55050 PWs)   bands (ev):

   -80.0940 -80.0940 -80.0940 -80.0939 -80.0939 -80.0939 -80.0939 -80.0939
   -80.0939 -80.0939 -80.0939 -80.0939 -80.0939 -80.0939 -80.0939 -80.0938
   -45.8874 -45.8874 -45.8874 -45.8874 -45.8873 -45.8873 -45.8873 -45.8873
   -45.8872 -45.8871 -45.8871 -45.8871 -45.8870 -45.8870 -45.8870 -45.8870
   -45.8870 -45.8870 -45.8869 -45.8869 -45.8869 -45.8869 -45.8866 -45.8866
   -45.8863 -45.8863 -45.8861 -45.8861 -45.8861 -45.8861 -45.8859 -45.8859
   -45.8859 -45.8859 -45.8859 -45.8859 -45.8859 -45.8859 -45.8858 -45.8858
   -45.8857 -45.8857 -45.8857 -45.8857 -45.8857 -45.8857 -45.8856 -45.8856
     1.3477   1.3477   1.3967   1.3967   1.3967   1.3967   1.4087   1.4087
     1.4415   1.4415   1.4423   1.4423   1.4523   1.4523   1.4523   1.4523
     1.4606   1.4606   1.4607   1.4607   1.4681   1.4681   1.4854   1.4854
     1.4856   1.4856   1.4876   1.4876   1.5061   1.5061   1.5061   1.5061
     1.5364   1.5364   1.5508   1.5508   1.5602   1.5602   1.5602   1.5602
     1.5761   1.5761   1.5761   1.5761   1.5846   1.5847   1.5926   1.5926
     1.7610   1.7610   1.7610   1.7610   1.7622   1.7622   1.7744   1.7744
     1.7815   1.7815   1.7857   1.7857   1.7885   1.7885   1.7885   1.7885
     1.7985   1.7985   1.7985   1.7985   1.8044   1.8044   1.8363   1.8363
     1.8474   1.8474   1.8788   1.8788   1.8788   1.8788   1.8813   1.8813
     1.9932   1.9932   2.3218   2.3218   2.3218   2.3218   2.7095   2.7095
     4.7878   4.7878   4.7878   4.7878   4.8439   4.8439   5.0467   5.0467
     6.1181   6.1181   6.1719   6.1719   6.1719   6.1719   6.4747   6.4747
     6.8167   6.8167   6.9582   6.9584   7.1818

          k = 0.2526-0.3248-0.3248 ( 55032 PWs)   bands (ev):

   -80.0940 -80.0940 -80.0940 -80.0939 -80.0939 -80.0939 -80.0939 -80.0939
   -80.0939 -80.0939 -80.0939 -80.0939 -80.0939 -80.0939 -80.0939 -80.0938
   -45.8873 -45.8873 -45.8873 -45.8873 -45.8873 -45.8873 -45.8873 -45.8873
   -45.8871 -45.8871 -45.8871 -45.8871 -45.8871 -45.8871 -45.8871 -45.8871
   -45.8870 -45.8870 -45.8870 -45.8870 -45.8868 -45.8867 -45.8867 -45.8867
   -45.8861 -45.8861 -45.8861 -45.8861 -45.8860 -45.8860 -45.8860 -45.8860
   -45.8859 -45.8859 -45.8858 -45.8858 -45.8858 -45.8858 -45.8858 -45.8858
   -45.8857 -45.8857 -45.8857 -45.8857 -45.8857 -45.8857 -45.8857 -45.8857
     1.3990   1.3990   1.3990   1.3990   1.4276   1.4276   1.4276   1.4276
     1.4347   1.4347   1.4347   1.4347   1.4593   1.4593   1.4593   1.4593
     1.4673   1.4673   1.4673   1.4673   1.4752   1.4752   1.4752   1.4752
     1.5157   1.5157   1.5157   1.5157   1.5164   1.5164   1.5164   1.5164
     1.5187   1.5187   1.5187   1.5187   1.5241   1.5241   1.5241   1.5241
     1.5553   1.5553   1.5553   1.5553   1.5636   1.5636   1.5636   1.5636
     1.7660   1.7661   1.7661   1.7661   1.7695   1.7695   1.7695   1.7695
     1.7809   1.7809   1.7809   1.7809   1.7855   1.7856   1.7856   1.7856
     1.8123   1.8123   1.8123   1.8123   1.8247   1.8247   1.8248   1.8248
     1.8544   1.8544   1.8544   1.8544   1.8763   1.8764   1.8764   1.8764
     2.1347   2.1347   2.1347   2.1347   2.4971   2.4971   2.4971   2.4971
     4.8532   4.8532   4.8532   4.8532   5.0051   5.0051   5.0051   5.0051
     6.2644   6.2644   6.2644   6.2644   6.2821   6.2821   6.2821   6.2821
     6.7801   6.7801   6.7801   6.7802   6.9612

          k =-0.3248-0.3248-0.3248 ( 55192 PWs)   bands (ev):

   -80.0940 -80.0940 -80.0940 -80.0939 -80.0939 -80.0939 -80.0939 -80.0939
   -80.0939 -80.0939 -80.0939 -80.0939 -80.0939 -80.0939 -80.0939 -80.0938
   -45.8873 -45.8873 -45.8873 -45.8873 -45.8873 -45.8873 -45.8873 -45.8872
   -45.8872 -45.8872 -45.8872 -45.8872 -45.8872 -45.8872 -45.8872 -45.8872
   -45.8869 -45.8869 -45.8869 -45.8869 -45.8869 -45.8869 -45.8869 -45.8869
   -45.8862 -45.8861 -45.8861 -45.8861 -45.8861 -45.8861 -45.8861 -45.8861
   -45.8858 -45.8858 -45.8858 -45.8858 -45.8858 -45.8858 -45.8858 -45.8858
   -45.8858 -45.8858 -45.8858 -45.8858 -45.8858 -45.8858 -45.8858 -45.8858
     1.4622   1.4622   1.4622   1.4622   1.4622   1.4622   1.4622   1.4622
     1.4623   1.4623   1.4623   1.4623   1.4623   1.4623   1.4623   1.4623
     1.4687   1.4687   1.4687   1.4687   1.4687   1.4687   1.4687   1.4687
     1.4845   1.4845   1.4845   1.4845   1.4845   1.4845   1.4845   1.4845
     1.5223   1.5223   1.5223   1.5223   1.5223   1.5223   1.5223   1.5223
     1.5223   1.5223   1.5223   1.5223   1.5223   1.5224   1.5224   1.5224
     1.7755   1.7755   1.7755   1.7755   1.7755   1.7755   1.7755   1.7755
     1.7755   1.7755   1.7755   1.7755   1.7755   1.7756   1.7756   1.7756
     1.8435   1.8435   1.8435   1.8435   1.8435   1.8435   1.8435   1.8435
     1.8436   1.8436   1.8436   1.8436   1.8436   1.8436   1.8436   1.8436
     2.2958   2.2958   2.2958   2.2958   2.2958   2.2958   2.2958   2.2958
     4.9956   4.9956   4.9957   4.9957   4.9957   4.9957   4.9957   4.9957
     6.5074   6.5074   6.5074   6.5074   6.5074   6.5074   6.5074   6.5074
     6.5074   6.5074   6.5074   6.5074   6.5074

     the Fermi energy is     2.1556 ev

!    total energy              =   -8188.74423747 Ry

     total all-electron energy =   -161469.171091 Ry
     estimated scf accuracy    <       0.00000067 Ry
     smearing contrib. (-TS)   =       0.42177955 Ry
     internal energy E=F+TS    =   -8189.16601702 Ry

     The total energy is F=E-TS. E is the sum of the following terms:
     one-electron contribution =   -3032.68665877 Ry
     hartree contribution      =    1562.22412925 Ry
     xc contribution           =    -490.91848683 Ry
     ewald contribution        =   -2144.43932245 Ry
     one-center paw contrib.   =   -4083.34567821 Ry

     convergence has been achieved in  24 iterations

     Forces acting on atoms (cartesian axes, Ry/au):

     atom    1 type  1   force =     0.00000000    0.00000000    0.00000000
     atom    2 type  1   force =    -0.00001485   -0.00001485   -0.00001485
     atom    3 type  1   force =     0.00000000    0.00000000    0.00000000
     atom    4 type  1   force =    -0.00001485   -0.00001485    0.00001485
     atom    5 type  1   force =     0.00000000    0.00000000    0.00000000
     atom    6 type  1   force =    -0.00001485    0.00001485   -0.00001485
     atom    7 type  1   force =     0.00000000    0.00000000    0.00000000
     atom    8 type  1   force =    -0.00001485    0.00001485    0.00001485
     atom    9 type  1   force =     0.00000000    0.00000000    0.00000000
     atom   10 type  1   force =     0.00001485   -0.00001485   -0.00001485
     atom   11 type  1   force =     0.00000000    0.00000000    0.00000000
     atom   12 type  1   force =     0.00001485   -0.00001485    0.00001485
     atom   13 type  1   force =     0.00000000    0.00000000    0.00000000
     atom   14 type  1   force =     0.00001485    0.00001485   -0.00001485
     atom   15 type  1   force =     0.00000000    0.00000000    0.00000000
     atom   16 type  1   force =     0.00001485    0.00001485    0.00001485

     Total force =     0.000073     Total SCF correction =     0.000432
     SCF correction compared to forces is large: reduce conv_thr to get better values


     Computing stress (Cartesian axis) and pressure

          total   stress  (Ry/bohr**3)                   (kbar)     P=      -67.36
  -0.00045791   0.00000000   0.00000000          -67.36        0.00        0.00
   0.00000000  -0.00045791   0.00000000            0.00      -67.36        0.00
   0.00000000   0.00000000  -0.00045791            0.00        0.00      -67.36


     Writing output data file /scratch/QibZsZaXymDqczuz.save/
 
     init_run     :      6.65s CPU      6.90s WALL (       1 calls)
     electrons    :    493.29s CPU    500.78s WALL (       1 calls)
     forces       :      2.33s CPU      2.39s WALL (       1 calls)
     stress       :     14.48s CPU     14.65s WALL (       1 calls)

     Called by init_run:
     wfcinit      :      5.60s CPU      5.76s WALL (       1 calls)
     potinit      :      0.12s CPU      0.14s WALL (       1 calls)
     hinit0       :      0.50s CPU      0.51s WALL (       1 calls)

     Called by electrons:
     c_bands      :    430.85s CPU    436.57s WALL (      24 calls)
     sum_band     :     59.02s CPU     60.26s WALL (      24 calls)
     v_of_rho     :      0.52s CPU      0.56s WALL (      25 calls)
     newd         :      0.95s CPU      1.27s WALL (      25 calls)
     PAW_pot      :      1.52s CPU      1.64s WALL (      25 calls)
     mix_rho      :      0.17s CPU      0.19s WALL (      24 calls)

     Called by c_bands:
     init_us_2    :      3.03s CPU      3.09s WALL (    1785 calls)
     cegterg      :    419.28s CPU    424.62s WALL (     840 calls)

     Called by *egterg:
     cdiaghg      :     36.66s CPU     37.07s WALL (    2516 calls)
     h_psi        :    253.07s CPU    256.57s WALL (    2551 calls)
     s_psi        :     13.16s CPU     13.25s WALL (    2551 calls)
     g_psi        :      0.70s CPU      0.71s WALL (    1676 calls)

     Called by h_psi:
     h_psi:calbec :     20.46s CPU     20.60s WALL (    2551 calls)
     vloc_psi     :    218.47s CPU    221.68s WALL (    2551 calls)
     add_vuspsi   :     12.27s CPU     12.38s WALL (    2551 calls)

     General routines
     calbec       :     30.85s CPU     31.06s WALL (    3566 calls)
     fft          :      0.60s CPU      0.62s WALL (     348 calls)
     ffts         :      0.05s CPU      0.05s WALL (      49 calls)
     fftw         :    254.45s CPU    258.12s WALL (  798522 calls)
     interpolate  :      0.07s CPU      0.07s WALL (      25 calls)
 
     Parallel routines
     fft_scatt_xy :     23.20s CPU     23.50s WALL (  798919 calls)
     fft_scatt_yz :    200.43s CPU    203.48s WALL (  798919 calls)
 
     PWSCF        :   8m44.57s CPU   8m54.47s WALL

 
   This run was terminated on:   0: 6:51  30Nov2021            

=------------------------------------------------------------------------------=
   JOB DONE.
=------------------------------------------------------------------------------=
