
     Program PWSCF v.6.7MaX starts on 30Nov2021 at  0: 6:56 

     This program is part of the open-source Quantum ESPRESSO suite
     for quantum simulation of materials; please cite
         "P. Giannozzi et al., J. Phys.:Condens. Matter 21 395502 (2009);
         "P. Giannozzi et al., J. Phys.:Condens. Matter 29 465901 (2017);
          URL http://www.quantum-espresso.org", 
     in publications or presentations arising from this work. More details at
     http://www.quantum-espresso.org/quote

     Parallel version (MPI & OpenMP), running on      72 processor cores
     Number of MPI processes:                72
     Threads/MPI process:                     1

     MPI processes distributed on     1 nodes
     R & G space division:  proc/nbgrp/npool/nimage =      72
     Reading input from bcc_14.in
Warning: card &CELL ignored
Warning: card CELL_DYNAMICS = 'BFGS', ignored
Warning: card CELL_FACTOR = 2.0, ignored
Warning: card PRESS = 0.0, ignored
Warning: card / ignored

     Current dimensions of program PWSCF are:
     Max number of different atomic species (ntypx) = 10
     Max number of k-points (npk) =  40000
     Max angular momentum in pseudopotentials (lmaxx) =  3
     file Pd.pbe-spn-kjpaw_psl.1.0.0.UPF: wavefunction(s)  4S 5S 4D renormalized

     Subspace diagonalization in iterative solution of the eigenvalue problem:
     one sub-group per band group will be used
     ELPA distributed-memory algorithm (size of sub-group:  8*  8 procs)

     Found symmetry operation: I + (  0.2500  0.2500  0.2500)
     This is a supercell, fractional translations are disabled
     Message from routine setup:
     using ibrav=0 with symmetry is DISCOURAGED, use correct ibrav instead
 
     Parallelization info
     --------------------
     sticks:   dense  smooth     PW     G-vecs:    dense   smooth      PW
     Min         160     105     28                12921     6933     957
     Max         162     106     29                12924     6942     961
     Sum       11537    7613   2029               930393   499479   68999
 


     bravais-lattice index     =            0
     lattice parameter (alat)  =      11.4293  a.u.
     unit-cell volume          =    6175.8300 (a.u.)^3
     number of atoms/cell      =           16
     number of atomic types    =            1
     number of electrons       =       288.00
     number of Kohn-Sham states=          173
     kinetic-energy cutoff     =      71.0000  Ry
     charge density cutoff     =     430.0000  Ry
     scf convergence threshold =      1.0E-06
     mixing beta               =       0.1000
     number of iterations used =           10  TF        mixing
     Exchange-correlation= SLA  PW   PBX  PBC
                           (   1   4   3   4   0   0   0)

     celldm(1)=  11.429280  celldm(2)=   0.000000  celldm(3)=   0.000000
     celldm(4)=   0.000000  celldm(5)=   0.000000  celldm(6)=   0.000000

     crystal axes: (cart. coord. in units of alat)
               a(1) = (   1.605263   0.000000   0.000000 )  
               a(2) = (   0.000000   1.605263   0.000000 )  
               a(3) = (   0.000000   0.000000   1.605263 )  

     reciprocal axes: (cart. coord. in units 2 pi/alat)
               b(1) = (  0.622951  0.000000  0.000000 )  
               b(2) = (  0.000000  0.622951  0.000000 )  
               b(3) = (  0.000000  0.000000  0.622951 )  


     PseudoPot. # 1 for Pd read from file:
     /rds/homes/b/bxp912/pp/Pd.pbe-spn-kjpaw_psl.1.0.0.UPF
     MD5 check sum: 790f2ebce206edfd9790dcb9844eca51
     Pseudo is Projector augmented-wave + core cor, Zval = 18.0
     Generated using &quot;atomic&quot; code by A. Dal Corso  v.6.3
     Shape of augmentation charge: PSQ
     Using radial grid of 1235 points,  6 beta functions with: 
                l(1) =   0
                l(2) =   0
                l(3) =   1
                l(4) =   1
                l(5) =   2
                l(6) =   2
     Q(r) pseudized with 0 coefficients 


     atomic species   valence    mass     pseudopotential
        Pd            18.00   106.42000     Pd( 1.00)

     48 Sym. Ops., with inversion, found



   Cartesian axes

     site n.     atom                  positions (alat units)
         1           Pd  tau(   1) = (   0.0000000   0.0000000   0.0000000  )
         2           Pd  tau(   2) = (   0.4013158   0.4013158   0.4013158  )
         3           Pd  tau(   3) = (   0.0000000   0.0000000   0.8026316  )
         4           Pd  tau(   4) = (   0.4013158   0.4013158   1.2039474  )
         5           Pd  tau(   5) = (   0.0000000   0.8026316   0.0000000  )
         6           Pd  tau(   6) = (   0.4013158   1.2039474   0.4013158  )
         7           Pd  tau(   7) = (   0.0000000   0.8026316   0.8026316  )
         8           Pd  tau(   8) = (   0.4013158   1.2039474   1.2039474  )
         9           Pd  tau(   9) = (   0.8026316   0.0000000   0.0000000  )
        10           Pd  tau(  10) = (   1.2039474   0.4013158   0.4013158  )
        11           Pd  tau(  11) = (   0.8026316   0.0000000   0.8026316  )
        12           Pd  tau(  12) = (   1.2039474   0.4013158   1.2039474  )
        13           Pd  tau(  13) = (   0.8026316   0.8026316   0.0000000  )
        14           Pd  tau(  14) = (   1.2039474   1.2039474   0.4013158  )
        15           Pd  tau(  15) = (   0.8026316   0.8026316   0.8026316  )
        16           Pd  tau(  16) = (   1.2039474   1.2039474   1.2039474  )

     number of k points=    35  Marzari-Vanderbilt smearing, width (Ry)=  0.0400
                       cart. coord. in units 2pi/alat
        k(    1) = (   0.0346084   0.0346084   0.0346084), wk =   0.0219479
        k(    2) = (   0.0346084   0.0346084   0.1038251), wk =   0.0658436
        k(    3) = (   0.0346084   0.0346084   0.1730419), wk =   0.0658436
        k(    4) = (   0.0346084   0.0346084   0.2422587), wk =   0.0658436
        k(    5) = (   0.0346084   0.0346084  -0.3114754), wk =   0.0329218
        k(    6) = (   0.0346084   0.1038251   0.1038251), wk =   0.0658436
        k(    7) = (   0.0346084   0.1038251   0.1730419), wk =   0.1316872
        k(    8) = (   0.0346084   0.1038251   0.2422587), wk =   0.1316872
        k(    9) = (   0.0346084   0.1038251  -0.3114754), wk =   0.0658436
        k(   10) = (   0.0346084   0.1730419   0.1730419), wk =   0.0658436
        k(   11) = (   0.0346084   0.1730419   0.2422587), wk =   0.1316872
        k(   12) = (   0.0346084   0.1730419  -0.3114754), wk =   0.0658436
        k(   13) = (   0.0346084   0.2422587   0.2422587), wk =   0.0658436
        k(   14) = (   0.0346084   0.2422587  -0.3114754), wk =   0.0658436
        k(   15) = (   0.0346084  -0.3114754  -0.3114754), wk =   0.0164609
        k(   16) = (   0.1038251   0.1038251   0.1038251), wk =   0.0219479
        k(   17) = (   0.1038251   0.1038251   0.1730419), wk =   0.0658436
        k(   18) = (   0.1038251   0.1038251   0.2422587), wk =   0.0658436
        k(   19) = (   0.1038251   0.1038251  -0.3114754), wk =   0.0329218
        k(   20) = (   0.1038251   0.1730419   0.1730419), wk =   0.0658436
        k(   21) = (   0.1038251   0.1730419   0.2422587), wk =   0.1316872
        k(   22) = (   0.1038251   0.1730419  -0.3114754), wk =   0.0658436
        k(   23) = (   0.1038251   0.2422587   0.2422587), wk =   0.0658436
        k(   24) = (   0.1038251   0.2422587  -0.3114754), wk =   0.0658436
        k(   25) = (   0.1038251  -0.3114754  -0.3114754), wk =   0.0164609
        k(   26) = (   0.1730419   0.1730419   0.1730419), wk =   0.0219479
        k(   27) = (   0.1730419   0.1730419   0.2422587), wk =   0.0658436
        k(   28) = (   0.1730419   0.1730419  -0.3114754), wk =   0.0329218
        k(   29) = (   0.1730419   0.2422587   0.2422587), wk =   0.0658436
        k(   30) = (   0.1730419   0.2422587  -0.3114754), wk =   0.0658436
        k(   31) = (   0.1730419  -0.3114754  -0.3114754), wk =   0.0164609
        k(   32) = (   0.2422587   0.2422587   0.2422587), wk =   0.0219479
        k(   33) = (   0.2422587   0.2422587  -0.3114754), wk =   0.0329218
        k(   34) = (   0.2422587  -0.3114754  -0.3114754), wk =   0.0164609
        k(   35) = (  -0.3114754  -0.3114754  -0.3114754), wk =   0.0027435

     Dense  grid:   930393 G-vectors     FFT dimensions: ( 125, 125, 125)

     Smooth grid:   499479 G-vectors     FFT dimensions: ( 100, 100, 100)

     Estimated max dynamical RAM per process >     141.93 MB

     Estimated total dynamical RAM >       9.98 GB

     Initial potential from superposition of free atoms

     starting charge  287.99388, renormalised to  288.00000
     Starting wfcs are  160 randomized atomic wfcs +   13 random wfcs
     Checking if some PAW data can be deallocated... 

     total cpu time spent up to now is       10.4 secs

     Self-consistent Calculation

     iteration #  1     ecut=    71.00 Ry     beta= 0.10
     Davidson diagonalization with overlap
     ethr =  1.00E-02,  avg # of iterations =  4.6

     total cpu time spent up to now is       41.9 secs

     total energy              =   -8190.61950809 Ry
     estimated scf accuracy    <      11.65651332 Ry

     iteration #  2     ecut=    71.00 Ry     beta= 0.10
     Davidson diagonalization with overlap
     ethr =  4.05E-03,  avg # of iterations =  1.0

     total cpu time spent up to now is       61.7 secs

     total energy              =   -8187.20170585 Ry
     estimated scf accuracy    <       8.65592898 Ry

     iteration #  3     ecut=    71.00 Ry     beta= 0.10
     Davidson diagonalization with overlap
     ethr =  3.01E-03,  avg # of iterations =  2.0

     total cpu time spent up to now is       90.9 secs

     total energy              =   -8188.62616500 Ry
     estimated scf accuracy    <       3.92523130 Ry

     iteration #  4     ecut=    71.00 Ry     beta= 0.10
     Davidson diagonalization with overlap
     ethr =  1.36E-03,  avg # of iterations =  1.2

     total cpu time spent up to now is      109.1 secs

     total energy              =   -8188.58191717 Ry
     estimated scf accuracy    <       1.15956550 Ry

     iteration #  5     ecut=    71.00 Ry     beta= 0.10
     Davidson diagonalization with overlap
     ethr =  4.03E-04,  avg # of iterations =  1.9

     total cpu time spent up to now is      134.0 secs

     total energy              =   -8188.49766564 Ry
     estimated scf accuracy    <       0.29597337 Ry

     iteration #  6     ecut=    71.00 Ry     beta= 0.10
     Davidson diagonalization with overlap
     ethr =  1.03E-04,  avg # of iterations =  3.5

     total cpu time spent up to now is      166.4 secs

     total energy              =   -8188.78747916 Ry
     estimated scf accuracy    <       4.08425640 Ry

     iteration #  7     ecut=    71.00 Ry     beta= 0.10
     Davidson diagonalization with overlap
     ethr =  1.03E-04,  avg # of iterations =  1.1

     total cpu time spent up to now is      185.3 secs

     total energy              =   -8188.67777194 Ry
     estimated scf accuracy    <       2.01351112 Ry

     iteration #  8     ecut=    71.00 Ry     beta= 0.10
     Davidson diagonalization with overlap
     ethr =  1.03E-04,  avg # of iterations =  1.3

     total cpu time spent up to now is      206.6 secs

     total energy              =   -8188.67558997 Ry
     estimated scf accuracy    <       1.32884331 Ry

     iteration #  9     ecut=    71.00 Ry     beta= 0.10
     Davidson diagonalization with overlap
     ethr =  1.03E-04,  avg # of iterations =  1.0

     total cpu time spent up to now is      225.9 secs

     total energy              =   -8188.67806263 Ry
     estimated scf accuracy    <       1.34572613 Ry

     iteration # 10     ecut=    71.00 Ry     beta= 0.10
     Davidson diagonalization with overlap
     ethr =  1.03E-04,  avg # of iterations =  1.0

     total cpu time spent up to now is      243.8 secs

     total energy              =   -8188.61970809 Ry
     estimated scf accuracy    <       2.08424168 Ry

     iteration # 11     ecut=    71.00 Ry     beta= 0.10
     Davidson diagonalization with overlap
     ethr =  1.03E-04,  avg # of iterations =  1.0

     total cpu time spent up to now is      263.8 secs

     total energy              =   -8188.48779102 Ry
     estimated scf accuracy    <       0.99467191 Ry

     iteration # 12     ecut=    71.00 Ry     beta= 0.10
     Davidson diagonalization with overlap
     ethr =  1.03E-04,  avg # of iterations =  2.3

     total cpu time spent up to now is      284.5 secs

     total energy              =   -8188.51412289 Ry
     estimated scf accuracy    <       0.50083254 Ry

     iteration # 13     ecut=    71.00 Ry     beta= 0.10
     Davidson diagonalization with overlap
     ethr =  1.03E-04,  avg # of iterations =  1.0

     total cpu time spent up to now is      302.5 secs

     total energy              =   -8188.44141239 Ry
     estimated scf accuracy    <       0.22774118 Ry

     iteration # 14     ecut=    71.00 Ry     beta= 0.10
     Davidson diagonalization with overlap
     ethr =  7.91E-05,  avg # of iterations =  2.7

     total cpu time spent up to now is      328.6 secs

     total energy              =   -8188.47699044 Ry
     estimated scf accuracy    <       0.02205314 Ry

     iteration # 15     ecut=    71.00 Ry     beta= 0.10
     Davidson diagonalization with overlap
     c_bands:  1 eigenvalues not converged
     ethr =  7.66E-06,  avg # of iterations =  5.1

     total cpu time spent up to now is      356.9 secs

     total energy              =   -8188.48211735 Ry
     estimated scf accuracy    <       0.01179975 Ry

     iteration # 16     ecut=    71.00 Ry     beta= 0.10
     Davidson diagonalization with overlap
     ethr =  4.10E-06,  avg # of iterations =  2.0

     total cpu time spent up to now is      378.7 secs

     total energy              =   -8188.48080364 Ry
     estimated scf accuracy    <       0.00707362 Ry

     iteration # 17     ecut=    71.00 Ry     beta= 0.10
     Davidson diagonalization with overlap
     ethr =  2.46E-06,  avg # of iterations =  1.8

     total cpu time spent up to now is      397.4 secs

     total energy              =   -8188.48116593 Ry
     estimated scf accuracy    <       0.00030497 Ry

     iteration # 18     ecut=    71.00 Ry     beta= 0.10
     Davidson diagonalization with overlap
     ethr =  1.06E-07,  avg # of iterations =  3.4

     total cpu time spent up to now is      422.6 secs

     total energy              =   -8188.48118083 Ry
     estimated scf accuracy    <       0.00057689 Ry

     iteration # 19     ecut=    71.00 Ry     beta= 0.10
     Davidson diagonalization with overlap
     ethr =  1.06E-07,  avg # of iterations =  3.2

     total cpu time spent up to now is      450.2 secs

     total energy              =   -8188.48153534 Ry
     estimated scf accuracy    <       0.00228831 Ry

     iteration # 20     ecut=    71.00 Ry     beta= 0.10
     Davidson diagonalization with overlap
     ethr =  1.06E-07,  avg # of iterations =  1.0

     total cpu time spent up to now is      468.8 secs

     total energy              =   -8188.48120177 Ry
     estimated scf accuracy    <       0.00129822 Ry

     iteration # 21     ecut=    71.00 Ry     beta= 0.10
     Davidson diagonalization with overlap
     ethr =  1.06E-07,  avg # of iterations =  2.0

     total cpu time spent up to now is      500.1 secs

     total energy              =   -8188.48138580 Ry
     estimated scf accuracy    <       0.00003569 Ry

     iteration # 22     ecut=    71.00 Ry     beta= 0.10
     Davidson diagonalization with overlap
     ethr =  1.24E-08,  avg # of iterations =  2.0

     total cpu time spent up to now is      520.6 secs

     total energy              =   -8188.48138911 Ry
     estimated scf accuracy    <       0.00000174 Ry

     iteration # 23     ecut=    71.00 Ry     beta= 0.10
     Davidson diagonalization with overlap
     ethr =  6.03E-10,  avg # of iterations =  3.0

     total cpu time spent up to now is      549.5 secs

     total energy              =   -8188.48139433 Ry
     estimated scf accuracy    <       0.00001168 Ry

     iteration # 24     ecut=    71.00 Ry     beta= 0.10
     Davidson diagonalization with overlap
     ethr =  6.03E-10,  avg # of iterations =  2.0

     total cpu time spent up to now is      575.3 secs

     total energy              =   -8188.48138565 Ry
     estimated scf accuracy    <       0.00002197 Ry

     iteration # 25     ecut=    71.00 Ry     beta= 0.10
     Davidson diagonalization with overlap
     ethr =  6.03E-10,  avg # of iterations =  3.8

     total cpu time spent up to now is      609.0 secs

     total energy              =   -8188.48139741 Ry
     estimated scf accuracy    <       0.00001262 Ry

     iteration # 26     ecut=    71.00 Ry     beta= 0.10
     Davidson diagonalization with overlap
     ethr =  6.03E-10,  avg # of iterations =  2.0

     total cpu time spent up to now is      631.4 secs

     total energy              =   -8188.48139044 Ry
     estimated scf accuracy    <       0.00002018 Ry

     iteration # 27     ecut=    71.00 Ry     beta= 0.10
     Davidson diagonalization with overlap
     ethr =  6.03E-10,  avg # of iterations =  3.0

     total cpu time spent up to now is      661.1 secs

     End of self-consistent calculation

          k = 0.0346 0.0346 0.0346 ( 62450 PWs)   bands (ev):

   -80.7367 -80.7367 -80.7367 -80.7367 -80.7367 -80.7367 -80.7367 -80.7367
   -80.7367 -80.7367 -80.7367 -80.7367 -80.7367 -80.7367 -80.7367 -80.7366
   -46.5407 -46.5407 -46.5407 -46.5406 -46.5406 -46.5406 -46.5404 -46.5404
   -46.5404 -46.5402 -46.5402 -46.5402 -46.5402 -46.5402 -46.5402 -46.5401
   -46.5401 -46.5401 -46.5401 -46.5401 -46.5401 -46.5401 -46.5401 -46.5401
   -46.5401 -46.5401 -46.5400 -46.5400 -46.5400 -46.5400 -46.5400 -46.5400
   -46.5400 -46.5400 -46.5400 -46.5400 -46.5400 -46.5400 -46.5399 -46.5398
   -46.5397 -46.5397 -46.5395 -46.5395 -46.5395 -46.5395 -46.5395 -46.5395
     0.1133   0.6449   0.6449   0.6449   0.6469   0.6469   0.6469   0.6833
     0.6833   0.7424   0.7424   0.7424   0.7444   0.7444   0.7444   0.8225
     0.8402   0.8402   0.8487   0.8487   0.8536   0.8576   0.8576   0.8576
     0.8736   0.8736   0.8782   0.8782   0.8782   0.8793   0.8793   0.8793
     0.8875   0.8875   0.8875   0.8892   0.9346   0.9346   0.9346   0.9377
     0.9377   0.9377   0.9516   0.9516   0.9516   0.9610   0.9610   0.9610
     1.0048   1.0048   1.0048   1.0317   1.0317   1.0317   1.0395   1.0395
     1.0395   1.0406   1.0406   1.0406   1.0550   1.0550   1.0598   1.0598
     1.0598   1.0637   1.0637   1.0637   1.0664   1.0664   1.0665   1.0665
     1.1575   1.1635   1.1635   1.1931   1.1931   1.1931   1.1958   1.1958
     1.1958   1.7287   1.7287   1.7287   2.0783   2.0783   2.0783   3.1585
     3.1586   3.1586   3.3088   3.3088   3.3088   3.7963   3.8096   4.1117
     4.1117   4.1117   4.2620   4.2620   4.2620   5.2872   5.8121   5.9713
     5.9713   6.3797   6.3797   6.6147   6.6381

          k = 0.0346 0.0346 0.1038 ( 62424 PWs)   bands (ev):

   -80.7367 -80.7367 -80.7367 -80.7367 -80.7367 -80.7367 -80.7367 -80.7367
   -80.7367 -80.7367 -80.7367 -80.7367 -80.7367 -80.7367 -80.7367 -80.7366
   -46.5406 -46.5406 -46.5406 -46.5406 -46.5406 -46.5406 -46.5406 -46.5405
   -46.5404 -46.5403 -46.5403 -46.5403 -46.5402 -46.5402 -46.5402 -46.5402
   -46.5402 -46.5401 -46.5401 -46.5401 -46.5401 -46.5401 -46.5400 -46.5400
   -46.5400 -46.5400 -46.5400 -46.5400 -46.5400 -46.5400 -46.5400 -46.5400
   -46.5400 -46.5400 -46.5399 -46.5399 -46.5399 -46.5399 -46.5399 -46.5397
   -46.5397 -46.5397 -46.5396 -46.5396 -46.5396 -46.5395 -46.5395 -46.5395
     0.1539   0.6517   0.6517   0.6574   0.6575   0.6575   0.6589   0.6893
     0.6928   0.7440   0.7462   0.7476   0.7476   0.7535   0.7535   0.7995
     0.8126   0.8260   0.8375   0.8417   0.8417   0.8422   0.8422   0.8475
     0.8502   0.8564   0.8576   0.8597   0.8613   0.8768   0.8768   0.8861
     0.8861   0.9015   0.9127   0.9176   0.9176   0.9179   0.9201   0.9272
     0.9272   0.9332   0.9679   0.9679   0.9749   0.9749   0.9768   0.9786
     0.9892   1.0323   1.0323   1.0341   1.0341   1.0375   1.0375   1.0413
     1.0422   1.0487   1.0487   1.0499   1.0570   1.0581   1.0581   1.0584
     1.0597   1.0599   1.0599   1.0639   1.0650   1.0652   1.0662   1.0665
     1.1447   1.1544   1.1626   1.1759   1.1792   1.1842   1.1842   1.1922
     1.1922   1.4338   1.7725   1.7725   2.1236   2.1236   2.4691   2.8870
     2.8870   3.1846   3.1877   3.1878   3.3276   3.7264   3.7648   4.1722
     4.3124   4.3124   4.3152   4.6134   4.6134   5.0786   5.5753   5.5952
     6.1710   6.4058   6.5608   6.6920   6.8182

          k = 0.0346 0.0346 0.1730 ( 62394 PWs)   bands (ev):

   -80.7367 -80.7367 -80.7367 -80.7367 -80.7367 -80.7367 -80.7367 -80.7367
   -80.7367 -80.7367 -80.7367 -80.7367 -80.7367 -80.7367 -80.7367 -80.7366
   -46.5406 -46.5406 -46.5406 -46.5406 -46.5405 -46.5405 -46.5405 -46.5404
   -46.5404 -46.5403 -46.5403 -46.5403 -46.5403 -46.5403 -46.5402 -46.5402
   -46.5402 -46.5402 -46.5401 -46.5401 -46.5401 -46.5401 -46.5401 -46.5400
   -46.5400 -46.5400 -46.5400 -46.5400 -46.5400 -46.5400 -46.5399 -46.5399
   -46.5399 -46.5399 -46.5398 -46.5398 -46.5398 -46.5398 -46.5398 -46.5398
   -46.5397 -46.5397 -46.5397 -46.5397 -46.5396 -46.5396 -46.5396 -46.5396
     0.2344   0.6670   0.6670   0.6762   0.6762   0.6809   0.6813   0.7011
     0.7111   0.7474   0.7502   0.7597   0.7597   0.7695   0.7695   0.7786
     0.7907   0.7950   0.7973   0.7989   0.7989   0.8080   0.8080   0.8167
     0.8314   0.8318   0.8491   0.8534   0.8625   0.8625   0.8727   0.8778
     0.8778   0.8896   0.8967   0.9106   0.9106   0.9276   0.9276   0.9532
     0.9566   0.9567   0.9585   0.9924   0.9924   0.9955   0.9955   1.0068
     1.0186   1.0186   1.0203   1.0273   1.0273   1.0375   1.0375   1.0397
     1.0446   1.0453   1.0517   1.0517   1.0594   1.0613   1.0624   1.0625
     1.0642   1.0643   1.0644   1.0659   1.0667   1.0838   1.0892   1.0892
     1.1251   1.1370   1.1442   1.1487   1.1558   1.1693   1.1693   1.1824
     1.1824   1.2235   1.8594   1.8594   2.2129   2.2129   2.6136   2.6136
     2.8934   2.9538   2.9538   3.2351   3.3655   3.6222   3.6824   4.2906
     4.4205   4.7045   4.7045   4.7179   5.0457   5.0457   5.2533   5.2914
     6.4669   6.5734   6.6398   6.7926   6.7926

          k = 0.0346 0.0346 0.2423 ( 62374 PWs)   bands (ev):

   -80.7367 -80.7367 -80.7367 -80.7367 -80.7367 -80.7367 -80.7367 -80.7367
   -80.7367 -80.7367 -80.7367 -80.7367 -80.7367 -80.7367 -80.7367 -80.7366
   -46.5405 -46.5405 -46.5405 -46.5405 -46.5405 -46.5405 -46.5404 -46.5404
   -46.5404 -46.5404 -46.5404 -46.5404 -46.5404 -46.5404 -46.5403 -46.5403
   -46.5403 -46.5403 -46.5401 -46.5401 -46.5401 -46.5401 -46.5400 -46.5400
   -46.5400 -46.5400 -46.5400 -46.5400 -46.5400 -46.5400 -46.5399 -46.5398
   -46.5398 -46.5398 -46.5398 -46.5398 -46.5398 -46.5398 -46.5398 -46.5397
   -46.5397 -46.5397 -46.5397 -46.5397 -46.5396 -46.5396 -46.5396 -46.5396
     0.3523   0.6657   0.6904   0.6904   0.7022   0.7022   0.7103   0.7128
     0.7183   0.7365   0.7531   0.7578   0.7578   0.7582   0.7599   0.7661
     0.7703   0.7703   0.7739   0.7783   0.7783   0.7854   0.7916   0.7916
     0.7997   0.8014   0.8314   0.8314   0.8498   0.8498   0.8537   0.8586
     0.8755   0.8765   0.8879   0.9287   0.9314   0.9314   0.9527   0.9527
     0.9824   0.9922   0.9923   1.0031   1.0052   1.0073   1.0073   1.0076
     1.0076   1.0165   1.0165   1.0248   1.0290   1.0290   1.0386   1.0425
     1.0425   1.0491   1.0495   1.0524   1.0576   1.0586   1.0587   1.0646
     1.0655   1.0678   1.0690   1.0955   1.0955   1.0997   1.1021   1.1070
     1.1093   1.1129   1.1190   1.1190   1.1215   1.1437   1.1491   1.1491
     1.1665   1.1665   1.9884   1.9884   2.3440   2.3440   2.3680   2.3680
     2.7202   2.7202   3.3081   3.3440   3.4226   3.5082   3.5875   4.2785
     4.4626   4.5756   4.9483   5.0183   5.1726   5.1726   5.5274   5.5274
     6.2306   6.2306   6.5940   6.5941   6.8498

          k = 0.0346 0.0346-0.3115 ( 62410 PWs)   bands (ev):

   -80.7367 -80.7367 -80.7367 -80.7367 -80.7367 -80.7367 -80.7367 -80.7367
   -80.7367 -80.7367 -80.7367 -80.7367 -80.7367 -80.7367 -80.7367 -80.7366
   -46.5405 -46.5405 -46.5405 -46.5405 -46.5405 -46.5404 -46.5404 -46.5404
   -46.5404 -46.5404 -46.5404 -46.5404 -46.5404 -46.5404 -46.5404 -46.5404
   -46.5403 -46.5403 -46.5401 -46.5401 -46.5401 -46.5401 -46.5401 -46.5401
   -46.5400 -46.5400 -46.5400 -46.5400 -46.5400 -46.5400 -46.5398 -46.5398
   -46.5398 -46.5398 -46.5398 -46.5398 -46.5398 -46.5398 -46.5398 -46.5397
   -46.5397 -46.5397 -46.5397 -46.5397 -46.5397 -46.5397 -46.5397 -46.5397
     0.5018   0.5018   0.7211   0.7211   0.7211   0.7211   0.7342   0.7342
     0.7342   0.7342   0.7387   0.7388   0.7402   0.7402   0.7491   0.7491
     0.7616   0.7616   0.7669   0.7669   0.7741   0.7741   0.8026   0.8026
     0.8026   0.8026   0.8190   0.8190   0.8190   0.8190   0.8620   0.8620
     0.8662   0.8662   0.9066   0.9066   0.9615   0.9615   0.9615   0.9615
     0.9811   0.9811   0.9811   0.9811   1.0055   1.0055   1.0193   1.0193
     1.0193   1.0193   1.0316   1.0316   1.0316   1.0316   1.0441   1.0441
     1.0530   1.0530   1.0540   1.0540   1.0555   1.0555   1.0651   1.0651
     1.0702   1.0702   1.0757   1.0757   1.0840   1.0840   1.0843   1.0843
     1.1242   1.1242   1.1242   1.1242   1.1272   1.1272   1.1451   1.1451
     1.1451   1.1451   2.1585   2.1585   2.1585   2.1585   2.5143   2.5143
     2.5143   2.5143   3.4006   3.4006   3.4978   3.4978   3.8110   3.8110
     4.6834   4.6834   4.7767   4.7767   5.6859   5.6859   5.6859   5.6859
     6.0466   6.0466   6.0466   6.0466   6.8008

          k = 0.0346 0.1038 0.1038 ( 62426 PWs)   bands (ev):

   -80.7367 -80.7367 -80.7367 -80.7367 -80.7367 -80.7367 -80.7367 -80.7367
   -80.7367 -80.7367 -80.7367 -80.7367 -80.7367 -80.7367 -80.7367 -80.7366
   -46.5407 -46.5406 -46.5406 -46.5406 -46.5406 -46.5406 -46.5405 -46.5405
   -46.5404 -46.5403 -46.5403 -46.5403 -46.5403 -46.5403 -46.5402 -46.5402
   -46.5402 -46.5401 -46.5401 -46.5401 -46.5401 -46.5401 -46.5401 -46.5400
   -46.5400 -46.5400 -46.5400 -46.5400 -46.5400 -46.5400 -46.5400 -46.5400
   -46.5400 -46.5399 -46.5399 -46.5399 -46.5398 -46.5398 -46.5398 -46.5397
   -46.5397 -46.5397 -46.5397 -46.5396 -46.5396 -46.5396 -46.5396 -46.5395
     0.1940   0.6540   0.6638   0.6638   0.6683   0.6683   0.6709   0.6967
     0.7007   0.7487   0.7493   0.7493   0.7556   0.7556   0.7664   0.7797
     0.7986   0.8199   0.8199   0.8223   0.8223   0.8240   0.8374   0.8422
     0.8426   0.8510   0.8513   0.8609   0.8609   0.8677   0.8691   0.8737
     0.8783   0.8783   0.9200   0.9287   0.9287   0.9298   0.9375   0.9412
     0.9490   0.9490   0.9607   0.9642   0.9642   0.9743   0.9923   0.9923
     1.0080   1.0080   1.0289   1.0292   1.0363   1.0363   1.0376   1.0393
     1.0393   1.0481   1.0481   1.0488   1.0510   1.0554   1.0597   1.0597
     1.0630   1.0640   1.0644   1.0658   1.0666   1.0724   1.0833   1.0834
     1.1265   1.1474   1.1655   1.1670   1.1671   1.1702   1.1766   1.1766
     1.1941   1.4715   1.4715   1.8170   2.1688   2.5141   2.5141   2.5776
     2.9208   2.9208   3.2136   3.2136   3.3588   3.6215   3.7283   4.2204
     4.3652   4.3652   4.6580   4.6580   4.9500   5.0029   5.5414   5.5486
     6.0582   6.3586   6.4641   6.7101   7.0266

          k = 0.0346 0.1038 0.1730 ( 62405 PWs)   bands (ev):

   -80.7367 -80.7367 -80.7367 -80.7367 -80.7367 -80.7367 -80.7367 -80.7367
   -80.7367 -80.7367 -80.7367 -80.7367 -80.7367 -80.7367 -80.7367 -80.7366
   -46.5406 -46.5406 -46.5406 -46.5406 -46.5405 -46.5405 -46.5405 -46.5404
   -46.5404 -46.5404 -46.5404 -46.5403 -46.5403 -46.5403 -46.5402 -46.5402
   -46.5402 -46.5401 -46.5401 -46.5401 -46.5401 -46.5401 -46.5401 -46.5400
   -46.5400 -46.5400 -46.5400 -46.5400 -46.5400 -46.5400 -46.5400 -46.5399
   -46.5399 -46.5399 -46.5398 -46.5398 -46.5398 -46.5398 -46.5398 -46.5398
   -46.5397 -46.5397 -46.5397 -46.5397 -46.5396 -46.5396 -46.5396 -46.5395
     0.2729   0.6644   0.6778   0.6851   0.6862   0.6876   0.6912   0.7085
     0.7183   0.7532   0.7568   0.7611   0.7618   0.7618   0.7718   0.7732
     0.7788   0.7793   0.7858   0.7915   0.7960   0.8044   0.8079   0.8266
     0.8361   0.8389   0.8472   0.8516   0.8534   0.8553   0.8564   0.8641
     0.8742   0.8899   0.9157   0.9264   0.9326   0.9421   0.9480   0.9514
     0.9567   0.9689   0.9771   0.9851   0.9855   0.9896   0.9971   0.9979
     1.0026   1.0181   1.0202   1.0228   1.0295   1.0324   1.0375   1.0400
     1.0401   1.0407   1.0427   1.0466   1.0505   1.0584   1.0590   1.0598
     1.0612   1.0618   1.0660   1.0679   1.0727   1.0930   1.1021   1.1069
     1.1126   1.1303   1.1361   1.1485   1.1509   1.1533   1.1642   1.1682
     1.1896   1.2447   1.5498   1.9047   2.2574   2.2933   2.6024   2.6524
     2.9364   2.9863   2.9871   3.2640   3.2754   3.4814   3.6407   4.4609
     4.4698   4.6743   4.7462   4.7482   5.0834   5.3213   5.4164   5.4467
     6.2392   6.2635   6.4742   6.6215   6.7458

          k = 0.0346 0.1038 0.2423 ( 62399 PWs)   bands (ev):

   -80.7367 -80.7367 -80.7367 -80.7367 -80.7367 -80.7367 -80.7367 -80.7367
   -80.7367 -80.7367 -80.7367 -80.7367 -80.7367 -80.7367 -80.7367 -80.7366
   -46.5406 -46.5405 -46.5405 -46.5405 -46.5405 -46.5404 -46.5404 -46.5404
   -46.5404 -46.5404 -46.5404 -46.5404 -46.5403 -46.5403 -46.5403 -46.5403
   -46.5402 -46.5402 -46.5402 -46.5401 -46.5401 -46.5401 -46.5401 -46.5401
   -46.5400 -46.5400 -46.5400 -46.5400 -46.5399 -46.5399 -46.5399 -46.5399
   -46.5399 -46.5399 -46.5398 -46.5398 -46.5398 -46.5398 -46.5397 -46.5397
   -46.5397 -46.5397 -46.5397 -46.5397 -46.5397 -46.5397 -46.5396 -46.5396
     0.3876   0.6737   0.6828   0.6988   0.7087   0.7102   0.7149   0.7171
     0.7249   0.7410   0.7435   0.7460   0.7573   0.7609   0.7617   0.7697
     0.7714   0.7716   0.7731   0.7770   0.7809   0.7936   0.8025   0.8056
     0.8110   0.8176   0.8238   0.8327   0.8391   0.8420   0.8517   0.8627
     0.8718   0.8986   0.9087   0.9095   0.9413   0.9585   0.9587   0.9712
     0.9730   0.9893   0.9904   0.9941   0.9954   1.0029   1.0061   1.0087
     1.0092   1.0100   1.0161   1.0191   1.0243   1.0271   1.0292   1.0397
     1.0401   1.0468   1.0473   1.0478   1.0527   1.0558   1.0572   1.0575
     1.0660   1.0670   1.0706   1.0723   1.0732   1.0942   1.0980   1.1065
     1.1141   1.1152   1.1243   1.1271   1.1276   1.1357   1.1394   1.1545
     1.1571   1.1788   1.6713   2.0338   2.0449   2.3872   2.4101   2.7310
     2.7582   3.0799   3.0860   3.3346   3.3366   3.3822   3.5335   4.2836
     4.6235   4.8756   4.8832   5.0600   5.2080   5.2302   5.5577   5.9158
     5.9329   6.2340   6.2496   6.5278   6.5920

          k = 0.0346 0.1038-0.3115 ( 62382 PWs)   bands (ev):

   -80.7367 -80.7367 -80.7367 -80.7367 -80.7367 -80.7367 -80.7367 -80.7367
   -80.7367 -80.7367 -80.7367 -80.7367 -80.7367 -80.7367 -80.7367 -80.7366
   -46.5405 -46.5405 -46.5405 -46.5405 -46.5405 -46.5405 -46.5404 -46.5404
   -46.5404 -46.5404 -46.5404 -46.5404 -46.5404 -46.5403 -46.5403 -46.5403
   -46.5403 -46.5402 -46.5401 -46.5401 -46.5401 -46.5401 -46.5401 -46.5401
   -46.5400 -46.5400 -46.5400 -46.5400 -46.5399 -46.5399 -46.5399 -46.5399
   -46.5398 -46.5398 -46.5398 -46.5398 -46.5397 -46.5397 -46.5397 -46.5397
   -46.5397 -46.5397 -46.5397 -46.5397 -46.5397 -46.5397 -46.5396 -46.5396
     0.5294   0.5294   0.7086   0.7086   0.7257   0.7257   0.7300   0.7300
     0.7380   0.7380   0.7421   0.7421   0.7456   0.7456   0.7466   0.7466
     0.7735   0.7735   0.7769   0.7769   0.7920   0.7920   0.7949   0.7949
     0.8054   0.8054   0.8186   0.8186   0.8407   0.8407   0.8433   0.8433
     0.8758   0.8758   0.9325   0.9325   0.9381   0.9381   0.9654   0.9654
     0.9842   0.9842   0.9982   0.9982   1.0094   1.0094   1.0096   1.0096
     1.0192   1.0192   1.0236   1.0236   1.0272   1.0272   1.0359   1.0359
     1.0415   1.0415   1.0418   1.0418   1.0522   1.0522   1.0524   1.0524
     1.0720   1.0720   1.0782   1.0782   1.0818   1.0818   1.0854   1.0854
     1.0999   1.0999   1.1155   1.1155   1.1363   1.1363   1.1446   1.1446
     1.1618   1.1618   1.8367   1.8367   2.2028   2.2028   2.5554   2.5554
     2.8953   2.8953   3.1978   3.1978   3.4283   3.4284   3.8388   3.8389
     4.8225   4.8225   5.0408   5.0408   5.3792   5.3792   5.7101   5.7101
     6.0658   6.0658   6.3552   6.4504   6.4539

          k = 0.0346 0.1730 0.1730 ( 62386 PWs)   bands (ev):

   -80.7367 -80.7367 -80.7367 -80.7367 -80.7367 -80.7367 -80.7367 -80.7367
   -80.7367 -80.7367 -80.7367 -80.7367 -80.7367 -80.7367 -80.7367 -80.7366
   -46.5406 -46.5406 -46.5406 -46.5405 -46.5405 -46.5405 -46.5404 -46.5404
   -46.5404 -46.5404 -46.5404 -46.5404 -46.5403 -46.5403 -46.5403 -46.5402
   -46.5402 -46.5401 -46.5401 -46.5401 -46.5401 -46.5401 -46.5401 -46.5401
   -46.5400 -46.5400 -46.5400 -46.5400 -46.5400 -46.5400 -46.5399 -46.5399
   -46.5399 -46.5399 -46.5398 -46.5398 -46.5398 -46.5398 -46.5397 -46.5397
   -46.5397 -46.5397 -46.5397 -46.5397 -46.5397 -46.5396 -46.5396 -46.5395
     0.3481   0.6686   0.6967   0.6967   0.6999   0.6999   0.7109   0.7203
     0.7347   0.7448   0.7448   0.7477   0.7606   0.7634   0.7673   0.7673
     0.7744   0.7787   0.7787   0.7906   0.7906   0.7934   0.8082   0.8300
     0.8335   0.8350   0.8350   0.8438   0.8506   0.8506   0.8514   0.8583
     0.8623   0.9115   0.9412   0.9412   0.9428   0.9517   0.9551   0.9612
     0.9634   0.9634   0.9759   0.9872   0.9921   0.9921   0.9945   1.0128
     1.0128   1.0136   1.0207   1.0207   1.0211   1.0211   1.0328   1.0333
     1.0333   1.0384   1.0384   1.0394   1.0474   1.0474   1.0561   1.0582
     1.0592   1.0618   1.0675   1.0709   1.0731   1.0829   1.1003   1.1136
     1.1259   1.1259   1.1278   1.1331   1.1331   1.1434   1.1434   1.1693
     1.1906   1.2986   1.2986   1.9930   2.0062   2.3446   2.7275   2.7275
     3.0200   3.0200   3.0518   3.0518   3.3068   3.4629   3.5296   4.4290
     4.5409   4.8344   4.8344   5.1569   5.1569   5.3686   5.5135   5.8944
     5.9449   6.2048   6.2048   6.2298   6.5734

          k = 0.0346 0.1730 0.2423 ( 62417 PWs)   bands (ev):

   -80.7367 -80.7367 -80.7367 -80.7367 -80.7367 -80.7367 -80.7367 -80.7367
   -80.7367 -80.7367 -80.7367 -80.7367 -80.7367 -80.7367 -80.7367 -80.7366
   -46.5406 -46.5405 -46.5405 -46.5405 -46.5405 -46.5405 -46.5404 -46.5404
   -46.5404 -46.5404 -46.5404 -46.5404 -46.5403 -46.5403 -46.5402 -46.5402
   -46.5402 -46.5402 -46.5401 -46.5401 -46.5401 -46.5401 -46.5401 -46.5401
   -46.5401 -46.5400 -46.5400 -46.5400 -46.5400 -46.5399 -46.5399 -46.5399
   -46.5399 -46.5399 -46.5399 -46.5398 -46.5398 -46.5398 -46.5398 -46.5397
   -46.5397 -46.5397 -46.5397 -46.5397 -46.5397 -46.5396 -46.5396 -46.5396
     0.4542   0.6793   0.6814   0.7117   0.7149   0.7178   0.7179   0.7184
     0.7334   0.7351   0.7366   0.7492   0.7525   0.7592   0.7673   0.7709
     0.7720   0.7764   0.7794   0.7884   0.7938   0.8007   0.8089   0.8206
     0.8223   0.8246   0.8269   0.8359   0.8374   0.8387   0.8430   0.8748
     0.8769   0.9056   0.9364   0.9433   0.9450   0.9499   0.9625   0.9727
     0.9753   0.9814   0.9919   0.9946   0.9950   1.0030   1.0044   1.0077
     1.0082   1.0083   1.0119   1.0155   1.0227   1.0265   1.0306   1.0309
     1.0321   1.0358   1.0365   1.0406   1.0424   1.0438   1.0491   1.0536
     1.0545   1.0585   1.0607   1.0707   1.0773   1.0904   1.0931   1.0966
     1.1011   1.1106   1.1146   1.1147   1.1343   1.1368   1.1498   1.1559
     1.1685   1.1853   1.4002   1.7584   2.1217   2.4717   2.4916   2.8322
     2.8351   3.1312   3.1393   3.1446   3.3938   3.4231   3.4543   4.2683
     4.6997   4.9592   5.2607   5.2737   5.2752   5.4887   5.6136   5.6570
     5.8173   5.9916   6.2109   6.3819   6.4670

          k = 0.0346 0.1730-0.3115 ( 62382 PWs)   bands (ev):

   -80.7367 -80.7367 -80.7367 -80.7367 -80.7367 -80.7367 -80.7367 -80.7367
   -80.7367 -80.7367 -80.7367 -80.7367 -80.7367 -80.7367 -80.7367 -80.7366
   -46.5405 -46.5405 -46.5405 -46.5405 -46.5405 -46.5405 -46.5405 -46.5405
   -46.5404 -46.5404 -46.5404 -46.5404 -46.5403 -46.5403 -46.5402 -46.5402
   -46.5402 -46.5402 -46.5402 -46.5401 -46.5401 -46.5401 -46.5401 -46.5401
   -46.5400 -46.5400 -46.5400 -46.5400 -46.5399 -46.5399 -46.5399 -46.5399
   -46.5399 -46.5399 -46.5398 -46.5398 -46.5398 -46.5397 -46.5397 -46.5397
   -46.5397 -46.5397 -46.5397 -46.5397 -46.5397 -46.5397 -46.5396 -46.5396
     0.5761   0.5761   0.6962   0.6962   0.7267   0.7267   0.7308   0.7308
     0.7352   0.7352   0.7409   0.7409   0.7527   0.7527   0.7563   0.7563
     0.7872   0.7872   0.7890   0.7890   0.8000   0.8000   0.8137   0.8137
     0.8174   0.8175   0.8230   0.8230   0.8234   0.8234   0.8673   0.8673
     0.9051   0.9051   0.9098   0.9098   0.9656   0.9656   0.9683   0.9683
     0.9853   0.9853   0.9996   0.9996   1.0065   1.0065   1.0065   1.0065
     1.0106   1.0106   1.0127   1.0127   1.0165   1.0165   1.0208   1.0208
     1.0220   1.0220   1.0475   1.0475   1.0480   1.0480   1.0485   1.0485
     1.0637   1.0637   1.0735   1.0735   1.0773   1.0773   1.0782   1.0782
     1.0911   1.0911   1.1035   1.1035   1.1226   1.1226   1.1618   1.1618
     1.1736   1.1736   1.5548   1.5548   2.2884   2.2884   2.6356   2.6356
     2.9713   2.9713   3.2609   3.2609   3.2835   3.2835   3.8844   3.8844
     5.1138   5.1138   5.1425   5.1425   5.3820   5.3820   5.7485   5.7485
     5.8508   5.8508   6.0928   6.0928   6.8756

          k = 0.0346 0.2423 0.2423 ( 62404 PWs)   bands (ev):

   -80.7367 -80.7367 -80.7367 -80.7367 -80.7367 -80.7367 -80.7367 -80.7367
   -80.7367 -80.7367 -80.7367 -80.7367 -80.7367 -80.7367 -80.7367 -80.7366
   -46.5406 -46.5405 -46.5405 -46.5405 -46.5405 -46.5405 -46.5405 -46.5404
   -46.5404 -46.5404 -46.5404 -46.5404 -46.5403 -46.5403 -46.5403 -46.5402
   -46.5402 -46.5402 -46.5401 -46.5401 -46.5401 -46.5401 -46.5401 -46.5401
   -46.5401 -46.5400 -46.5400 -46.5400 -46.5400 -46.5400 -46.5399 -46.5399
   -46.5399 -46.5398 -46.5398 -46.5398 -46.5398 -46.5398 -46.5398 -46.5397
   -46.5397 -46.5397 -46.5397 -46.5397 -46.5397 -46.5396 -46.5396 -46.5396
     0.5409   0.6795   0.6836   0.6836   0.7237   0.7237   0.7247   0.7247
     0.7313   0.7399   0.7432   0.7466   0.7490   0.7544   0.7693   0.7693
     0.7767   0.7835   0.8033   0.8033   0.8053   0.8053   0.8136   0.8161
     0.8161   0.8309   0.8388   0.8403   0.8454   0.8454   0.8487   0.8655
     0.9080   0.9106   0.9354   0.9354   0.9547   0.9639   0.9684   0.9695
     0.9757   0.9890   0.9890   0.9967   0.9967   1.0041   1.0042   1.0054
     1.0072   1.0118   1.0122   1.0122   1.0158   1.0235   1.0235   1.0281
     1.0319   1.0355   1.0355   1.0356   1.0356   1.0389   1.0389   1.0479
     1.0495   1.0572   1.0602   1.0688   1.0716   1.0755   1.0840   1.0929
     1.0952   1.0952   1.1084   1.1124   1.1124   1.1677   1.1677   1.1744
     1.1857   1.1882   1.1882   1.5138   2.2485   2.5943   2.6085   2.6085
     2.9337   2.9387   2.9387   3.2298   3.5490   3.5490   3.6280   4.1681
     4.7236   5.3637   5.3637   5.4365   5.4709   5.4709   5.5043   5.6813
     5.6821   5.6821   6.0782   6.4098   6.4820

          k = 0.0346 0.2423-0.3115 ( 62418 PWs)   bands (ev):

   -80.7367 -80.7367 -80.7367 -80.7367 -80.7367 -80.7367 -80.7367 -80.7367
   -80.7367 -80.7367 -80.7367 -80.7367 -80.7367 -80.7367 -80.7367 -80.7366
   -46.5406 -46.5406 -46.5405 -46.5405 -46.5405 -46.5405 -46.5405 -46.5404
   -46.5404 -46.5404 -46.5404 -46.5404 -46.5403 -46.5403 -46.5402 -46.5402
   -46.5402 -46.5401 -46.5401 -46.5401 -46.5401 -46.5401 -46.5401 -46.5401
   -46.5401 -46.5401 -46.5400 -46.5400 -46.5400 -46.5400 -46.5399 -46.5399
   -46.5399 -46.5399 -46.5398 -46.5398 -46.5398 -46.5398 -46.5397 -46.5397
   -46.5397 -46.5397 -46.5397 -46.5397 -46.5396 -46.5396 -46.5396 -46.5396
     0.6249   0.6249   0.6818   0.6818   0.7282   0.7282   0.7323   0.7323
     0.7326   0.7326   0.7387   0.7387   0.7585   0.7585   0.7615   0.7615
     0.7883   0.7883   0.8070   0.8070   0.8134   0.8134   0.8216   0.8216
     0.8262   0.8262   0.8338   0.8338   0.8360   0.8360   0.8765   0.8765
     0.8993   0.8993   0.9580   0.9580   0.9665   0.9665   0.9697   0.9697
     0.9776   0.9776   0.9781   0.9781   0.9866   0.9866   1.0122   1.0122
     1.0127   1.0127   1.0227   1.0227   1.0242   1.0242   1.0257   1.0257
     1.0264   1.0264   1.0373   1.0373   1.0412   1.0412   1.0426   1.0426
     1.0452   1.0452   1.0576   1.0576   1.0731   1.0731   1.0827   1.0827
     1.0937   1.0937   1.0950   1.0950   1.1095   1.1095   1.1740   1.1740
     1.1799   1.1799   1.3183   1.3183   2.4116   2.4116   2.7516   2.7516
     2.7572   2.7572   3.0735   3.0735   3.6353   3.6353   3.9171   3.9171
     5.0169   5.0170   5.3968   5.3968   5.4433   5.4433   5.7291   5.7291
     5.7688   5.7688   6.0932   6.0932   6.7536

          k = 0.0346-0.3115-0.3115 ( 62396 PWs)   bands (ev):

   -80.7367 -80.7367 -80.7367 -80.7367 -80.7367 -80.7367 -80.7367 -80.7367
   -80.7367 -80.7367 -80.7367 -80.7367 -80.7367 -80.7367 -80.7367 -80.7366
   -46.5405 -46.5405 -46.5405 -46.5405 -46.5405 -46.5405 -46.5405 -46.5404
   -46.5404 -46.5404 -46.5404 -46.5404 -46.5403 -46.5403 -46.5403 -46.5403
   -46.5402 -46.5402 -46.5402 -46.5401 -46.5401 -46.5401 -46.5401 -46.5401
   -46.5400 -46.5400 -46.5400 -46.5400 -46.5400 -46.5400 -46.5400 -46.5399
   -46.5398 -46.5398 -46.5398 -46.5398 -46.5398 -46.5397 -46.5397 -46.5397
   -46.5397 -46.5397 -46.5397 -46.5397 -46.5396 -46.5396 -46.5396 -46.5395
     0.6602   0.6602   0.6602   0.6602   0.7322   0.7322   0.7322   0.7322
     0.7331   0.7331   0.7331   0.7331   0.7619   0.7619   0.7619   0.7619
     0.7950   0.7950   0.7951   0.7951   0.8322   0.8322   0.8322   0.8322
     0.8420   0.8420   0.8420   0.8420   0.8439   0.8439   0.8439   0.8439
     0.9332   0.9332   0.9333   0.9333   0.9661   0.9661   0.9661   0.9661
     0.9741   0.9741   0.9741   0.9741   1.0046   1.0046   1.0046   1.0046
     1.0260   1.0260   1.0260   1.0260   1.0267   1.0267   1.0267   1.0267
     1.0324   1.0324   1.0324   1.0324   1.0348   1.0348   1.0348   1.0348
     1.0586   1.0586   1.0586   1.0586   1.0873   1.0873   1.0873   1.0873
     1.1003   1.1003   1.1003   1.1003   1.1374   1.1374   1.1374   1.1374
     1.1801   1.1801   1.1801   1.1801   2.5688   2.5689   2.5689   2.5689
     2.8995   2.8996   2.8996   2.8996   3.8618   3.8618   3.8618   3.8618
     5.0882   5.0882   5.0882   5.0882   5.6900   5.6900   5.6900   5.6900
     5.9902   5.9902   5.9902   5.9903   6.8083

          k = 0.1038 0.1038 0.1038 ( 62339 PWs)   bands (ev):

   -80.7367 -80.7367 -80.7367 -80.7367 -80.7367 -80.7367 -80.7367 -80.7367
   -80.7367 -80.7367 -80.7367 -80.7367 -80.7367 -80.7367 -80.7367 -80.7366
   -46.5406 -46.5406 -46.5406 -46.5405 -46.5405 -46.5405 -46.5405 -46.5405
   -46.5403 -46.5403 -46.5403 -46.5403 -46.5403 -46.5402 -46.5402 -46.5402
   -46.5402 -46.5402 -46.5401 -46.5401 -46.5401 -46.5401 -46.5401 -46.5401
   -46.5400 -46.5400 -46.5400 -46.5400 -46.5400 -46.5400 -46.5400 -46.5400
   -46.5400 -46.5399 -46.5399 -46.5398 -46.5398 -46.5398 -46.5398 -46.5398
   -46.5397 -46.5397 -46.5397 -46.5397 -46.5397 -46.5395 -46.5395 -46.5395
     0.2334   0.6668   0.6668   0.6668   0.6800   0.6800   0.6800   0.7062
     0.7062   0.7501   0.7501   0.7501   0.7620   0.7687   0.7687   0.7687
     0.7994   0.7994   0.7994   0.8122   0.8122   0.8268   0.8268   0.8268
     0.8434   0.8434   0.8491   0.8491   0.8491   0.8752   0.8752   0.8752
     0.8889   0.9025   0.9025   0.9335   0.9335   0.9335   0.9374   0.9374
     0.9374   0.9379   0.9620   0.9620   0.9621   0.9974   0.9974   0.9974
     1.0282   1.0282   1.0282   1.0319   1.0319   1.0319   1.0336   1.0336
     1.0336   1.0394   1.0394   1.0394   1.0509   1.0509   1.0631   1.0631
     1.0631   1.0639   1.0639   1.0658   1.0658   1.0949   1.0949   1.0949
     1.1048   1.1518   1.1518   1.1518   1.1564   1.1564   1.1799   1.1799
     1.1799   1.5125   1.5125   1.5125   2.5584   2.5584   2.5584   2.6167
     2.6167   2.6167   3.3781   3.3781   3.3781   3.4586   3.7536   4.2795
     4.2796   4.2796   4.8564   5.0413   5.0413   5.0413   5.5883   5.6847
     5.6847   6.4111   6.4111   6.8447   6.8447

          k = 0.1038 0.1038 0.1730 ( 62401 PWs)   bands (ev):

   -80.7367 -80.7367 -80.7367 -80.7367 -80.7367 -80.7367 -80.7367 -80.7367
   -80.7367 -80.7367 -80.7367 -80.7367 -80.7367 -80.7367 -80.7367 -80.7366
   -46.5406 -46.5406 -46.5406 -46.5405 -46.5405 -46.5405 -46.5405 -46.5404
   -46.5404 -46.5404 -46.5404 -46.5404 -46.5404 -46.5403 -46.5402 -46.5402
   -46.5402 -46.5402 -46.5402 -46.5401 -46.5401 -46.5401 -46.5401 -46.5400
   -46.5400 -46.5400 -46.5400 -46.5400 -46.5400 -46.5400 -46.5399 -46.5399
   -46.5399 -46.5399 -46.5399 -46.5398 -46.5398 -46.5398 -46.5398 -46.5397
   -46.5397 -46.5397 -46.5397 -46.5397 -46.5397 -46.5396 -46.5396 -46.5395
     0.3110   0.6769   0.6769   0.6907   0.6955   0.6986   0.6986   0.7170
     0.7243   0.7473   0.7530   0.7582   0.7582   0.7618   0.7714   0.7714
     0.7755   0.7876   0.7876   0.7921   0.8008   0.8100   0.8121   0.8121
     0.8357   0.8380   0.8458   0.8501   0.8501   0.8528   0.8528   0.8707
     0.8771   0.9068   0.9096   0.9230   0.9230   0.9399   0.9475   0.9475
     0.9531   0.9558   0.9761   0.9839   0.9839   1.0021   1.0021   1.0031
     1.0031   1.0193   1.0254   1.0257   1.0261   1.0261   1.0344   1.0344
     1.0373   1.0421   1.0426   1.0553   1.0565   1.0565   1.0591   1.0591
     1.0608   1.0629   1.0633   1.0638   1.0691   1.0770   1.1136   1.1136
     1.1159   1.1186   1.1323   1.1323   1.1391   1.1543   1.1597   1.1767
     1.1767   1.2740   1.5949   1.5949   2.3364   2.3364   2.6452   2.6452
     2.6923   2.9782   3.2759   3.3010   3.3010   3.4168   3.7097   4.3956
     4.5127   4.5127   4.6353   5.1165   5.3457   5.4793   5.4793   5.5824
     5.9576   6.2056   6.4350   6.4350   6.5805

          k = 0.1038 0.1038 0.2423 ( 62380 PWs)   bands (ev):

   -80.7367 -80.7367 -80.7367 -80.7367 -80.7367 -80.7367 -80.7367 -80.7367
   -80.7367 -80.7367 -80.7367 -80.7367 -80.7367 -80.7367 -80.7367 -80.7366
   -46.5406 -46.5406 -46.5405 -46.5405 -46.5405 -46.5404 -46.5404 -46.5404
   -46.5404 -46.5404 -46.5404 -46.5403 -46.5403 -46.5403 -46.5402 -46.5402
   -46.5402 -46.5402 -46.5401 -46.5401 -46.5401 -46.5401 -46.5401 -46.5401
   -46.5400 -46.5400 -46.5400 -46.5400 -46.5400 -46.5399 -46.5399 -46.5399
   -46.5399 -46.5398 -46.5398 -46.5398 -46.5398 -46.5397 -46.5397 -46.5397
   -46.5397 -46.5397 -46.5397 -46.5397 -46.5397 -46.5396 -46.5396 -46.5396
     0.4224   0.6840   0.6937   0.6937   0.7116   0.7225   0.7229   0.7229
     0.7326   0.7354   0.7426   0.7426   0.7493   0.7580   0.7735   0.7735
     0.7755   0.7768   0.7826   0.7826   0.7893   0.7905   0.8093   0.8106
     0.8106   0.8230   0.8230   0.8380   0.8465   0.8498   0.8514   0.8514
     0.8629   0.8700   0.9214   0.9214   0.9350   0.9718   0.9718   0.9732
     0.9732   0.9759   0.9805   0.9884   0.9948   0.9981   1.0086   1.0086
     1.0096   1.0096   1.0186   1.0202   1.0202   1.0215   1.0215   1.0294
     1.0442   1.0456   1.0468   1.0489   1.0489   1.0563   1.0568   1.0580
     1.0632   1.0634   1.0638   1.0749   1.0749   1.0765   1.0773   1.1112
     1.1112   1.1153   1.1232   1.1324   1.1339   1.1341   1.1342   1.1567
     1.1675   1.1675   1.7189   1.7190   2.0909   2.0909   2.7716   2.7716
     2.8004   3.0977   3.1186   3.1187   3.4189   3.4742   3.6317   4.2871
     4.5647   4.9250   4.9250   5.0438   5.2243   5.4891   5.9257   5.9257
     5.9583   5.9583   6.1515   6.3379   6.3686

          k = 0.1038 0.1038-0.3115 ( 62430 PWs)   bands (ev):

   -80.7367 -80.7367 -80.7367 -80.7367 -80.7367 -80.7367 -80.7367 -80.7367
   -80.7367 -80.7367 -80.7367 -80.7367 -80.7367 -80.7367 -80.7367 -80.7366
   -46.5405 -46.5405 -46.5405 -46.5405 -46.5405 -46.5405 -46.5405 -46.5405
   -46.5405 -46.5405 -46.5404 -46.5404 -46.5403 -46.5403 -46.5403 -46.5403
   -46.5402 -46.5402 -46.5402 -46.5402 -46.5401 -46.5401 -46.5401 -46.5401
   -46.5401 -46.5400 -46.5400 -46.5400 -46.5400 -46.5400 -46.5399 -46.5399
   -46.5398 -46.5398 -46.5398 -46.5398 -46.5398 -46.5398 -46.5398 -46.5398
   -46.5397 -46.5397 -46.5397 -46.5397 -46.5397 -46.5397 -46.5397 -46.5396
     0.5568   0.5568   0.7160   0.7160   0.7160   0.7160   0.7245   0.7245
     0.7517   0.7517   0.7517   0.7517   0.7524   0.7524   0.7575   0.7575
     0.7657   0.7657   0.7788   0.7788   0.7955   0.7955   0.7955   0.7955
     0.8156   0.8156   0.8345   0.8345   0.8345   0.8345   0.8466   0.8466
     0.8555   0.8555   0.9419   0.9419   0.9419   0.9419   0.9658   0.9658
     1.0000   1.0000   1.0000   1.0000   1.0034   1.0034   1.0126   1.0126
     1.0133   1.0133   1.0143   1.0143   1.0143   1.0143   1.0303   1.0303
     1.0323   1.0323   1.0323   1.0323   1.0514   1.0514   1.0524   1.0524
     1.0636   1.0636   1.0803   1.0803   1.0869   1.0869   1.0919   1.0919
     1.0919   1.0919   1.0949   1.0949   1.1478   1.1478   1.1529   1.1529
     1.1529   1.1529   1.8844   1.8845   1.8845   1.8845   2.9326   2.9326
     2.9326   2.9326   2.9370   2.9370   3.5481   3.5481   3.8648   3.8648
     4.7822   4.7822   5.3555   5.3555   5.4094   5.4094   5.4094   5.4094
     6.2185   6.2185   6.4683   6.4683   6.4683

          k = 0.1038 0.1730 0.1730 ( 62430 PWs)   bands (ev):

   -80.7367 -80.7367 -80.7367 -80.7367 -80.7367 -80.7367 -80.7367 -80.7367
   -80.7367 -80.7367 -80.7367 -80.7367 -80.7367 -80.7367 -80.7367 -80.7366
   -46.5406 -46.5406 -46.5406 -46.5405 -46.5405 -46.5405 -46.5404 -46.5404
   -46.5404 -46.5404 -46.5404 -46.5404 -46.5403 -46.5403 -46.5403 -46.5402
   -46.5402 -46.5402 -46.5402 -46.5401 -46.5401 -46.5401 -46.5401 -46.5401
   -46.5400 -46.5400 -46.5400 -46.5400 -46.5399 -46.5399 -46.5399 -46.5399
   -46.5399 -46.5399 -46.5399 -46.5398 -46.5398 -46.5398 -46.5398 -46.5398
   -46.5397 -46.5397 -46.5397 -46.5397 -46.5397 -46.5396 -46.5396 -46.5395
     0.3848   0.6823   0.6997   0.6997   0.7098   0.7098   0.7174   0.7298
     0.7370   0.7392   0.7447   0.7447   0.7582   0.7616   0.7617   0.7617
     0.7816   0.7944   0.7944   0.7995   0.7995   0.8080   0.8124   0.8141
     0.8300   0.8306   0.8432   0.8432   0.8444   0.8444   0.8465   0.8522
     0.8856   0.9254   0.9256   0.9256   0.9342   0.9342   0.9366   0.9384
     0.9447   0.9577   0.9747   0.9898   0.9901   0.9901   0.9996   0.9996
     1.0113   1.0196   1.0254   1.0254   1.0327   1.0327   1.0347   1.0381
     1.0381   1.0417   1.0459   1.0463   1.0463   1.0527   1.0563   1.0563
     1.0583   1.0616   1.0624   1.0634   1.0694   1.0721   1.1009   1.1009
     1.1061   1.1179   1.1301   1.1319   1.1319   1.1538   1.1538   1.1602
     1.1788   1.3403   1.3403   1.6824   2.0530   2.4191   2.4191   2.7291
     3.0597   3.0597   3.0626   3.3509   3.3509   3.4828   3.6844   4.4861
     4.5173   4.6149   4.6149   5.3592   5.5416   5.5416   5.7268   5.8610
     5.9217   5.9965   6.1756   6.1756   6.2741

          k = 0.1038 0.1730 0.2423 ( 62400 PWs)   bands (ev):

   -80.7367 -80.7367 -80.7367 -80.7367 -80.7367 -80.7367 -80.7367 -80.7367
   -80.7367 -80.7367 -80.7367 -80.7367 -80.7367 -80.7367 -80.7367 -80.7366
   -46.5406 -46.5406 -46.5405 -46.5405 -46.5405 -46.5405 -46.5404 -46.5404
   -46.5404 -46.5404 -46.5404 -46.5404 -46.5403 -46.5403 -46.5403 -46.5402
   -46.5402 -46.5402 -46.5402 -46.5401 -46.5401 -46.5401 -46.5401 -46.5400
   -46.5400 -46.5400 -46.5400 -46.5400 -46.5399 -46.5399 -46.5399 -46.5399
   -46.5399 -46.5399 -46.5398 -46.5398 -46.5398 -46.5398 -46.5398 -46.5397
   -46.5397 -46.5397 -46.5397 -46.5397 -46.5397 -46.5396 -46.5396 -46.5396
     0.4879   0.6931   0.6954   0.7119   0.7195   0.7261   0.7274   0.7303
     0.7303   0.7399   0.7423   0.7444   0.7633   0.7670   0.7693   0.7721
     0.7795   0.7808   0.7852   0.7853   0.8046   0.8104   0.8144   0.8147
     0.8212   0.8256   0.8311   0.8324   0.8345   0.8363   0.8539   0.8586
     0.8647   0.9009   0.9046   0.9292   0.9431   0.9470   0.9589   0.9629
     0.9704   0.9709   0.9747   0.9761   0.9930   1.0043   1.0053   1.0068
     1.0120   1.0165   1.0182   1.0209   1.0243   1.0281   1.0288   1.0330
     1.0363   1.0383   1.0413   1.0416   1.0431   1.0527   1.0537   1.0540
     1.0578   1.0584   1.0622   1.0643   1.0737   1.0778   1.0814   1.0818
     1.0900   1.1083   1.1260   1.1268   1.1464   1.1478   1.1494   1.1608
     1.1624   1.1746   1.4507   1.8087   1.8094   2.1786   2.5369   2.8509
     2.8627   3.1757   3.1821   3.4223   3.4483   3.4882   3.6049   4.2701
     4.7497   4.7646   5.0060   5.1754   5.6260   5.6751   5.7680   5.8484
     5.9171   5.9761   6.0037   6.1272   6.4022

          k = 0.1038 0.1730-0.3115 ( 62372 PWs)   bands (ev):

   -80.7367 -80.7367 -80.7367 -80.7367 -80.7367 -80.7367 -80.7367 -80.7367
   -80.7367 -80.7367 -80.7367 -80.7367 -80.7367 -80.7367 -80.7367 -80.7366
   -46.5405 -46.5405 -46.5405 -46.5405 -46.5405 -46.5405 -46.5405 -46.5404
   -46.5404 -46.5404 -46.5403 -46.5403 -46.5403 -46.5403 -46.5402 -46.5402
   -46.5402 -46.5402 -46.5402 -46.5402 -46.5402 -46.5401 -46.5401 -46.5401
   -46.5400 -46.5400 -46.5400 -46.5400 -46.5400 -46.5399 -46.5399 -46.5399
   -46.5398 -46.5398 -46.5398 -46.5398 -46.5398 -46.5398 -46.5397 -46.5397
   -46.5397 -46.5397 -46.5397 -46.5397 -46.5397 -46.5396 -46.5396 -46.5396
     0.6032   0.6032   0.7082   0.7082   0.7255   0.7255   0.7264   0.7264
     0.7510   0.7510   0.7559   0.7559   0.7616   0.7616   0.7637   0.7637
     0.7851   0.7851   0.7898   0.7898   0.7922   0.7922   0.8045   0.8045
     0.8269   0.8269   0.8312   0.8312   0.8358   0.8358   0.8533   0.8533
     0.8701   0.8702   0.9134   0.9134   0.9449   0.9449   0.9780   0.9780
     0.9797   0.9797   0.9946   0.9946   1.0069   1.0069   1.0104   1.0104
     1.0130   1.0130   1.0171   1.0171   1.0196   1.0197   1.0219   1.0219
     1.0234   1.0234   1.0271   1.0271   1.0486   1.0486   1.0502   1.0502
     1.0663   1.0663   1.0708   1.0708   1.0794   1.0794   1.0814   1.0814
     1.0838   1.0838   1.1001   1.1001   1.1379   1.1379   1.1563   1.1563
     1.1644   1.1644   1.6071   1.6071   1.9749   1.9749   2.6859   2.6859
     3.0054   3.0054   3.3153   3.3153   3.5104   3.5104   3.9067   3.9067
     4.9561   4.9561   5.1803   5.1803   5.4613   5.4613   5.7145   5.7145
     5.8548   5.8548   6.4847   6.5569   6.5569

          k = 0.1038 0.2423 0.2423 ( 62363 PWs)   bands (ev):

   -80.7367 -80.7367 -80.7367 -80.7367 -80.7367 -80.7367 -80.7367 -80.7367
   -80.7367 -80.7367 -80.7367 -80.7367 -80.7367 -80.7367 -80.7367 -80.7366
   -46.5406 -46.5405 -46.5405 -46.5405 -46.5405 -46.5405 -46.5405 -46.5404
   -46.5404 -46.5404 -46.5404 -46.5404 -46.5403 -46.5403 -46.5402 -46.5402
   -46.5402 -46.5402 -46.5402 -46.5401 -46.5401 -46.5401 -46.5401 -46.5401
   -46.5400 -46.5400 -46.5400 -46.5400 -46.5399 -46.5399 -46.5399 -46.5399
   -46.5399 -46.5399 -46.5398 -46.5398 -46.5398 -46.5398 -46.5397 -46.5397
   -46.5397 -46.5397 -46.5397 -46.5397 -46.5397 -46.5396 -46.5396 -46.5396
     0.5722   0.6957   0.7003   0.7003   0.7298   0.7304   0.7304   0.7335
     0.7335   0.7389   0.7553   0.7566   0.7570   0.7722   0.7773   0.7793
     0.7793   0.7866   0.7920   0.7920   0.8087   0.8087   0.8139   0.8152
     0.8286   0.8286   0.8344   0.8375   0.8442   0.8442   0.8544   0.8669
     0.8721   0.9105   0.9140   0.9140   0.9341   0.9490   0.9490   0.9517
     0.9568   0.9663   0.9664   0.9681   0.9767   1.0075   1.0075   1.0142
     1.0154   1.0154   1.0159   1.0194   1.0275   1.0297   1.0359   1.0359
     1.0364   1.0381   1.0381   1.0412   1.0412   1.0424   1.0487   1.0549
     1.0550   1.0560   1.0560   1.0597   1.0668   1.0766   1.0766   1.0788
     1.0893   1.0894   1.1220   1.1246   1.1246   1.1601   1.1601   1.1652
     1.1755   1.2409   1.2409   1.5693   1.9381   2.3028   2.3028   2.6477
     2.9656   3.2727   3.2728   3.5043   3.5784   3.5784   3.6478   4.1737
     4.7785   5.1186   5.1186   5.2898   5.5000   5.5000   5.5561   5.8038
     5.9838   6.0531   6.0531   6.1189   6.8455

          k = 0.1038 0.2423-0.3115 ( 62360 PWs)   bands (ev):

   -80.7367 -80.7367 -80.7367 -80.7367 -80.7367 -80.7367 -80.7367 -80.7367
   -80.7367 -80.7367 -80.7367 -80.7367 -80.7367 -80.7367 -80.7367 -80.7366
   -46.5405 -46.5405 -46.5405 -46.5405 -46.5405 -46.5405 -46.5405 -46.5405
   -46.5404 -46.5404 -46.5404 -46.5403 -46.5403 -46.5403 -46.5402 -46.5402
   -46.5402 -46.5402 -46.5402 -46.5402 -46.5401 -46.5401 -46.5400 -46.5400
   -46.5400 -46.5400 -46.5400 -46.5400 -46.5400 -46.5399 -46.5399 -46.5399
   -46.5399 -46.5399 -46.5399 -46.5398 -46.5398 -46.5398 -46.5397 -46.5397
   -46.5397 -46.5397 -46.5397 -46.5397 -46.5396 -46.5396 -46.5396 -46.5396
     0.6507   0.6507   0.6992   0.6992   0.7320   0.7320   0.7343   0.7343
     0.7442   0.7442   0.7520   0.7520   0.7687   0.7687   0.7709   0.7709
     0.7894   0.7894   0.8081   0.8081   0.8084   0.8084   0.8154   0.8154
     0.8176   0.8176   0.8388   0.8389   0.8499   0.8499   0.8712   0.8712
     0.8870   0.8870   0.9069   0.9069   0.9425   0.9425   0.9450   0.9450
     0.9581   0.9581   0.9750   0.9750   0.9808   0.9808   0.9987   0.9987
     1.0252   1.0252   1.0257   1.0257   1.0259   1.0259   1.0284   1.0284
     1.0341   1.0341   1.0422   1.0422   1.0479   1.0479   1.0517   1.0517
     1.0603   1.0603   1.0654   1.0654   1.0704   1.0704   1.0782   1.0783
     1.1030   1.1030   1.1037   1.1037   1.1220   1.1220   1.1653   1.1653
     1.1704   1.1704   1.3780   1.3780   2.1028   2.1028   2.4600   2.4600
     3.1101   3.1101   3.3843   3.3843   3.6588   3.6588   3.9349   3.9349
     5.0643   5.0643   5.2390   5.2390   5.4397   5.4398   5.5062   5.5062
     6.0689   6.0689   6.4081   6.4081   6.4665

          k = 0.1038-0.3115-0.3115 ( 62388 PWs)   bands (ev):

   -80.7367 -80.7367 -80.7367 -80.7367 -80.7367 -80.7367 -80.7367 -80.7367
   -80.7367 -80.7367 -80.7367 -80.7367 -80.7367 -80.7367 -80.7367 -80.7366
   -46.5406 -46.5406 -46.5406 -46.5405 -46.5405 -46.5405 -46.5405 -46.5404
   -46.5404 -46.5404 -46.5404 -46.5404 -46.5403 -46.5403 -46.5403 -46.5403
   -46.5402 -46.5402 -46.5402 -46.5402 -46.5401 -46.5400 -46.5400 -46.5400
   -46.5400 -46.5400 -46.5400 -46.5400 -46.5400 -46.5399 -46.5399 -46.5399
   -46.5398 -46.5398 -46.5398 -46.5398 -46.5397 -46.5397 -46.5397 -46.5397
   -46.5397 -46.5397 -46.5397 -46.5397 -46.5396 -46.5396 -46.5396 -46.5396
     0.6827   0.6827   0.6828   0.6828   0.7394   0.7394   0.7394   0.7394
     0.7420   0.7420   0.7420   0.7420   0.7722   0.7722   0.7722   0.7722
     0.7954   0.7954   0.7954   0.7954   0.8221   0.8221   0.8221   0.8221
     0.8453   0.8453   0.8453   0.8453   0.8500   0.8500   0.8500   0.8500
     0.9092   0.9092   0.9092   0.9092   0.9465   0.9465   0.9465   0.9465
     0.9559   0.9559   0.9559   0.9559   0.9664   0.9664   0.9664   0.9664
     1.0290   1.0290   1.0290   1.0290   1.0340   1.0340   1.0340   1.0340
     1.0429   1.0429   1.0429   1.0429   1.0459   1.0459   1.0459   1.0459
     1.0574   1.0574   1.0574   1.0574   1.0742   1.0742   1.0742   1.0742
     1.1100   1.1100   1.1100   1.1100   1.1706   1.1706   1.1706   1.1706
     1.2066   1.2066   1.2066   1.2066   2.2649   2.2649   2.2649   2.2649
     3.2406   3.2406   3.2406   3.2406   3.8783   3.8783   3.8783   3.8783
     5.1412   5.1412   5.1412   5.1412   5.4603   5.4603   5.4603   5.4603
     6.3416   6.4508   6.4509   6.4510   6.4510

          k = 0.1730 0.1730 0.1730 ( 62425 PWs)   bands (ev):

   -80.7367 -80.7367 -80.7367 -80.7367 -80.7367 -80.7367 -80.7367 -80.7367
   -80.7367 -80.7367 -80.7367 -80.7367 -80.7367 -80.7367 -80.7367 -80.7366
   -46.5406 -46.5406 -46.5406 -46.5404 -46.5404 -46.5404 -46.5404 -46.5404
   -46.5404 -46.5404 -46.5404 -46.5404 -46.5403 -46.5403 -46.5403 -46.5403
   -46.5403 -46.5402 -46.5402 -46.5402 -46.5402 -46.5401 -46.5401 -46.5401
   -46.5400 -46.5400 -46.5400 -46.5400 -46.5400 -46.5399 -46.5399 -46.5399
   -46.5399 -46.5399 -46.5398 -46.5398 -46.5398 -46.5398 -46.5398 -46.5398
   -46.5398 -46.5398 -46.5397 -46.5397 -46.5397 -46.5396 -46.5396 -46.5396
     0.4552   0.7075   0.7075   0.7075   0.7262   0.7262   0.7262   0.7314
     0.7418   0.7418   0.7418   0.7480   0.7480   0.7638   0.7638   0.7638
     0.7957   0.7957   0.8121   0.8121   0.8121   0.8125   0.8125   0.8126
     0.8298   0.8298   0.8298   0.8322   0.8322   0.8485   0.8485   0.8485
     0.9102   0.9102   0.9102   0.9132   0.9132   0.9176   0.9176   0.9176
     0.9523   0.9718   0.9718   0.9718   0.9722   0.9993   0.9993   0.9993
     1.0123   1.0298   1.0298   1.0298   1.0352   1.0352   1.0352   1.0381
     1.0381   1.0381   1.0462   1.0462   1.0590   1.0590   1.0611   1.0611
     1.0611   1.0614   1.0614   1.0614   1.0695   1.0695   1.0695   1.0697
     1.0697   1.1331   1.1331   1.1331   1.1431   1.1431   1.1575   1.1575
     1.1575   1.4223   1.4223   1.4223   2.1418   2.1418   2.1418   2.8262
     3.1369   3.1369   3.1369   3.5220   3.5221   3.5221   3.7374   4.4395
     4.5983   4.5984   4.5984   5.5271   5.5271   5.9357   5.9718   5.9718
     5.9718   6.0314   6.0314   6.0314   6.0987

          k = 0.1730 0.1730 0.2423 ( 62359 PWs)   bands (ev):

   -80.7367 -80.7367 -80.7367 -80.7367 -80.7367 -80.7367 -80.7367 -80.7367
   -80.7367 -80.7367 -80.7367 -80.7367 -80.7367 -80.7367 -80.7367 -80.7366
   -46.5405 -46.5405 -46.5405 -46.5405 -46.5404 -46.5404 -46.5404 -46.5404
   -46.5404 -46.5404 -46.5404 -46.5403 -46.5403 -46.5403 -46.5403 -46.5402
   -46.5402 -46.5402 -46.5402 -46.5402 -46.5402 -46.5402 -46.5401 -46.5400
   -46.5400 -46.5399 -46.5399 -46.5399 -46.5399 -46.5399 -46.5399 -46.5399
   -46.5399 -46.5399 -46.5399 -46.5398 -46.5398 -46.5398 -46.5398 -46.5397
   -46.5397 -46.5397 -46.5397 -46.5397 -46.5396 -46.5396 -46.5396 -46.5396
     0.5509   0.7141   0.7173   0.7174   0.7302   0.7312   0.7354   0.7354
     0.7398   0.7479   0.7479   0.7605   0.7676   0.7726   0.7754   0.7754
     0.7829   0.7940   0.7940   0.7993   0.7993   0.8244   0.8254   0.8254
     0.8259   0.8267   0.8288   0.8288   0.8348   0.8357   0.8357   0.8434
     0.8734   0.8829   0.9044   0.9044   0.9163   0.9373   0.9418   0.9418
     0.9430   0.9430   0.9593   0.9660   0.9769   1.0115   1.0115   1.0120
     1.0175   1.0255   1.0289   1.0289   1.0300   1.0300   1.0330   1.0330
     1.0365   1.0365   1.0368   1.0420   1.0440   1.0542   1.0546   1.0556
     1.0598   1.0610   1.0630   1.0635   1.0668   1.0668   1.0674   1.0674
     1.0834   1.1195   1.1310   1.1395   1.1395   1.1442   1.1497   1.1552
     1.1552   1.2264   1.5428   1.5428   1.9020   1.9020   2.2667   2.6113
     3.2463   3.2463   3.4967   3.4967   3.5516   3.5784   3.7092   4.2538
     4.7625   4.8480   4.8480   5.2306   5.6859   5.6859   5.8488   5.8528
     5.8582   6.0334   6.0627   6.2494   6.4356

          k = 0.1730 0.1730-0.3115 ( 62358 PWs)   bands (ev):

   -80.7367 -80.7367 -80.7367 -80.7367 -80.7367 -80.7367 -80.7367 -80.7367
   -80.7367 -80.7367 -80.7367 -80.7367 -80.7367 -80.7367 -80.7367 -80.7366
   -46.5405 -46.5405 -46.5405 -46.5405 -46.5405 -46.5404 -46.5404 -46.5404
   -46.5404 -46.5404 -46.5404 -46.5404 -46.5403 -46.5403 -46.5402 -46.5402
   -46.5402 -46.5402 -46.5402 -46.5402 -46.5402 -46.5402 -46.5400 -46.5400
   -46.5400 -46.5400 -46.5400 -46.5400 -46.5399 -46.5399 -46.5399 -46.5399
   -46.5398 -46.5398 -46.5398 -46.5398 -46.5398 -46.5398 -46.5397 -46.5397
   -46.5397 -46.5397 -46.5397 -46.5397 -46.5396 -46.5396 -46.5396 -46.5396
     0.6496   0.6496   0.7270   0.7270   0.7270   0.7270   0.7313   0.7313
     0.7721   0.7721   0.7733   0.7733   0.7733   0.7733   0.7738   0.7738
     0.7762   0.7762   0.7970   0.7970   0.7970   0.7970   0.8004   0.8004
     0.8362   0.8362   0.8385   0.8385   0.8392   0.8392   0.8392   0.8392
     0.8522   0.8522   0.9157   0.9157   0.9157   0.9157   0.9429   0.9429
     0.9551   0.9551   0.9854   0.9854   0.9854   0.9854   0.9862   0.9862
     1.0235   1.0236   1.0236   1.0236   1.0251   1.0251   1.0330   1.0330
     1.0330   1.0330   1.0484   1.0484   1.0489   1.0489   1.0538   1.0538
     1.0605   1.0605   1.0686   1.0686   1.0686   1.0686   1.0920   1.0920
     1.1031   1.1031   1.1046   1.1046   1.1483   1.1483   1.1483   1.1483
     1.1500   1.1500   1.7023   1.7023   1.7023   1.7023   2.4240   2.4240
     3.3764   3.3764   3.3765   3.3765   3.6458   3.6458   3.9419   3.9419
     4.9746   4.9746   5.2498   5.2498   5.2498   5.2498   5.7814   5.7814
     6.0801   6.0801   6.2879   6.2879   6.4461

          k = 0.1730 0.2423 0.2423 ( 62346 PWs)   bands (ev):

   -80.7367 -80.7367 -80.7367 -80.7367 -80.7367 -80.7367 -80.7367 -80.7367
   -80.7367 -80.7367 -80.7367 -80.7367 -80.7367 -80.7367 -80.7367 -80.7366
   -46.5405 -46.5405 -46.5405 -46.5405 -46.5405 -46.5405 -46.5404 -46.5404
   -46.5404 -46.5404 -46.5403 -46.5403 -46.5403 -46.5403 -46.5403 -46.5403
   -46.5402 -46.5402 -46.5402 -46.5402 -46.5402 -46.5401 -46.5401 -46.5400
   -46.5400 -46.5399 -46.5399 -46.5399 -46.5399 -46.5399 -46.5399 -46.5399
   -46.5399 -46.5398 -46.5398 -46.5398 -46.5398 -46.5398 -46.5398 -46.5398
   -46.5397 -46.5397 -46.5397 -46.5397 -46.5397 -46.5396 -46.5396 -46.5396
     0.6303   0.7250   0.7263   0.7263   0.7352   0.7413   0.7445   0.7445
     0.7491   0.7491   0.7682   0.7754   0.7754   0.7787   0.7832   0.7832
     0.7925   0.7957   0.7979   0.7979   0.8024   0.8149   0.8177   0.8177
     0.8288   0.8306   0.8385   0.8385   0.8387   0.8387   0.8394   0.8420
     0.8832   0.8897   0.8897   0.9039   0.9039   0.9065   0.9099   0.9260
     0.9297   0.9382   0.9382   0.9407   0.9480   0.9899   0.9900   0.9973
     1.0206   1.0213   1.0213   1.0349   1.0375   1.0376   1.0386   1.0386
     1.0450   1.0450   1.0467   1.0506   1.0508   1.0587   1.0595   1.0603
     1.0603   1.0605   1.0605   1.0631   1.0631   1.0660   1.0681   1.0839
     1.0893   1.1097   1.1311   1.1311   1.1316   1.1474   1.1474   1.1480
     1.1566   1.3309   1.3309   1.6672   1.6704   2.0313   2.0313   2.3869
     3.3456   3.5640   3.5640   3.6330   3.6330   3.6851   3.7036   4.1710
     4.8867   4.9897   4.9897   5.2979   5.5382   5.5382   5.6017   5.6587
     5.7912   6.2241   6.5276   6.5805   6.5821

          k = 0.1730 0.2423-0.3115 ( 62366 PWs)   bands (ev):

   -80.7367 -80.7367 -80.7367 -80.7367 -80.7367 -80.7367 -80.7367 -80.7367
   -80.7367 -80.7367 -80.7367 -80.7367 -80.7367 -80.7367 -80.7367 -80.7366
   -46.5405 -46.5405 -46.5405 -46.5405 -46.5405 -46.5405 -46.5404 -46.5404
   -46.5404 -46.5404 -46.5403 -46.5403 -46.5403 -46.5403 -46.5403 -46.5403
   -46.5403 -46.5402 -46.5402 -46.5402 -46.5401 -46.5401 -46.5400 -46.5400
   -46.5399 -46.5399 -46.5399 -46.5399 -46.5399 -46.5399 -46.5399 -46.5399
   -46.5398 -46.5398 -46.5398 -46.5398 -46.5398 -46.5398 -46.5398 -46.5397
   -46.5397 -46.5397 -46.5397 -46.5397 -46.5397 -46.5397 -46.5396 -46.5396
     0.6971   0.6971   0.7293   0.7293   0.7429   0.7429   0.7438   0.7438
     0.7635   0.7635   0.7719   0.7719   0.7871   0.7871   0.7876   0.7876
     0.7928   0.7928   0.7971   0.7971   0.8092   0.8092   0.8117   0.8117
     0.8194   0.8194   0.8405   0.8405   0.8515   0.8515   0.8609   0.8609
     0.8619   0.8619   0.8834   0.8834   0.9077   0.9077   0.9164   0.9164
     0.9318   0.9318   0.9516   0.9516   0.9522   0.9522   0.9582   0.9582
     1.0299   1.0299   1.0302   1.0302   1.0311   1.0311   1.0448   1.0448
     1.0483   1.0483   1.0493   1.0493   1.0547   1.0547   1.0582   1.0582
     1.0596   1.0596   1.0610   1.0610   1.0663   1.0663   1.0863   1.0863
     1.1071   1.1071   1.1296   1.1296   1.1499   1.1499   1.1532   1.1532
     1.1806   1.1806   1.4769   1.4769   1.8328   1.8328   2.1933   2.1933
     3.4616   3.4616   3.6403   3.6403   3.7022   3.7022   3.9622   3.9622
     5.1558   5.1558   5.1617   5.1617   5.3284   5.3284   5.5153   5.5153
     6.1058   6.1058   6.3826   6.4595   6.4596

          k = 0.1730-0.3115-0.3115 ( 62384 PWs)   bands (ev):

   -80.7367 -80.7367 -80.7367 -80.7367 -80.7367 -80.7367 -80.7367 -80.7367
   -80.7367 -80.7367 -80.7367 -80.7367 -80.7367 -80.7367 -80.7367 -80.7366
   -46.5406 -46.5406 -46.5406 -46.5405 -46.5405 -46.5405 -46.5405 -46.5405
   -46.5403 -46.5403 -46.5403 -46.5403 -46.5403 -46.5403 -46.5403 -46.5403
   -46.5403 -46.5403 -46.5403 -46.5403 -46.5401 -46.5401 -46.5401 -46.5401
   -46.5399 -46.5399 -46.5399 -46.5399 -46.5399 -46.5399 -46.5399 -46.5399
   -46.5398 -46.5398 -46.5398 -46.5398 -46.5398 -46.5398 -46.5398 -46.5398
   -46.5397 -46.5397 -46.5397 -46.5397 -46.5397 -46.5396 -46.5396 -46.5396
     0.7240   0.7240   0.7240   0.7240   0.7548   0.7548   0.7548   0.7548
     0.7582   0.7582   0.7582   0.7582   0.7915   0.7915   0.7915   0.7915
     0.7963   0.7963   0.7963   0.7963   0.8133   0.8133   0.8133   0.8133
     0.8480   0.8480   0.8480   0.8480   0.8547   0.8547   0.8547   0.8547
     0.8769   0.8769   0.8769   0.8769   0.9048   0.9048   0.9048   0.9048
     0.9190   0.9190   0.9190   0.9190   0.9406   0.9406   0.9406   0.9406
     1.0338   1.0338   1.0338   1.0338   1.0379   1.0379   1.0379   1.0379
     1.0551   1.0551   1.0551   1.0551   1.0577   1.0577   1.0577   1.0577
     1.0637   1.0637   1.0637   1.0637   1.0690   1.0690   1.0690   1.0690
     1.1143   1.1143   1.1143   1.1143   1.1530   1.1530   1.1530   1.1530
     1.3034   1.3034   1.3034   1.3034   1.9963   1.9963   1.9963   1.9963
     3.5588   3.5588   3.5589   3.5589   3.9057   3.9057   3.9057   3.9057
     5.2460   5.2460   5.2460   5.2460   5.3344   5.3344   5.3344   5.3344
     6.1290   6.1290   6.1290   6.1290   6.5046

          k = 0.2423 0.2423 0.2423 ( 62404 PWs)   bands (ev):

   -80.7367 -80.7367 -80.7367 -80.7367 -80.7367 -80.7367 -80.7367 -80.7367
   -80.7367 -80.7367 -80.7367 -80.7367 -80.7367 -80.7367 -80.7367 -80.7366
   -46.5405 -46.5405 -46.5405 -46.5405 -46.5405 -46.5405 -46.5404 -46.5404
   -46.5404 -46.5404 -46.5404 -46.5403 -46.5403 -46.5403 -46.5403 -46.5403
   -46.5403 -46.5402 -46.5402 -46.5402 -46.5402 -46.5402 -46.5402 -46.5400
   -46.5399 -46.5399 -46.5399 -46.5399 -46.5399 -46.5399 -46.5399 -46.5399
   -46.5399 -46.5399 -46.5398 -46.5398 -46.5398 -46.5397 -46.5397 -46.5397
   -46.5397 -46.5397 -46.5397 -46.5397 -46.5397 -46.5397 -46.5397 -46.5397
     0.7022   0.7460   0.7484   0.7484   0.7484   0.7606   0.7606   0.7606
     0.7707   0.7707   0.7707   0.7813   0.7813   0.7813   0.7927   0.7927
     0.8009   0.8009   0.8166   0.8166   0.8212   0.8212   0.8212   0.8218
     0.8218   0.8218   0.8236   0.8236   0.8236   0.8441   0.8441   0.8441
     0.8775   0.8775   0.8775   0.8828   0.8828   0.8828   0.8957   0.8957
     0.9040   0.9080   0.9080   0.9080   0.9263   0.9540   0.9540   0.9540
     1.0287   1.0287   1.0287   1.0402   1.0402   1.0402   1.0447   1.0447
     1.0529   1.0529   1.0563   1.0563   1.0563   1.0571   1.0571   1.0571
     1.0598   1.0598   1.0598   1.0712   1.0712   1.0712   1.0836   1.0836
     1.1248   1.1248   1.1324   1.1324   1.1324   1.1356   1.1356   1.1356
     1.1678   1.4518   1.4518   1.4518   1.7988   1.7988   1.7988   2.1578
     3.7014   3.7015   3.7015   3.7338   3.7339   3.7339   3.7865   4.1245
     5.0454   5.0454   5.0454   5.5010   5.5010   5.5020   5.5020   5.5020
     5.8099   5.8099   6.2473   6.2473   6.2473

          k = 0.2423 0.2423-0.3115 ( 62352 PWs)   bands (ev):

   -80.7367 -80.7367 -80.7367 -80.7367 -80.7367 -80.7367 -80.7367 -80.7367
   -80.7367 -80.7367 -80.7367 -80.7367 -80.7367 -80.7367 -80.7367 -80.7366
   -46.5405 -46.5405 -46.5405 -46.5405 -46.5405 -46.5404 -46.5404 -46.5404
   -46.5404 -46.5404 -46.5403 -46.5403 -46.5403 -46.5403 -46.5403 -46.5403
   -46.5403 -46.5403 -46.5402 -46.5402 -46.5402 -46.5402 -46.5401 -46.5401
   -46.5399 -46.5399 -46.5399 -46.5399 -46.5399 -46.5399 -46.5399 -46.5399
   -46.5399 -46.5398 -46.5398 -46.5398 -46.5398 -46.5398 -46.5398 -46.5398
   -46.5397 -46.5397 -46.5397 -46.5397 -46.5397 -46.5397 -46.5397 -46.5397
     0.7494   0.7494   0.7599   0.7599   0.7602   0.7602   0.7602   0.7602
     0.7858   0.7858   0.7894   0.7894   0.7962   0.7962   0.7962   0.7962
     0.8014   0.8014   0.8014   0.8014   0.8108   0.8108   0.8195   0.8195
     0.8267   0.8267   0.8284   0.8285   0.8401   0.8401   0.8401   0.8401
     0.8657   0.8657   0.8729   0.8729   0.8838   0.8838   0.8838   0.8838
     0.9037   0.9037   0.9113   0.9113   0.9113   0.9113   0.9252   0.9252
     1.0361   1.0361   1.0361   1.0361   1.0371   1.0371   1.0465   1.0465
     1.0522   1.0522   1.0552   1.0552   1.0576   1.0576   1.0576   1.0576
     1.0680   1.0680   1.0680   1.0680   1.0722   1.0722   1.0982   1.0982
     1.1067   1.1067   1.1316   1.1316   1.1316   1.1316   1.1335   1.1335
     1.2860   1.2860   1.6063   1.6063   1.6063   1.6063   1.9620   1.9620
     3.7559   3.7559   3.7559   3.7559   3.7789   3.7789   3.9765   3.9765
     5.2514   5.2514   5.2790   5.2790   5.2790   5.2790   5.5578   5.5578
     5.8703   5.8703   6.0071   6.0071   6.1973

          k = 0.2423-0.3115-0.3115 ( 62352 PWs)   bands (ev):

   -80.7367 -80.7367 -80.7367 -80.7367 -80.7367 -80.7367 -80.7367 -80.7367
   -80.7367 -80.7367 -80.7367 -80.7367 -80.7367 -80.7367 -80.7367 -80.7366
   -46.5405 -46.5405 -46.5405 -46.5405 -46.5404 -46.5404 -46.5404 -46.5404
   -46.5404 -46.5404 -46.5404 -46.5404 -46.5404 -46.5404 -46.5403 -46.5403
   -46.5403 -46.5402 -46.5402 -46.5402 -46.5401 -46.5401 -46.5401 -46.5401
   -46.5399 -46.5399 -46.5399 -46.5399 -46.5398 -46.5398 -46.5398 -46.5398
   -46.5398 -46.5398 -46.5398 -46.5398 -46.5398 -46.5398 -46.5398 -46.5398
   -46.5397 -46.5397 -46.5397 -46.5397 -46.5397 -46.5397 -46.5397 -46.5396
     0.7753   0.7753   0.7753   0.7753   0.7776   0.7776   0.7776   0.7776
     0.7806   0.7806   0.7806   0.7806   0.7982   0.7982   0.7982   0.7982
     0.8063   0.8063   0.8063   0.8063   0.8161   0.8161   0.8161   0.8161
     0.8456   0.8456   0.8456   0.8456   0.8513   0.8513   0.8513   0.8513
     0.8558   0.8558   0.8558   0.8558   0.8613   0.8613   0.8613   0.8613
     0.8869   0.8869   0.8869   0.8869   0.8994   0.8994   0.8994   0.8994
     1.0401   1.0401   1.0401   1.0401   1.0426   1.0426   1.0426   1.0426
     1.0517   1.0517   1.0517   1.0517   1.0552   1.0552   1.0552   1.0552
     1.0788   1.0788   1.0788   1.0788   1.0890   1.0890   1.0890   1.0890
     1.1123   1.1123   1.1123   1.1123   1.1297   1.1297   1.1297   1.1297
     1.4252   1.4252   1.4252   1.4252   1.7670   1.7670   1.7670   1.7670
     3.7974   3.7974   3.7974   3.7974   3.9285   3.9285   3.9285   3.9285
     5.3674   5.3674   5.3674   5.3674   5.4001   5.4001   5.4001   5.4001
     5.8447   5.8447   5.8447   5.8447   6.0016

          k =-0.3115-0.3115-0.3115 ( 62368 PWs)   bands (ev):

   -80.7367 -80.7367 -80.7367 -80.7367 -80.7367 -80.7367 -80.7367 -80.7367
   -80.7367 -80.7367 -80.7367 -80.7367 -80.7367 -80.7367 -80.7367 -80.7366
   -46.5404 -46.5404 -46.5404 -46.5404 -46.5404 -46.5404 -46.5404 -46.5404
   -46.5404 -46.5404 -46.5404 -46.5404 -46.5404 -46.5404 -46.5404 -46.5404
   -46.5402 -46.5402 -46.5402 -46.5402 -46.5402 -46.5402 -46.5402 -46.5402
   -46.5399 -46.5399 -46.5399 -46.5399 -46.5399 -46.5399 -46.5399 -46.5398
   -46.5398 -46.5398 -46.5398 -46.5398 -46.5398 -46.5397 -46.5397 -46.5397
   -46.5397 -46.5397 -46.5397 -46.5397 -46.5397 -46.5397 -46.5397 -46.5397
     0.8014   0.8014   0.8014   0.8014   0.8014   0.8014   0.8014   0.8014
     0.8014   0.8014   0.8014   0.8014   0.8014   0.8014   0.8014   0.8014
     0.8075   0.8075   0.8075   0.8075   0.8075   0.8075   0.8075   0.8075
     0.8539   0.8539   0.8539   0.8539   0.8539   0.8539   0.8539   0.8539
     0.8543   0.8543   0.8543   0.8543   0.8543   0.8543   0.8543   0.8543
     0.8543   0.8543   0.8543   0.8543   0.8543   0.8543   0.8543   0.8543
     1.0474   1.0474   1.0474   1.0474   1.0474   1.0474   1.0474   1.0474
     1.0474   1.0474   1.0474   1.0474   1.0474   1.0474   1.0474   1.0474
     1.1038   1.1038   1.1038   1.1038   1.1038   1.1038   1.1038   1.1038
     1.1038   1.1038   1.1038   1.1038   1.1038   1.1038   1.1038   1.1038
     1.5777   1.5777   1.5777   1.5777   1.5777   1.5777   1.5777   1.5777
     3.9114   3.9114   3.9115   3.9115   3.9115   3.9115   3.9115   3.9115
     5.6007   5.6007   5.6007   5.6007   5.6007   5.6007   5.6007   5.6007
     5.6007   5.6007   5.6007   5.6007   5.6007

     the Fermi energy is     1.4368 ev

!    total energy              =   -8188.48139508 Ry

     total all-electron energy =   -161468.908249 Ry
     estimated scf accuracy    <       0.00000007 Ry
     smearing contrib. (-TS)   =       0.40475185 Ry
     internal energy E=F+TS    =   -8188.88614693 Ry

     The total energy is F=E-TS. E is the sum of the following terms:
     one-electron contribution =   -3193.50364061 Ry
     hartree contribution      =    1635.77565104 Ry
     xc contribution           =    -491.27863059 Ry
     ewald contribution        =   -2056.55246498 Ry
     one-center paw contrib.   =   -4083.32706179 Ry

     convergence has been achieved in  27 iterations

     Forces acting on atoms (cartesian axes, Ry/au):

     atom    1 type  1   force =     0.00000000    0.00000000    0.00000000
     atom    2 type  1   force =     0.00006896    0.00006896    0.00006896
     atom    3 type  1   force =     0.00000000    0.00000000    0.00000000
     atom    4 type  1   force =     0.00006896    0.00006896   -0.00006896
     atom    5 type  1   force =     0.00000000    0.00000000    0.00000000
     atom    6 type  1   force =     0.00006896   -0.00006896    0.00006896
     atom    7 type  1   force =     0.00000000    0.00000000    0.00000000
     atom    8 type  1   force =     0.00006896   -0.00006896   -0.00006896
     atom    9 type  1   force =     0.00000000    0.00000000    0.00000000
     atom   10 type  1   force =    -0.00006896    0.00006896    0.00006896
     atom   11 type  1   force =     0.00000000    0.00000000    0.00000000
     atom   12 type  1   force =    -0.00006896    0.00006896   -0.00006896
     atom   13 type  1   force =     0.00000000    0.00000000    0.00000000
     atom   14 type  1   force =    -0.00006896   -0.00006896    0.00006896
     atom   15 type  1   force =     0.00000000    0.00000000    0.00000000
     atom   16 type  1   force =    -0.00006896   -0.00006896   -0.00006896

     Total force =     0.000338     Total SCF correction =     0.000230
     SCF correction compared to forces is large: reduce conv_thr to get better values


     Computing stress (Cartesian axis) and pressure

          total   stress  (Ry/bohr**3)                   (kbar)     P=      -48.53
  -0.00032993   0.00000000   0.00000000          -48.53        0.00        0.00
   0.00000000  -0.00032993   0.00000000            0.00      -48.53        0.00
   0.00000000   0.00000000  -0.00032993            0.00        0.00      -48.53


     Writing output data file /scratch/eIbRXpscAWvHfLIs.save/
 
     init_run     :      7.58s CPU      7.88s WALL (       1 calls)
     electrons    :    641.97s CPU    650.76s WALL (       1 calls)
     forces       :      2.47s CPU      2.52s WALL (       1 calls)
     stress       :     18.14s CPU     18.33s WALL (       1 calls)

     Called by init_run:
     wfcinit      :      6.33s CPU      6.51s WALL (       1 calls)
     potinit      :      0.14s CPU      0.16s WALL (       1 calls)
     hinit0       :      0.47s CPU      0.48s WALL (       1 calls)

     Called by electrons:
     c_bands      :    558.57s CPU    565.24s WALL (      27 calls)
     sum_band     :     79.39s CPU     80.91s WALL (      27 calls)
     v_of_rho     :      0.72s CPU      0.76s WALL (      28 calls)
     newd         :      1.15s CPU      1.58s WALL (      28 calls)
     PAW_pot      :      1.71s CPU      1.83s WALL (      28 calls)
     mix_rho      :      0.23s CPU      0.24s WALL (      27 calls)

     Called by c_bands:
     init_us_2    :      4.86s CPU      4.93s WALL (    1995 calls)
     cegterg      :    544.10s CPU    550.36s WALL (     945 calls)

     Called by *egterg:
     cdiaghg      :     41.71s CPU     42.04s WALL (    3050 calls)
     h_psi        :    326.42s CPU    330.98s WALL (    3085 calls)
     s_psi        :     18.26s CPU     18.39s WALL (    3085 calls)
     g_psi        :      0.98s CPU      1.00s WALL (    2105 calls)

     Called by h_psi:
     h_psi:calbec :     26.36s CPU     26.60s WALL (    3085 calls)
     vloc_psi     :    280.24s CPU    284.35s WALL (    3085 calls)
     add_vuspsi   :     17.21s CPU     17.39s WALL (    3085 calls)

     General routines
     calbec       :     43.44s CPU     43.81s WALL (    4205 calls)
     fft          :      0.80s CPU      0.83s WALL (     387 calls)
     ffts         :      0.11s CPU      0.11s WALL (      55 calls)
     fftw         :    329.87s CPU    334.47s WALL (  934699 calls)
     interpolate  :      0.17s CPU      0.17s WALL (      28 calls)
 
     Parallel routines
     fft_scatt_xy :     24.19s CPU     24.50s WALL (  935141 calls)
     fft_scatt_yz :    249.19s CPU    252.85s WALL (  935141 calls)
 
     PWSCF        :  11m17.95s CPU  11m29.53s WALL

 
   This run was terminated on:   0:18:25  30Nov2021            

=------------------------------------------------------------------------------=
   JOB DONE.
=------------------------------------------------------------------------------=
