
     Program PWSCF v.6.7MaX starts on 23May2022 at  8:12:22 

     This program is part of the open-source Quantum ESPRESSO suite
     for quantum simulation of materials; please cite
         "P. Giannozzi et al., J. Phys.:Condens. Matter 21 395502 (2009);
         "P. Giannozzi et al., J. Phys.:Condens. Matter 29 465901 (2017);
          URL http://www.quantum-espresso.org", 
     in publications or presentations arising from this work. More details at
     http://www.quantum-espresso.org/quote

     Parallel version (MPI & OpenMP), running on      72 processor cores
     Number of MPI processes:                72
     Threads/MPI process:                     1

     MPI processes distributed on     1 nodes
     R & G space division:  proc/nbgrp/npool/nimage =      72
     Reading input from feru_02.in
Warning: card &CELL ignored
Warning: card CELL_DYNAMICS = 'BFGS', ignored
Warning: card CELL_FACTOR = 2.0, ignored
Warning: card PRESS = 0.0, ignored
Warning: card / ignored

     Current dimensions of program PWSCF are:
     Max number of different atomic species (ntypx) = 10
     Max number of k-points (npk) =  40000
     Max angular momentum in pseudopotentials (lmaxx) =  3
     file Fe.pbe-spn-kjpaw_psl.1.0.0.UPF: wavefunction(s)  3P 3D renormalized
     file Fe.pbe-spn-kjpaw_psl.1.0.0.UPF: wavefunction(s)  3P 3D renormalized
     file Ru.pbe-spn-kjpaw_psl.1.0.0.UPF: wavefunction(s)  4D renormalized

     Subspace diagonalization in iterative solution of the eigenvalue problem:
     one sub-group per band group will be used
     ELPA distributed-memory algorithm (size of sub-group:  8*  8 procs)

 
     Parallelization info
     --------------------
     sticks:   dense  smooth     PW     G-vecs:    dense   smooth      PW
     Min          84      55     15                 4857     2605     375
     Max          86      56     16                 4863     2614     380
     Sum        6115    4025   1119               349955   187945   27183
 


     bravais-lattice index     =            0
     lattice parameter (alat)  =      13.0175  a.u.
     unit-cell volume          =    2324.7211 (a.u.)^3
     number of atoms/cell      =           32
     number of atomic types    =            3
     number of electrons       =       512.00
     number of Kohn-Sham states=          307
     kinetic-energy cutoff     =      71.0000  Ry
     charge density cutoff     =     430.0000  Ry
     scf convergence threshold =      1.0E-08
     mixing beta               =       0.3000
     number of iterations used =           10  local-TF  mixing
     Exchange-correlation= SLA  PW   PBX  PBC
                           (   1   4   3   4   0   0   0)

     celldm(1)=  13.017474  celldm(2)=   0.000000  celldm(3)=   0.000000
     celldm(4)=   0.000000  celldm(5)=   0.000000  celldm(6)=   0.000000

     crystal axes: (cart. coord. in units of alat)
               a(1) = (   1.000000   0.000000   0.000000 )  
               a(2) = (   0.000000   1.053879   0.000000 )  
               a(3) = (   0.000000   0.000000   1.000000 )  

     reciprocal axes: (cart. coord. in units 2 pi/alat)
               b(1) = (  1.000000  0.000000  0.000000 )  
               b(2) = (  0.000000  0.948876  0.000000 )  
               b(3) = (  0.000000  0.000000  1.000000 )  


     PseudoPot. # 1 for Fe read from file:
     /rds/homes/b/bxp912/pp/Fe.pbe-spn-kjpaw_psl.1.0.0.UPF
     MD5 check sum: 42f43b795421b414b0dc916aa790dbcb
     Pseudo is Projector augmented-wave + core cor, Zval = 16.0
     Generated using &quot;atomic&quot; code by A. Dal Corso  v.6.3
     Shape of augmentation charge: PSQ
     Using radial grid of 1191 points,  6 beta functions with: 
                l(1) =   0
                l(2) =   0
                l(3) =   1
                l(4) =   1
                l(5) =   2
                l(6) =   2
     Q(r) pseudized with 0 coefficients 


     PseudoPot. # 2 for Fe read from file:
     /rds/homes/b/bxp912/pp/Fe.pbe-spn-kjpaw_psl.1.0.0.UPF
     MD5 check sum: 42f43b795421b414b0dc916aa790dbcb
     Pseudo is Projector augmented-wave + core cor, Zval = 16.0
     Generated using &quot;atomic&quot; code by A. Dal Corso  v.6.3
     Shape of augmentation charge: PSQ
     Using radial grid of 1191 points,  6 beta functions with: 
                l(1) =   0
                l(2) =   0
                l(3) =   1
                l(4) =   1
                l(5) =   2
                l(6) =   2
     Q(r) pseudized with 0 coefficients 


     PseudoPot. # 3 for Ru read from file:
     /rds/homes/b/bxp912/pp/Ru.pbe-spn-kjpaw_psl.1.0.0.UPF
     MD5 check sum: 0ae1f594dea09af7be8575c3a481d1ae
     Pseudo is Projector augmented-wave + core cor, Zval = 16.0
     Generated using "atomic" code by A. Dal Corso  v.5.1
     Shape of augmentation charge: PSQ
     Using radial grid of 1233 points,  6 beta functions with: 
                l(1) =   0
                l(2) =   0
                l(3) =   1
                l(4) =   1
                l(5) =   2
                l(6) =   2
     Q(r) pseudized with 0 coefficients 


     atomic species   valence    mass     pseudopotential
        Fe1           16.00    55.84500     Fe( 1.00)
        Fe2           16.00    55.84500     Fe( 1.00)
        Ru            16.00   101.07000     Ru( 1.00)

     Starting magnetic structure 
     atomic species   magnetization
        Fe1          0.100
        Fe2         -0.100
        Ru           0.010

     No symmetry found



   Cartesian axes

     site n.     atom                  positions (alat units)
         1           Ru  tau(   1) = (  -0.0062192  -0.0030163   0.0061349  )
         2           Fe2 tau(   2) = (   0.2552108   0.2689456   0.0000000  )
         3           Fe1 tau(   3) = (   0.2570288   0.0000000   0.2570288  )
         4           Fe2 tau(   4) = (   0.0000000   0.2689456   0.2552108  )
         5           Fe1 tau(   5) = (   0.0000000   0.0000000   0.5000000  )
         6           Fe2 tau(   6) = (   0.2504870   0.2644622   0.5000000  )
         7           Fe1 tau(   7) = (   0.2570288   0.0000000   0.7429712  )
         8           Fe2 tau(   8) = (   0.0000000   0.2689456   0.7447892  )
         9           Fe1 tau(   9) = (   0.0000000   0.5269394   0.0000000  )
        10           Fe2 tau(  10) = (   0.2552108   0.7849332   0.0000000  )
        11           Fe1 tau(  11) = (   0.2508487   0.5269394   0.2508487  )
        12           Fe2 tau(  12) = (   0.0000000   0.7849332   0.2552108  )
        13           Fe1 tau(  13) = (   0.0000000   0.5269394   0.5000000  )
        14           Fe2 tau(  14) = (   0.2504870   0.7894166   0.5000000  )
        15           Fe1 tau(  15) = (   0.2508487   0.5269394   0.7491513  )
        16           Fe2 tau(  16) = (   0.0000000   0.7849332   0.7447892  )
        17           Fe1 tau(  17) = (   0.5000000   0.0000000   0.0000000  )
        18           Fe2 tau(  18) = (   0.7447892   0.2689456   0.0000000  )
        19           Fe1 tau(  19) = (   0.7429712   0.0000000   0.2570288  )
        20           Fe2 tau(  20) = (   0.5000000   0.2644622   0.2504870  )
        21           Fe1 tau(  21) = (   0.5000000   0.0000000   0.5000000  )
        22           Fe2 tau(  22) = (   0.7495130   0.2644622   0.5000000  )
        23           Fe1 tau(  23) = (   0.7429712   0.0000000   0.7429712  )
        24           Fe2 tau(  24) = (   0.5000000   0.2644622   0.7495130  )
        25           Fe1 tau(  25) = (   0.5000000   0.5269394   0.0000000  )
        26           Fe2 tau(  26) = (   0.7447892   0.7849332   0.0000000  )
        27           Fe1 tau(  27) = (   0.7491513   0.5269394   0.2508487  )
        28           Fe2 tau(  28) = (   0.5000000   0.7894166   0.2504870  )
        29           Fe1 tau(  29) = (   0.5000000   0.5269394   0.5000000  )
        30           Fe2 tau(  30) = (   0.7495130   0.7894166   0.5000000  )
        31           Fe1 tau(  31) = (   0.7491513   0.5269394   0.7491513  )
        32           Fe2 tau(  32) = (   0.5000000   0.7894166   0.7495130  )

     number of k points=   365  Marzari-Vanderbilt smearing, width (Ry)=  0.0400

     Number of k-points >= 100: set verbosity='high' to print them.

     Dense  grid:   349955 G-vectors     FFT dimensions: (  90,  96,  90)

     Smooth grid:   187945 G-vectors     FFT dimensions: (  72,  75,  72)

     Estimated max dynamical RAM per process >       1.12 GB

     Estimated total dynamical RAM >      80.71 GB

     Check: negative core charge=   -0.000006
     Generating pointlists ...
     new r_m :   0.1417 (alat units)  1.8451 (a.u.) for type    1
     new r_m :   0.1445 (alat units)  1.8808 (a.u.) for type    2
     new r_m :   0.1463 (alat units)  1.9050 (a.u.) for type    3

     Initial potential from superposition of free atoms

     starting charge  511.98580, renormalised to  512.00000
     Starting wfcs are  320 randomized atomic wfcs
     Checking if some PAW data can be deallocated... 

     total cpu time spent up to now is      171.9 secs

     Self-consistent Calculation

     iteration #  1     ecut=    71.00 Ry     beta= 0.30
     Davidson diagonalization with overlap
     ethr =  1.00E-02,  avg # of iterations =  4.8

     negative rho (up, down):  1.702E-02 5.633E-02

     total cpu time spent up to now is      833.0 secs

     total energy              =  -10638.25442382 Ry
     estimated scf accuracy    <      11.43196095 Ry

     total magnetization       =    -1.22 Bohr mag/cell
     absolute magnetization    =    51.14 Bohr mag/cell

     iteration #  2     ecut=    71.00 Ry     beta= 0.30
     Davidson diagonalization with overlap
     ethr =  2.23E-03,  avg # of iterations =  2.9

     negative rho (up, down):  2.720E-02 6.337E-02

     total cpu time spent up to now is     1377.6 secs

     total energy              =  -10637.71899147 Ry
     estimated scf accuracy    <       3.36084481 Ry

     total magnetization       =    -0.63 Bohr mag/cell
     absolute magnetization    =    47.60 Bohr mag/cell

     iteration #  3     ecut=    71.00 Ry     beta= 0.30
     Davidson diagonalization with overlap
     ethr =  6.56E-04,  avg # of iterations =  2.7

     negative rho (up, down):  2.071E-02 4.574E-02

     total cpu time spent up to now is     1964.9 secs

     total energy              =  -10638.11136703 Ry
     estimated scf accuracy    <       1.79717306 Ry

     total magnetization       =    -1.25 Bohr mag/cell
     absolute magnetization    =    45.86 Bohr mag/cell

     iteration #  4     ecut=    71.00 Ry     beta= 0.30
     Davidson diagonalization with overlap
     ethr =  3.51E-04,  avg # of iterations =  2.1

     negative rho (up, down):  9.136E-03 2.267E-02

     total cpu time spent up to now is     2458.6 secs

     total energy              =  -10638.27768784 Ry
     estimated scf accuracy    <       0.51743949 Ry

     total magnetization       =    -0.86 Bohr mag/cell
     absolute magnetization    =    45.89 Bohr mag/cell

     iteration #  5     ecut=    71.00 Ry     beta= 0.30
     Davidson diagonalization with overlap
     c_bands:  1 eigenvalues not converged
     c_bands:  1 eigenvalues not converged
     c_bands:  1 eigenvalues not converged
     c_bands:  1 eigenvalues not converged
     ethr =  1.01E-04,  avg # of iterations =  4.6

     negative rho (up, down):  2.464E-03 7.807E-03

     total cpu time spent up to now is     3020.9 secs

     total energy              =  -10638.38338911 Ry
     estimated scf accuracy    <       0.28133542 Ry

     total magnetization       =    -0.81 Bohr mag/cell
     absolute magnetization    =    46.20 Bohr mag/cell

     iteration #  6     ecut=    71.00 Ry     beta= 0.30
     Davidson diagonalization with overlap
     c_bands:  1 eigenvalues not converged
     c_bands:  1 eigenvalues not converged
     c_bands:  1 eigenvalues not converged
     c_bands:  1 eigenvalues not converged
     ethr =  5.49E-05,  avg # of iterations =  4.0

     negative rho (up, down):  6.210E-04 2.332E-03

     total cpu time spent up to now is     3611.6 secs

     total energy              =  -10638.48647219 Ry
     estimated scf accuracy    <       0.17764228 Ry

     total magnetization       =    -0.89 Bohr mag/cell
     absolute magnetization    =    46.58 Bohr mag/cell

     iteration #  7     ecut=    71.00 Ry     beta= 0.30
     Davidson diagonalization with overlap
     c_bands:  1 eigenvalues not converged
     c_bands:  1 eigenvalues not converged
     c_bands:  1 eigenvalues not converged
     c_bands:  1 eigenvalues not converged
     c_bands:  1 eigenvalues not converged
     c_bands:  2 eigenvalues not converged
     c_bands:  1 eigenvalues not converged
     ethr =  3.47E-05,  avg # of iterations =  3.3

     negative rho (up, down):  0.000E+00 1.533E-04

     total cpu time spent up to now is     4188.9 secs

     total energy              =  -10638.57658765 Ry
     estimated scf accuracy    <       0.09404067 Ry

     total magnetization       =    -0.81 Bohr mag/cell
     absolute magnetization    =    46.99 Bohr mag/cell

     iteration #  8     ecut=    71.00 Ry     beta= 0.30
     Davidson diagonalization with overlap
     c_bands:  2 eigenvalues not converged
     c_bands:  1 eigenvalues not converged
     c_bands:  1 eigenvalues not converged
     c_bands:  1 eigenvalues not converged
     c_bands:  1 eigenvalues not converged
     c_bands:  2 eigenvalues not converged
     c_bands:  2 eigenvalues not converged
     c_bands:  1 eigenvalues not converged
     c_bands:  1 eigenvalues not converged
     c_bands:  1 eigenvalues not converged
     c_bands:  1 eigenvalues not converged
     c_bands:  2 eigenvalues not converged
     c_bands:  1 eigenvalues not converged
     c_bands:  1 eigenvalues not converged
     c_bands:  1 eigenvalues not converged
     c_bands:  1 eigenvalues not converged
     c_bands:  2 eigenvalues not converged
     c_bands:  1 eigenvalues not converged
     c_bands:  1 eigenvalues not converged
     c_bands:  1 eigenvalues not converged
     c_bands:  2 eigenvalues not converged
     c_bands:  2 eigenvalues not converged
     c_bands:  1 eigenvalues not converged
     c_bands:  1 eigenvalues not converged
     ethr =  1.84E-05,  avg # of iterations =  4.1

     total cpu time spent up to now is     4805.1 secs

     total energy              =  -10638.62561803 Ry
     estimated scf accuracy    <       0.04560839 Ry

     total magnetization       =    -0.75 Bohr mag/cell
     absolute magnetization    =    47.52 Bohr mag/cell

     iteration #  9     ecut=    71.00 Ry     beta= 0.30
     Davidson diagonalization with overlap
     c_bands:  1 eigenvalues not converged
     c_bands:  1 eigenvalues not converged
     c_bands:  1 eigenvalues not converged
     c_bands:  1 eigenvalues not converged
     c_bands:  1 eigenvalues not converged
     c_bands:  1 eigenvalues not converged
     c_bands:  1 eigenvalues not converged
     c_bands:  1 eigenvalues not converged
     c_bands:  1 eigenvalues not converged
     c_bands:  1 eigenvalues not converged
     c_bands:  1 eigenvalues not converged
     c_bands:  1 eigenvalues not converged
     c_bands:  1 eigenvalues not converged
     c_bands:  1 eigenvalues not converged
     c_bands:  1 eigenvalues not converged
     c_bands:  1 eigenvalues not converged
     c_bands:  1 eigenvalues not converged
     c_bands:  1 eigenvalues not converged
     c_bands:  1 eigenvalues not converged
     c_bands:  1 eigenvalues not converged
     c_bands:  1 eigenvalues not converged
     c_bands:  2 eigenvalues not converged
     c_bands:  1 eigenvalues not converged
     c_bands:  1 eigenvalues not converged
     c_bands:  1 eigenvalues not converged
     c_bands:  1 eigenvalues not converged
     c_bands:  1 eigenvalues not converged
     c_bands:  1 eigenvalues not converged
     c_bands:  1 eigenvalues not converged
     c_bands:  1 eigenvalues not converged
     c_bands:  1 eigenvalues not converged
     c_bands:  1 eigenvalues not converged
     c_bands:  1 eigenvalues not converged
     c_bands:  1 eigenvalues not converged
     c_bands:  1 eigenvalues not converged
     c_bands:  1 eigenvalues not converged
     c_bands:  1 eigenvalues not converged
     c_bands:  1 eigenvalues not converged
     c_bands:  1 eigenvalues not converged
     c_bands:  1 eigenvalues not converged
     c_bands:  1 eigenvalues not converged
     c_bands:  1 eigenvalues not converged
     c_bands:  1 eigenvalues not converged
     c_bands:  1 eigenvalues not converged
     ethr =  8.91E-06,  avg # of iterations =  5.3

     total cpu time spent up to now is     5468.1 secs

     total energy              =  -10638.63889937 Ry
     estimated scf accuracy    <       0.01194452 Ry

     total magnetization       =    -0.75 Bohr mag/cell
     absolute magnetization    =    48.11 Bohr mag/cell

     iteration # 10     ecut=    71.00 Ry     beta= 0.30
     Davidson diagonalization with overlap
     c_bands:  1 eigenvalues not converged
     c_bands:  1 eigenvalues not converged
     c_bands:  1 eigenvalues not converged
     c_bands:  1 eigenvalues not converged
     c_bands:  1 eigenvalues not converged
     c_bands:  1 eigenvalues not converged
     c_bands:  1 eigenvalues not converged
     c_bands:  1 eigenvalues not converged
     c_bands:  1 eigenvalues not converged
     c_bands:  1 eigenvalues not converged
     c_bands:  1 eigenvalues not converged
     c_bands:  1 eigenvalues not converged
     c_bands:  1 eigenvalues not converged
     c_bands:  1 eigenvalues not converged
     c_bands:  1 eigenvalues not converged
     c_bands:  1 eigenvalues not converged
     c_bands:  1 eigenvalues not converged
     c_bands:  1 eigenvalues not converged
     c_bands:  1 eigenvalues not converged
     c_bands:  1 eigenvalues not converged
     c_bands:  1 eigenvalues not converged
     c_bands:  1 eigenvalues not converged
     c_bands:  1 eigenvalues not converged
     c_bands:  1 eigenvalues not converged
     c_bands:  1 eigenvalues not converged
     c_bands:  1 eigenvalues not converged
     ethr =  2.33E-06,  avg # of iterations =  7.5

     total cpu time spent up to now is     6212.2 secs

     total energy              =  -10638.64435799 Ry
     estimated scf accuracy    <       0.00458271 Ry

     total magnetization       =    -0.73 Bohr mag/cell
     absolute magnetization    =    48.64 Bohr mag/cell

     iteration # 11     ecut=    71.00 Ry     beta= 0.30
     Davidson diagonalization with overlap
     c_bands:  1 eigenvalues not converged
     c_bands:  1 eigenvalues not converged
     c_bands:  1 eigenvalues not converged
     c_bands:  1 eigenvalues not converged
     c_bands:  1 eigenvalues not converged
     ethr =  8.95E-07,  avg # of iterations =  1.8

     total cpu time spent up to now is     6692.8 secs

     total energy              =  -10638.64514467 Ry
     estimated scf accuracy    <       0.00253457 Ry

     total magnetization       =    -0.71 Bohr mag/cell
     absolute magnetization    =    48.78 Bohr mag/cell

     iteration # 12     ecut=    71.00 Ry     beta= 0.30
     Davidson diagonalization with overlap
     ethr =  4.95E-07,  avg # of iterations =  2.1

     total cpu time spent up to now is     7280.5 secs

     total energy              =  -10638.64584908 Ry
     estimated scf accuracy    <       0.00110220 Ry

     total magnetization       =    -0.73 Bohr mag/cell
     absolute magnetization    =    48.93 Bohr mag/cell

     iteration # 13     ecut=    71.00 Ry     beta= 0.30
     Davidson diagonalization with overlap
     ethr =  2.15E-07,  avg # of iterations =  1.3

     total cpu time spent up to now is     7738.4 secs

     total energy              =  -10638.64595892 Ry
     estimated scf accuracy    <       0.00053763 Ry

     total magnetization       =    -0.74 Bohr mag/cell
     absolute magnetization    =    48.99 Bohr mag/cell

     iteration # 14     ecut=    71.00 Ry     beta= 0.30
     Davidson diagonalization with overlap
     ethr =  1.05E-07,  avg # of iterations =  2.4

     total cpu time spent up to now is     8266.7 secs

     total energy              =  -10638.64610248 Ry
     estimated scf accuracy    <       0.00030312 Ry

     total magnetization       =    -0.73 Bohr mag/cell
     absolute magnetization    =    49.10 Bohr mag/cell

     iteration # 15     ecut=    71.00 Ry     beta= 0.30
     Davidson diagonalization with overlap
     c_bands:  1 eigenvalues not converged
     c_bands:  1 eigenvalues not converged
     ethr =  5.92E-08,  avg # of iterations =  4.4

     total cpu time spent up to now is     8896.8 secs

     total energy              =  -10638.64621508 Ry
     estimated scf accuracy    <       0.00018607 Ry

     total magnetization       =    -0.73 Bohr mag/cell
     absolute magnetization    =    49.24 Bohr mag/cell

     iteration # 16     ecut=    71.00 Ry     beta= 0.30
     Davidson diagonalization with overlap
     ethr =  3.63E-08,  avg # of iterations =  2.0

     total cpu time spent up to now is     9392.9 secs

     total energy              =  -10638.64627093 Ry
     estimated scf accuracy    <       0.00014101 Ry

     total magnetization       =    -0.74 Bohr mag/cell
     absolute magnetization    =    49.31 Bohr mag/cell

     iteration # 17     ecut=    71.00 Ry     beta= 0.30
     Davidson diagonalization with overlap
     ethr =  2.75E-08,  avg # of iterations =  2.0

     total cpu time spent up to now is     9958.1 secs

     total energy              =  -10638.64630651 Ry
     estimated scf accuracy    <       0.00009715 Ry

     total magnetization       =    -0.74 Bohr mag/cell
     absolute magnetization    =    49.40 Bohr mag/cell

     iteration # 18     ecut=    71.00 Ry     beta= 0.30
     Davidson diagonalization with overlap
     ethr =  1.90E-08,  avg # of iterations =  4.3

     total cpu time spent up to now is    10603.8 secs

     total energy              =  -10638.64639736 Ry
     estimated scf accuracy    <       0.00004651 Ry

     total magnetization       =    -0.75 Bohr mag/cell
     absolute magnetization    =    49.56 Bohr mag/cell

     iteration # 19     ecut=    71.00 Ry     beta= 0.30
     Davidson diagonalization with overlap
     ethr =  9.08E-09,  avg # of iterations =  2.0

     total cpu time spent up to now is    11125.3 secs

     total energy              =  -10638.64641339 Ry
     estimated scf accuracy    <       0.00003296 Ry

     total magnetization       =    -0.76 Bohr mag/cell
     absolute magnetization    =    49.60 Bohr mag/cell

     iteration # 20     ecut=    71.00 Ry     beta= 0.30
     Davidson diagonalization with overlap
     ethr =  6.44E-09,  avg # of iterations =  3.4

     total cpu time spent up to now is    11722.4 secs

     total energy              =  -10638.64643620 Ry
     estimated scf accuracy    <       0.00002293 Ry

     total magnetization       =    -0.76 Bohr mag/cell
     absolute magnetization    =    49.64 Bohr mag/cell

     iteration # 21     ecut=    71.00 Ry     beta= 0.30
     Davidson diagonalization with overlap
     ethr =  4.48E-09,  avg # of iterations =  2.5

     total cpu time spent up to now is    12308.9 secs

     total energy              =  -10638.64644860 Ry
     estimated scf accuracy    <       0.00002384 Ry

     total magnetization       =    -0.77 Bohr mag/cell
     absolute magnetization    =    49.64 Bohr mag/cell

     iteration # 22     ecut=    71.00 Ry     beta= 0.30
     Davidson diagonalization with overlap
     ethr =  4.48E-09,  avg # of iterations =  3.1

     total cpu time spent up to now is    12889.7 secs

     total energy              =  -10638.64646323 Ry
     estimated scf accuracy    <       0.00001654 Ry

     total magnetization       =    -0.78 Bohr mag/cell
     absolute magnetization    =    49.64 Bohr mag/cell

     iteration # 23     ecut=    71.00 Ry     beta= 0.30
     Davidson diagonalization with overlap
     ethr =  3.23E-09,  avg # of iterations =  2.2

     total cpu time spent up to now is    13407.4 secs

     total energy              =  -10638.64647108 Ry
     estimated scf accuracy    <       0.00001620 Ry

     total magnetization       =    -0.78 Bohr mag/cell
     absolute magnetization    =    49.64 Bohr mag/cell

     iteration # 24     ecut=    71.00 Ry     beta= 0.30
     Davidson diagonalization with overlap
     ethr =  3.16E-09,  avg # of iterations =  2.8

     total cpu time spent up to now is    13957.0 secs

     total energy              =  -10638.64647474 Ry
     estimated scf accuracy    <       0.00001387 Ry

     total magnetization       =    -0.79 Bohr mag/cell
     absolute magnetization    =    49.62 Bohr mag/cell

     iteration # 25     ecut=    71.00 Ry     beta= 0.30
     Davidson diagonalization with overlap
     ethr =  2.71E-09,  avg # of iterations =  5.0

     total cpu time spent up to now is    14647.5 secs

     total energy              =  -10638.64648562 Ry
     estimated scf accuracy    <       0.00000824 Ry

     total magnetization       =    -0.80 Bohr mag/cell
     absolute magnetization    =    49.62 Bohr mag/cell

     iteration # 26     ecut=    71.00 Ry     beta= 0.30
     Davidson diagonalization with overlap
     ethr =  1.61E-09,  avg # of iterations =  4.9

     total cpu time spent up to now is    15379.6 secs

     total energy              =  -10638.64649788 Ry
     estimated scf accuracy    <       0.00000687 Ry

     total magnetization       =    -0.81 Bohr mag/cell
     absolute magnetization    =    49.60 Bohr mag/cell

     iteration # 27     ecut=    71.00 Ry     beta= 0.30
     Davidson diagonalization with overlap
     ethr =  1.34E-09,  avg # of iterations =  4.8

     total cpu time spent up to now is    16097.2 secs

     total energy              =  -10638.64651832 Ry
     estimated scf accuracy    <       0.00000317 Ry

     total magnetization       =    -0.83 Bohr mag/cell
     absolute magnetization    =    49.59 Bohr mag/cell

     iteration # 28     ecut=    71.00 Ry     beta= 0.30
     Davidson diagonalization with overlap
     ethr =  6.20E-10,  avg # of iterations =  3.4

     total cpu time spent up to now is    16702.6 secs

     total energy              =  -10638.64652166 Ry
     estimated scf accuracy    <       0.00000223 Ry

     total magnetization       =    -0.83 Bohr mag/cell
     absolute magnetization    =    49.58 Bohr mag/cell

     iteration # 29     ecut=    71.00 Ry     beta= 0.30
     Davidson diagonalization with overlap
     ethr =  4.36E-10,  avg # of iterations =  1.8

     total cpu time spent up to now is    17186.2 secs

     total energy              =  -10638.64651662 Ry
     estimated scf accuracy    <       0.00000234 Ry

     total magnetization       =    -0.83 Bohr mag/cell
     absolute magnetization    =    49.58 Bohr mag/cell

     iteration # 30     ecut=    71.00 Ry     beta= 0.30
     Davidson diagonalization with overlap
     ethr =  4.36E-10,  avg # of iterations =  5.0

     total cpu time spent up to now is    17947.1 secs

     total energy              =  -10638.64652611 Ry
     estimated scf accuracy    <       0.00000097 Ry

     total magnetization       =    -0.84 Bohr mag/cell
     absolute magnetization    =    49.56 Bohr mag/cell

     iteration # 31     ecut=    71.00 Ry     beta= 0.30
     Davidson diagonalization with overlap
     ethr =  1.89E-10,  avg # of iterations =  3.4

     total cpu time spent up to now is    18527.6 secs

     total energy              =  -10638.64652549 Ry
     estimated scf accuracy    <       0.00000086 Ry

     total magnetization       =    -0.84 Bohr mag/cell
     absolute magnetization    =    49.55 Bohr mag/cell

     iteration # 32     ecut=    71.00 Ry     beta= 0.30
     Davidson diagonalization with overlap
     ethr =  1.68E-10,  avg # of iterations =  4.9

     total cpu time spent up to now is    19254.7 secs

     total energy              =  -10638.64652692 Ry
     estimated scf accuracy    <       0.00000054 Ry

     total magnetization       =    -0.85 Bohr mag/cell
     absolute magnetization    =    49.55 Bohr mag/cell

     iteration # 33     ecut=    71.00 Ry     beta= 0.30
     Davidson diagonalization with overlap
     ethr =  1.06E-10,  avg # of iterations =  4.8

     total cpu time spent up to now is    19962.8 secs

     total energy              =  -10638.64652858 Ry
     estimated scf accuracy    <       0.00000041 Ry

     total magnetization       =    -0.85 Bohr mag/cell
     absolute magnetization    =    49.55 Bohr mag/cell

     iteration # 34     ecut=    71.00 Ry     beta= 0.30
     Davidson diagonalization with overlap
     ethr =  8.03E-11,  avg # of iterations =  2.2

     total cpu time spent up to now is    20525.9 secs

     total energy              =  -10638.64652865 Ry
     estimated scf accuracy    <       0.00000023 Ry

     total magnetization       =    -0.85 Bohr mag/cell
     absolute magnetization    =    49.56 Bohr mag/cell

     iteration # 35     ecut=    71.00 Ry     beta= 0.30
     Davidson diagonalization with overlap
     ethr =  4.40E-11,  avg # of iterations =  4.7

     total cpu time spent up to now is    21215.8 secs

     total energy              =  -10638.64652904 Ry
     estimated scf accuracy    <       0.00000017 Ry

     total magnetization       =    -0.86 Bohr mag/cell
     absolute magnetization    =    49.56 Bohr mag/cell

     iteration # 36     ecut=    71.00 Ry     beta= 0.30
     Davidson diagonalization with overlap
     ethr =  3.24E-11,  avg # of iterations =  2.0

     total cpu time spent up to now is    21713.2 secs

     total energy              =  -10638.64652909 Ry
     estimated scf accuracy    <       0.00000011 Ry

     total magnetization       =    -0.86 Bohr mag/cell
     absolute magnetization    =    49.56 Bohr mag/cell

     iteration # 37     ecut=    71.00 Ry     beta= 0.30
     Davidson diagonalization with overlap
     ethr =  2.14E-11,  avg # of iterations =  3.5

     total cpu time spent up to now is    22311.9 secs

     total energy              =  -10638.64652908 Ry
     estimated scf accuracy    <       0.00000008 Ry

     total magnetization       =    -0.86 Bohr mag/cell
     absolute magnetization    =    49.56 Bohr mag/cell

     iteration # 38     ecut=    71.00 Ry     beta= 0.30
     Davidson diagonalization with overlap
     ethr =  1.60E-11,  avg # of iterations =  4.7

     total cpu time spent up to now is    23006.5 secs

     total energy              =  -10638.64652925 Ry
     estimated scf accuracy    <       0.00000005 Ry

     total magnetization       =    -0.86 Bohr mag/cell
     absolute magnetization    =    49.56 Bohr mag/cell

     iteration # 39     ecut=    71.00 Ry     beta= 0.30
     Davidson diagonalization with overlap
     ethr =  1.01E-11,  avg # of iterations =  3.6

     total cpu time spent up to now is    23631.8 secs

     total energy              =  -10638.64652929 Ry
     estimated scf accuracy    <       0.00000002 Ry

     total magnetization       =    -0.86 Bohr mag/cell
     absolute magnetization    =    49.56 Bohr mag/cell

     iteration # 40     ecut=    71.00 Ry     beta= 0.30
     Davidson diagonalization with overlap
     ethr =  3.89E-12,  avg # of iterations =  4.7

     total cpu time spent up to now is    24323.3 secs

     total energy              =  -10638.64652931 Ry
     estimated scf accuracy    <       0.00000001 Ry

     total magnetization       =    -0.86 Bohr mag/cell
     absolute magnetization    =    49.56 Bohr mag/cell

     iteration # 41     ecut=    71.00 Ry     beta= 0.30
     Davidson diagonalization with overlap
     ethr =  2.86E-12,  avg # of iterations =  2.8
 
     Magnetic moment per site:
     atom:    1    charge:   13.3003    magn:    0.1762    constr:    0.0000
     atom:    2    charge:   14.3426    magn:   -1.5885    constr:    0.0000
     atom:    3    charge:   14.2314    magn:    1.7396    constr:    0.0000
     atom:    4    charge:   14.3522    magn:   -1.5306    constr:    0.0000
     atom:    5    charge:   14.2320    magn:    1.4334    constr:    0.0000
     atom:    6    charge:   14.3667    magn:   -1.4771    constr:    0.0000
     atom:    7    charge:   14.2228    magn:    1.7471    constr:    0.0000
     atom:    8    charge:   14.3427    magn:   -1.5881    constr:    0.0000
     atom:    9    charge:   14.2316    magn:    1.4776    constr:    0.0000
     atom:   10    charge:   14.3469    magn:   -1.5692    constr:    0.0000
     atom:   11    charge:   14.2420    magn:    1.5760    constr:    0.0000
     atom:   12    charge:   14.3574    magn:   -1.5105    constr:    0.0000
     atom:   13    charge:   14.2630    magn:    1.2041    constr:    0.0000
     atom:   14    charge:   14.3667    magn:   -1.4762    constr:    0.0000
     atom:   15    charge:   14.2423    magn:    1.5653    constr:    0.0000
     atom:   16    charge:   14.3470    magn:   -1.5688    constr:    0.0000
     atom:   17    charge:   14.2320    magn:    1.4337    constr:    0.0000
     atom:   18    charge:   14.3523    magn:   -1.5301    constr:    0.0000
     atom:   19    charge:   14.2421    magn:    1.7341    constr:    0.0000
     atom:   20    charge:   14.3666    magn:   -1.4851    constr:    0.0000
     atom:   21    charge:   14.2737    magn:    1.5360    constr:    0.0000
     atom:   22    charge:   14.3666    magn:   -1.4851    constr:    0.0000
     atom:   23    charge:   14.2315    magn:    1.7394    constr:    0.0000
     atom:   24    charge:   14.3667    magn:   -1.4772    constr:    0.0000
     atom:   25    charge:   14.2630    magn:    1.2038    constr:    0.0000
     atom:   26    charge:   14.3574    magn:   -1.5101    constr:    0.0000
     atom:   27    charge:   14.2417    magn:    1.5892    constr:    0.0000
     atom:   28    charge:   14.3666    magn:   -1.4844    constr:    0.0000
     atom:   29    charge:   14.2423    magn:    1.4811    constr:    0.0000
     atom:   30    charge:   14.3666    magn:   -1.4845    constr:    0.0000
     atom:   31    charge:   14.2420    magn:    1.5762    constr:    0.0000
     atom:   32    charge:   14.3667    magn:   -1.4762    constr:    0.0000

     total cpu time spent up to now is    24907.0 secs

     End of self-consistent calculation

     Number of k-points >= 100: set verbosity='high' to print the bands.

     the Fermi energy is    20.0606 ev

!    total energy              =  -10638.64652932 Ry

     total all-electron energy =    -87974.351252 Ry
     estimated scf accuracy    <          8.4E-09 Ry
     smearing contrib. (-TS)   =       0.01401025 Ry
     internal energy E=F+TS    =  -10638.66053957 Ry

     The total energy is F=E-TS. E is the sum of the following terms:
     one-electron contribution =   -3262.52953090 Ry
     hartree contribution      =    1980.89595998 Ry
     xc contribution           =    -888.18327226 Ry
     ewald contribution        =   -5664.92065555 Ry
     one-center paw contrib.   =   -2803.92304084 Ry

     total magnetization       =    -0.86 Bohr mag/cell
     absolute magnetization    =    49.56 Bohr mag/cell

     convergence has been achieved in  41 iterations

     Forces acting on atoms (cartesian axes, Ry/au):

     atom    1 type  3   force =     0.02210997    0.00942130   -0.02181246
     atom    2 type  2   force =    -0.01250543   -0.01187642    0.00043343
     atom    3 type  1   force =    -0.00990887   -0.00007558   -0.01088173
     atom    4 type  2   force =    -0.00036396   -0.00837980   -0.01087651
     atom    5 type  1   force =     0.00019116    0.00004779    0.00072669
     atom    6 type  2   force =    -0.00030981    0.00030673    0.00059490
     atom    7 type  1   force =    -0.01386345   -0.00013003    0.01387439
     atom    8 type  2   force =    -0.00042972   -0.01186385    0.01249601
     atom    9 type  1   force =     0.00001859   -0.00029696   -0.00001275
     atom   10 type  2   force =    -0.01133927    0.01067512    0.00040173
     atom   11 type  1   force =    -0.00077781    0.00003136   -0.00008147
     atom   12 type  2   force =    -0.00032061    0.00634824   -0.00899361
     atom   13 type  1   force =     0.00020448   -0.00083273    0.00119110
     atom   14 type  2   force =    -0.00015286   -0.00049936    0.00065608
     atom   15 type  1   force =    -0.00031165    0.00007146    0.00031222
     atom   16 type  2   force =    -0.00040050    0.01065182    0.01132625
     atom   17 type  1   force =    -0.00072836    0.00003056   -0.00019506
     atom   18 type  2   force =     0.01085941   -0.00834314    0.00035657
     atom   19 type  1   force =     0.00480444    0.00002112   -0.00478897
     atom   20 type  2   force =    -0.00070420    0.00042356   -0.00019101
     atom   21 type  1   force =    -0.00329034   -0.00014002    0.00324090
     atom   22 type  2   force =     0.00018984    0.00042832    0.00069257
     atom   23 type  1   force =     0.01082827   -0.00007196    0.00984631
     atom   24 type  2   force =    -0.00060529    0.00030974    0.00030096
     atom   25 type  1   force =    -0.00120950   -0.00083410   -0.00020431
     atom   26 type  2   force =     0.00897248    0.00631229    0.00031805
     atom   27 type  1   force =     0.00044336   -0.00001027   -0.00044955
     atom   28 type  2   force =    -0.00077394   -0.00064651   -0.00002765
     atom   29 type  1   force =    -0.00006634    0.00003065    0.00006020
     atom   30 type  2   force =     0.00003001   -0.00065071    0.00076046
     atom   31 type  1   force =     0.00007193    0.00003550    0.00077913
     atom   32 type  2   force =    -0.00066204   -0.00049411    0.00014710

     Total force =     0.060390     Total SCF correction =     0.000257


     Computing stress (Cartesian axis) and pressure

          total   stress  (Ry/bohr**3)                   (kbar)     P=      -10.18
  -0.00006609   0.00000112  -0.00000286           -9.72        0.16       -0.42
   0.00000112  -0.00007536  -0.00000111            0.16      -11.09       -0.16
  -0.00000286  -0.00000111  -0.00006623           -0.42       -0.16       -9.74


     Writing output data file /scratch/bxp912/feru02.save/
 
     init_run     :    166.63s CPU    170.36s WALL (       1 calls)
     electrons    :  24422.97s CPU  24735.16s WALL (       1 calls)
     forces       :    100.54s CPU    101.60s WALL (       1 calls)
     stress       :    451.66s CPU    454.63s WALL (       1 calls)

     Called by init_run:
     wfcinit      :    165.45s CPU    169.09s WALL (       1 calls)
     potinit      :      0.35s CPU      0.37s WALL (       1 calls)
     hinit0       :      0.59s CPU      0.60s WALL (       1 calls)

     Called by electrons:
     c_bands      :  21735.94s CPU  21996.92s WALL (      41 calls)
     sum_band     :   2676.02s CPU   2726.25s WALL (      41 calls)
     v_of_rho     :      0.95s CPU      1.00s WALL (      42 calls)
     newd         :      2.11s CPU      2.53s WALL (      42 calls)
     PAW_pot      :      7.30s CPU      7.74s WALL (      42 calls)
     mix_rho      :      0.72s CPU      0.80s WALL (      41 calls)

     Called by c_bands:
     init_us_2    :     93.52s CPU     95.77s WALL (   62050 calls)
     cegterg      :  21371.96s CPU  21615.78s WALL (   29930 calls)

     Called by *egterg:
     cdiaghg      :   3274.29s CPU   3291.97s WALL (  134874 calls)
     h_psi        :  11312.98s CPU  11491.55s WALL (  135604 calls)
     s_psi        :    824.76s CPU    831.57s WALL (  135604 calls)
     g_psi        :     19.44s CPU     19.73s WALL (  104944 calls)

     Called by h_psi:
     h_psi:calbec :   1704.71s CPU   1717.19s WALL (  135604 calls)
     vloc_psi     :   8739.10s CPU   8894.20s WALL (  135604 calls)
     add_vuspsi   :    819.36s CPU    830.02s WALL (  135604 calls)

     General routines
     calbec       :   2612.38s CPU   2630.85s WALL (  169184 calls)
     fft          :      0.90s CPU      0.94s WALL (    1088 calls)
     ffts         :      0.34s CPU      0.35s WALL (     980 calls)
     fftw         :  10348.72s CPU  10529.61s WALL (54000356 calls)
     interpolate  :      0.10s CPU      0.10s WALL (      84 calls)
 
     Parallel routines
     fft_scatt_xy :    429.61s CPU    437.75s WALL (54002424 calls)
     fft_scatt_yz :   8882.15s CPU   9039.19s WALL (54002424 calls)
 
     PWSCF        :      7h 1m CPU      7h 7m WALL

 
   This run was terminated on:  15:19:27  23May2022            

=------------------------------------------------------------------------------=
   JOB DONE.
=------------------------------------------------------------------------------=
