
     Program PWSCF v.6.7MaX starts on 24Apr2022 at 16: 0:52 

     This program is part of the open-source Quantum ESPRESSO suite
     for quantum simulation of materials; please cite
         "P. Giannozzi et al., J. Phys.:Condens. Matter 21 395502 (2009);
         "P. Giannozzi et al., J. Phys.:Condens. Matter 29 465901 (2017);
          URL http://www.quantum-espresso.org", 
     in publications or presentations arising from this work. More details at
     http://www.quantum-espresso.org/quote

     Parallel version (MPI & OpenMP), running on      72 processor cores
     Number of MPI processes:                72
     Threads/MPI process:                     1

     MPI processes distributed on     1 nodes
     R & G space division:  proc/nbgrp/npool/nimage =      72
     Reading input from feru_relax_2.in

     Current dimensions of program PWSCF are:
     Max number of different atomic species (ntypx) = 10
     Max number of k-points (npk) =  40000
     Max angular momentum in pseudopotentials (lmaxx) =  3
     file Fe.pbe-spn-kjpaw_psl.1.0.0.UPF: wavefunction(s)  3P 3D renormalized
     file Fe.pbe-spn-kjpaw_psl.1.0.0.UPF: wavefunction(s)  3P 3D renormalized
     file Ru.pbe-spn-kjpaw_psl.1.0.0.UPF: wavefunction(s)  4D renormalized

     Subspace diagonalization in iterative solution of the eigenvalue problem:
     one sub-group per band group will be used
     ELPA distributed-memory algorithm (size of sub-group:  8*  8 procs)

     Message from routine setup:
     using ibrav=0 with symmetry is DISCOURAGED, use correct ibrav instead
 
     Parallelization info
     --------------------
     sticks:   dense  smooth     PW     G-vecs:    dense   smooth      PW
     Min          84      55     15                 4834     2593     373
     Max          85      56     16                 4839     2600     378
     Sum        6087    4017   1115               348163   187041   27031
 


     bravais-lattice index     =            0
     lattice parameter (alat)  =      13.0000  a.u.
     unit-cell volume          =    2313.3941 (a.u.)^3
     number of atoms/cell      =           32
     number of atomic types    =            3
     number of electrons       =       512.00
     number of Kohn-Sham states=          307
     kinetic-energy cutoff     =      71.0000  Ry
     charge density cutoff     =     430.0000  Ry
     scf convergence threshold =      1.0E-08
     mixing beta               =       0.3000
     number of iterations used =           10  local-TF  mixing
     energy convergence thresh.=      1.0E-04
     force convergence thresh. =      1.0E-03
     press convergence thresh. =      5.0E-01
     Exchange-correlation= SLA  PW   PBX  PBC
                           (   1   4   3   4   0   0   0)
     nstep                     =           40


     celldm(1)=  13.000000  celldm(2)=   0.000000  celldm(3)=   0.000000
     celldm(4)=   0.000000  celldm(5)=   0.000000  celldm(6)=   0.000000

     crystal axes: (cart. coord. in units of alat)
               a(1) = (   1.000000   0.000000   0.000000 )  
               a(2) = (   0.000000   1.052979   0.000000 )  
               a(3) = (   0.000000   0.000000   1.000000 )  

     reciprocal axes: (cart. coord. in units 2 pi/alat)
               b(1) = (  1.000000  0.000000  0.000000 )  
               b(2) = (  0.000000  0.949687  0.000000 )  
               b(3) = (  0.000000  0.000000  1.000000 )  


     PseudoPot. # 1 for Fe read from file:
     /rds/homes/b/bxp912/pp/Fe.pbe-spn-kjpaw_psl.1.0.0.UPF
     MD5 check sum: 42f43b795421b414b0dc916aa790dbcb
     Pseudo is Projector augmented-wave + core cor, Zval = 16.0
     Generated using &quot;atomic&quot; code by A. Dal Corso  v.6.3
     Shape of augmentation charge: PSQ
     Using radial grid of 1191 points,  6 beta functions with: 
                l(1) =   0
                l(2) =   0
                l(3) =   1
                l(4) =   1
                l(5) =   2
                l(6) =   2
     Q(r) pseudized with 0 coefficients 


     PseudoPot. # 2 for Fe read from file:
     /rds/homes/b/bxp912/pp/Fe.pbe-spn-kjpaw_psl.1.0.0.UPF
     MD5 check sum: 42f43b795421b414b0dc916aa790dbcb
     Pseudo is Projector augmented-wave + core cor, Zval = 16.0
     Generated using &quot;atomic&quot; code by A. Dal Corso  v.6.3
     Shape of augmentation charge: PSQ
     Using radial grid of 1191 points,  6 beta functions with: 
                l(1) =   0
                l(2) =   0
                l(3) =   1
                l(4) =   1
                l(5) =   2
                l(6) =   2
     Q(r) pseudized with 0 coefficients 


     PseudoPot. # 3 for Ru read from file:
     /rds/homes/b/bxp912/pp/Ru.pbe-spn-kjpaw_psl.1.0.0.UPF
     MD5 check sum: 0ae1f594dea09af7be8575c3a481d1ae
     Pseudo is Projector augmented-wave + core cor, Zval = 16.0
     Generated using "atomic" code by A. Dal Corso  v.5.1
     Shape of augmentation charge: PSQ
     Using radial grid of 1233 points,  6 beta functions with: 
                l(1) =   0
                l(2) =   0
                l(3) =   1
                l(4) =   1
                l(5) =   2
                l(6) =   2
     Q(r) pseudized with 0 coefficients 


     atomic species   valence    mass     pseudopotential
        Fe1           16.00    55.84500     Fe( 1.00)
        Fe2           16.00    55.84500     Fe( 1.00)
        Ru            16.00   101.07000     Ru( 1.00)

     Starting magnetic structure 
     atomic species   magnetization
        Fe1          0.100
        Fe2         -0.100
        Ru           0.010

      2 Sym. Ops. (no inversion) found



   Cartesian axes

     site n.     atom                  positions (alat units)
         1           Ru  tau(   1) = (   0.0000000   0.0000000   0.0000000  )
         2           Ru  tau(   2) = (   0.2524147   0.2659678   0.0000000  )
         3           Ru  tau(   3) = (   0.2548950   0.0000000   0.2548950  )
         4           Ru  tau(   4) = (   0.0000000   0.2659678   0.2524147  )
         5           Fe1 tau(   5) = (   0.0000000   0.0000000   0.5000000  )
         6           Fe2 tau(   6) = (   0.2503874   0.2637919   0.5000000  )
         7           Fe1 tau(   7) = (   0.2548950   0.0000000   0.7451050  )
         8           Fe2 tau(   8) = (   0.0000000   0.2659678   0.7475853  )
         9           Fe1 tau(   9) = (   0.0000000   0.5264893   0.0000000  )
        10           Fe2 tau(  10) = (   0.2524147   0.7870108   0.0000000  )
        11           Fe1 tau(  11) = (   0.2503991   0.5264893   0.2503991  )
        12           Fe2 tau(  12) = (   0.0000000   0.7870108   0.2524147  )
        13           Fe1 tau(  13) = (   0.0000000   0.5264893   0.5000000  )
        14           Fe2 tau(  14) = (   0.2503874   0.7891868   0.5000000  )
        15           Fe1 tau(  15) = (   0.2503991   0.5264893   0.7496009  )
        16           Fe2 tau(  16) = (   0.0000000   0.7870108   0.7475853  )
        17           Fe1 tau(  17) = (   0.5000000   0.0000000   0.0000000  )
        18           Fe2 tau(  18) = (   0.7475853   0.2659678   0.0000000  )
        19           Fe1 tau(  19) = (   0.7451050   0.0000000   0.2548950  )
        20           Fe2 tau(  20) = (   0.5000000   0.2637919   0.2503874  )
        21           Fe1 tau(  21) = (   0.5000000   0.0000000   0.5000000  )
        22           Fe2 tau(  22) = (   0.7496126   0.2637919   0.5000000  )
        23           Fe1 tau(  23) = (   0.7451050   0.0000000   0.7451050  )
        24           Fe2 tau(  24) = (   0.5000000   0.2637919   0.7496126  )
        25           Fe1 tau(  25) = (   0.5000000   0.5264893   0.0000000  )
        26           Fe2 tau(  26) = (   0.7475853   0.7870108   0.0000000  )
        27           Fe1 tau(  27) = (   0.7496009   0.5264893   0.2503991  )
        28           Fe2 tau(  28) = (   0.5000000   0.7891868   0.2503874  )
        29           Fe1 tau(  29) = (   0.5000000   0.5264893   0.5000000  )
        30           Fe2 tau(  30) = (   0.7496126   0.7891868   0.5000000  )
        31           Fe1 tau(  31) = (   0.7496009   0.5264893   0.7496009  )
        32           Fe2 tau(  32) = (   0.5000000   0.7891868   0.7496126  )

     number of k points=   205  Marzari-Vanderbilt smearing, width (Ry)=  0.0400

     Number of k-points >= 100: set verbosity='high' to print them.

     Dense  grid:   348163 G-vectors     FFT dimensions: (  90,  96,  90)

     Smooth grid:   187041 G-vectors     FFT dimensions: (  72,  75,  72)

     Estimated max dynamical RAM per process >     659.69 MB

     Estimated total dynamical RAM >      46.38 GB

     Check: negative core charge=   -0.000005
     Generating pointlists ...
     new r_m :   0.1430 (alat units)  1.8588 (a.u.) for type    1
     new r_m :   0.1453 (alat units)  1.8883 (a.u.) for type    2
     new r_m :   0.1430 (alat units)  1.8588 (a.u.) for type    3

     Initial potential from superposition of free atoms

     starting charge  511.98520, renormalised to  512.00000
     Starting wfcs are  320 randomized atomic wfcs
     Checking if some PAW data can be deallocated... 

     total cpu time spent up to now is       94.2 secs

     Self-consistent Calculation

     iteration #  1     ecut=    71.00 Ry     beta= 0.30
     Davidson diagonalization with overlap
     ethr =  1.00E-02,  avg # of iterations =  3.7

     Threshold (ethr) on eigenvalues was too large:
     Diagonalizing with lowered threshold

     Davidson diagonalization with overlap
     ethr =  6.32E-04,  avg # of iterations =  6.0

     negative rho (up, down):  2.457E-02 6.571E-03

     total cpu time spent up to now is      780.2 secs

     total energy              =  -10945.31186643 Ry
     estimated scf accuracy    <       7.26875351 Ry

     total magnetization       =     0.12 Bohr mag/cell
     absolute magnetization    =    44.08 Bohr mag/cell

     iteration #  2     ecut=    71.00 Ry     beta= 0.30
     Davidson diagonalization with overlap
     ethr =  1.42E-03,  avg # of iterations =  2.0

     negative rho (up, down):  1.488E-02 9.882E-03

     total cpu time spent up to now is     1074.5 secs

     total energy              =  -10945.34778728 Ry
     estimated scf accuracy    <       1.28639652 Ry

     total magnetization       =     0.19 Bohr mag/cell
     absolute magnetization    =    41.27 Bohr mag/cell

     iteration #  3     ecut=    71.00 Ry     beta= 0.30
     Davidson diagonalization with overlap
     ethr =  2.51E-04,  avg # of iterations =  2.7

     negative rho (up, down):  1.025E-02 7.640E-03

     total cpu time spent up to now is     1391.4 secs

     total energy              =  -10945.45036622 Ry
     estimated scf accuracy    <       0.68051334 Ry

     total magnetization       =    -0.04 Bohr mag/cell
     absolute magnetization    =    40.86 Bohr mag/cell

     iteration #  4     ecut=    71.00 Ry     beta= 0.30
     Davidson diagonalization with overlap
     c_bands:  1 eigenvalues not converged
     c_bands:  1 eigenvalues not converged
     ethr =  1.33E-04,  avg # of iterations =  2.5

     negative rho (up, down):  3.710E-03 2.845E-03

     total cpu time spent up to now is     1671.0 secs

     total energy              =  -10945.52946475 Ry
     estimated scf accuracy    <       0.24245557 Ry

     total magnetization       =     0.09 Bohr mag/cell
     absolute magnetization    =    40.95 Bohr mag/cell

     iteration #  5     ecut=    71.00 Ry     beta= 0.30
     Davidson diagonalization with overlap
     c_bands:  1 eigenvalues not converged
     c_bands:  1 eigenvalues not converged
     c_bands:  1 eigenvalues not converged
     c_bands:  1 eigenvalues not converged
     c_bands:  1 eigenvalues not converged
     ethr =  4.74E-05,  avg # of iterations =  5.7

     negative rho (up, down):  1.782E-03 5.851E-04

     total cpu time spent up to now is     2015.4 secs

     total energy              =  -10945.63221729 Ry
     estimated scf accuracy    <       0.13118944 Ry

     total magnetization       =    -0.02 Bohr mag/cell
     absolute magnetization    =    41.24 Bohr mag/cell

     iteration #  6     ecut=    71.00 Ry     beta= 0.30
     Davidson diagonalization with overlap
     c_bands:  1 eigenvalues not converged
     c_bands:  1 eigenvalues not converged
     c_bands:  1 eigenvalues not converged
     c_bands:  1 eigenvalues not converged
     c_bands:  1 eigenvalues not converged
     c_bands:  1 eigenvalues not converged
     ethr =  2.56E-05,  avg # of iterations =  4.2

     negative rho (up, down):  1.661E-04 0.000E+00

     total cpu time spent up to now is     2350.0 secs

     total energy              =  -10945.70878622 Ry
     estimated scf accuracy    <       0.08672313 Ry

     total magnetization       =    -0.00 Bohr mag/cell
     absolute magnetization    =    41.62 Bohr mag/cell

     iteration #  7     ecut=    71.00 Ry     beta= 0.30
     Davidson diagonalization with overlap
     c_bands:  1 eigenvalues not converged
     c_bands:  1 eigenvalues not converged
     c_bands:  1 eigenvalues not converged
     ethr =  1.69E-05,  avg # of iterations =  3.4

     total cpu time spent up to now is     2683.6 secs

     total energy              =  -10945.73709822 Ry
     estimated scf accuracy    <       0.03360507 Ry

     total magnetization       =    -0.09 Bohr mag/cell
     absolute magnetization    =    42.12 Bohr mag/cell

     iteration #  8     ecut=    71.00 Ry     beta= 0.30
     Davidson diagonalization with overlap
     c_bands:  1 eigenvalues not converged
     c_bands:  1 eigenvalues not converged
     c_bands:  1 eigenvalues not converged
     c_bands:  1 eigenvalues not converged
     c_bands:  1 eigenvalues not converged
     c_bands:  1 eigenvalues not converged
     c_bands:  2 eigenvalues not converged
     c_bands:  1 eigenvalues not converged
     c_bands:  1 eigenvalues not converged
     c_bands:  1 eigenvalues not converged
     c_bands:  1 eigenvalues not converged
     ethr =  6.56E-06,  avg # of iterations =  6.8

     total cpu time spent up to now is     3075.8 secs

     total energy              =  -10945.75026459 Ry
     estimated scf accuracy    <       0.00892342 Ry

     total magnetization       =    -0.16 Bohr mag/cell
     absolute magnetization    =    42.78 Bohr mag/cell

     iteration #  9     ecut=    71.00 Ry     beta= 0.30
     Davidson diagonalization with overlap
     c_bands:  1 eigenvalues not converged
     c_bands:  1 eigenvalues not converged
     c_bands:  1 eigenvalues not converged
     c_bands:  1 eigenvalues not converged
     c_bands:  1 eigenvalues not converged
     c_bands:  1 eigenvalues not converged
     c_bands:  1 eigenvalues not converged
     c_bands:  1 eigenvalues not converged
     c_bands:  1 eigenvalues not converged
     c_bands:  1 eigenvalues not converged
     c_bands:  1 eigenvalues not converged
     c_bands:  1 eigenvalues not converged
     c_bands:  1 eigenvalues not converged
     c_bands:  1 eigenvalues not converged
     c_bands:  1 eigenvalues not converged
     ethr =  1.74E-06,  avg # of iterations =  5.9

     total cpu time spent up to now is     3375.7 secs

     total energy              =  -10945.75038140 Ry
     estimated scf accuracy    <       0.00336130 Ry

     total magnetization       =    -0.13 Bohr mag/cell
     absolute magnetization    =    42.91 Bohr mag/cell

     iteration # 10     ecut=    71.00 Ry     beta= 0.30
     Davidson diagonalization with overlap
     c_bands:  1 eigenvalues not converged
     c_bands:  1 eigenvalues not converged
     ethr =  6.57E-07,  avg # of iterations =  2.7

     total cpu time spent up to now is     3705.2 secs

     total energy              =  -10945.75148315 Ry
     estimated scf accuracy    <       0.00186913 Ry

     total magnetization       =    -0.12 Bohr mag/cell
     absolute magnetization    =    43.05 Bohr mag/cell

     iteration # 11     ecut=    71.00 Ry     beta= 0.30
     Davidson diagonalization with overlap
     c_bands:  1 eigenvalues not converged
     ethr =  3.65E-07,  avg # of iterations =  2.0

     total cpu time spent up to now is     3985.5 secs

     total energy              =  -10945.75165738 Ry
     estimated scf accuracy    <       0.00075216 Ry

     total magnetization       =    -0.13 Bohr mag/cell
     absolute magnetization    =    43.08 Bohr mag/cell

     iteration # 12     ecut=    71.00 Ry     beta= 0.30
     Davidson diagonalization with overlap
     ethr =  1.47E-07,  avg # of iterations =  1.2

     total cpu time spent up to now is     4231.8 secs

     total energy              =  -10945.75170104 Ry
     estimated scf accuracy    <       0.00036442 Ry

     total magnetization       =    -0.13 Bohr mag/cell
     absolute magnetization    =    43.16 Bohr mag/cell

     iteration # 13     ecut=    71.00 Ry     beta= 0.30
     Davidson diagonalization with overlap
     c_bands:  1 eigenvalues not converged
     ethr =  7.12E-08,  avg # of iterations =  3.3

     total cpu time spent up to now is     4571.5 secs

     total energy              =  -10945.75203371 Ry
     estimated scf accuracy    <       0.00026229 Ry

     total magnetization       =    -0.14 Bohr mag/cell
     absolute magnetization    =    43.40 Bohr mag/cell

     iteration # 14     ecut=    71.00 Ry     beta= 0.30
     Davidson diagonalization with overlap
     ethr =  5.12E-08,  avg # of iterations =  2.0

     total cpu time spent up to now is     4860.4 secs

     total energy              =  -10945.75207389 Ry
     estimated scf accuracy    <       0.00016983 Ry

     total magnetization       =    -0.15 Bohr mag/cell
     absolute magnetization    =    43.49 Bohr mag/cell

     iteration # 15     ecut=    71.00 Ry     beta= 0.30
     Davidson diagonalization with overlap
     ethr =  3.32E-08,  avg # of iterations =  2.0

     total cpu time spent up to now is     5132.1 secs

     total energy              =  -10945.75211761 Ry
     estimated scf accuracy    <       0.00009234 Ry

     total magnetization       =    -0.15 Bohr mag/cell
     absolute magnetization    =    43.58 Bohr mag/cell

     iteration # 16     ecut=    71.00 Ry     beta= 0.30
     Davidson diagonalization with overlap
     ethr =  1.80E-08,  avg # of iterations =  2.1

     total cpu time spent up to now is     5446.1 secs

     total energy              =  -10945.75214721 Ry
     estimated scf accuracy    <       0.00002760 Ry

     total magnetization       =    -0.15 Bohr mag/cell
     absolute magnetization    =    43.68 Bohr mag/cell

     iteration # 17     ecut=    71.00 Ry     beta= 0.30
     Davidson diagonalization with overlap
     ethr =  5.39E-09,  avg # of iterations =  4.6

     total cpu time spent up to now is     5778.5 secs

     total energy              =  -10945.75215481 Ry
     estimated scf accuracy    <       0.00001563 Ry

     total magnetization       =    -0.16 Bohr mag/cell
     absolute magnetization    =    43.75 Bohr mag/cell

     iteration # 18     ecut=    71.00 Ry     beta= 0.30
     Davidson diagonalization with overlap
     ethr =  3.05E-09,  avg # of iterations =  3.5

     total cpu time spent up to now is     6117.9 secs

     total energy              =  -10945.75216645 Ry
     estimated scf accuracy    <       0.00000448 Ry

     total magnetization       =    -0.16 Bohr mag/cell
     absolute magnetization    =    43.84 Bohr mag/cell

     iteration # 19     ecut=    71.00 Ry     beta= 0.30
     Davidson diagonalization with overlap
     ethr =  8.74E-10,  avg # of iterations =  2.7

     total cpu time spent up to now is     6441.2 secs

     total energy              =  -10945.75216794 Ry
     estimated scf accuracy    <       0.00000394 Ry

     total magnetization       =    -0.16 Bohr mag/cell
     absolute magnetization    =    43.85 Bohr mag/cell

     iteration # 20     ecut=    71.00 Ry     beta= 0.30
     Davidson diagonalization with overlap
     ethr =  7.70E-10,  avg # of iterations =  2.4

     total cpu time spent up to now is     6758.9 secs

     total energy              =  -10945.75216927 Ry
     estimated scf accuracy    <       0.00000139 Ry

     total magnetization       =    -0.16 Bohr mag/cell
     absolute magnetization    =    43.86 Bohr mag/cell

     iteration # 21     ecut=    71.00 Ry     beta= 0.30
     Davidson diagonalization with overlap
     ethr =  2.71E-10,  avg # of iterations =  2.8

     total cpu time spent up to now is     7041.0 secs

     total energy              =  -10945.75216964 Ry
     estimated scf accuracy    <       0.00000112 Ry

     total magnetization       =    -0.16 Bohr mag/cell
     absolute magnetization    =    43.86 Bohr mag/cell

     iteration # 22     ecut=    71.00 Ry     beta= 0.30
     Davidson diagonalization with overlap
     ethr =  2.19E-10,  avg # of iterations =  2.2

     total cpu time spent up to now is     7337.2 secs

     total energy              =  -10945.75216988 Ry
     estimated scf accuracy    <       0.00000052 Ry

     total magnetization       =    -0.16 Bohr mag/cell
     absolute magnetization    =    43.86 Bohr mag/cell

     iteration # 23     ecut=    71.00 Ry     beta= 0.30
     Davidson diagonalization with overlap
     ethr =  1.02E-10,  avg # of iterations =  4.8

     total cpu time spent up to now is     7698.4 secs

     total energy              =  -10945.75217036 Ry
     estimated scf accuracy    <       0.00000030 Ry

     total magnetization       =    -0.16 Bohr mag/cell
     absolute magnetization    =    43.87 Bohr mag/cell

     iteration # 24     ecut=    71.00 Ry     beta= 0.30
     Davidson diagonalization with overlap
     ethr =  5.93E-11,  avg # of iterations =  2.0

     total cpu time spent up to now is     7999.4 secs

     total energy              =  -10945.75217045 Ry
     estimated scf accuracy    <       0.00000018 Ry

     total magnetization       =    -0.16 Bohr mag/cell
     absolute magnetization    =    43.87 Bohr mag/cell

     iteration # 25     ecut=    71.00 Ry     beta= 0.30
     Davidson diagonalization with overlap
     ethr =  3.54E-11,  avg # of iterations =  2.0

     total cpu time spent up to now is     8272.5 secs

     total energy              =  -10945.75217049 Ry
     estimated scf accuracy    <       0.00000013 Ry

     total magnetization       =    -0.16 Bohr mag/cell
     absolute magnetization    =    43.87 Bohr mag/cell

     iteration # 26     ecut=    71.00 Ry     beta= 0.30
     Davidson diagonalization with overlap
     ethr =  2.53E-11,  avg # of iterations =  3.5

     total cpu time spent up to now is     8608.3 secs

     total energy              =  -10945.75217061 Ry
     estimated scf accuracy    <       0.00000011 Ry

     total magnetization       =    -0.16 Bohr mag/cell
     absolute magnetization    =    43.87 Bohr mag/cell

     iteration # 27     ecut=    71.00 Ry     beta= 0.30
     Davidson diagonalization with overlap
     ethr =  2.22E-11,  avg # of iterations =  2.0

     total cpu time spent up to now is     8909.2 secs

     total energy              =  -10945.75217067 Ry
     estimated scf accuracy    <       0.00000007 Ry

     total magnetization       =    -0.16 Bohr mag/cell
     absolute magnetization    =    43.87 Bohr mag/cell

     iteration # 28     ecut=    71.00 Ry     beta= 0.30
     Davidson diagonalization with overlap
     ethr =  1.36E-11,  avg # of iterations =  3.2

     total cpu time spent up to now is     9237.1 secs

     total energy              =  -10945.75217070 Ry
     estimated scf accuracy    <       0.00000003 Ry

     total magnetization       =    -0.16 Bohr mag/cell
     absolute magnetization    =    43.87 Bohr mag/cell

     iteration # 29     ecut=    71.00 Ry     beta= 0.30
     Davidson diagonalization with overlap
     ethr =  5.45E-12,  avg # of iterations =  4.8

     total cpu time spent up to now is     9601.8 secs

     total energy              =  -10945.75217073 Ry
     estimated scf accuracy    <       0.00000002 Ry

     total magnetization       =    -0.16 Bohr mag/cell
     absolute magnetization    =    43.86 Bohr mag/cell

     iteration # 30     ecut=    71.00 Ry     beta= 0.30
     Davidson diagonalization with overlap
     ethr =  3.53E-12,  avg # of iterations =  2.0

     total cpu time spent up to now is     9898.8 secs

     total energy              =  -10945.75217073 Ry
     estimated scf accuracy    <       0.00000001 Ry

     total magnetization       =    -0.16 Bohr mag/cell
     absolute magnetization    =    43.86 Bohr mag/cell

     iteration # 31     ecut=    71.00 Ry     beta= 0.30
     Davidson diagonalization with overlap
     ethr =  2.00E-12,  avg # of iterations =  3.8
 
     Magnetic moment per site:
     atom:    1    charge:   13.1618    magn:    0.1635    constr:    0.0000
     atom:    2    charge:   13.1921    magn:   -0.1733    constr:    0.0000
     atom:    3    charge:   13.1936    magn:    0.1846    constr:    0.0000
     atom:    4    charge:   13.1921    magn:   -0.1733    constr:    0.0000
     atom:    5    charge:   14.3207    magn:    1.4443    constr:    0.0000
     atom:    6    charge:   14.4366    magn:   -1.3840    constr:    0.0000
     atom:    7    charge:   14.3117    magn:    1.4933    constr:    0.0000
     atom:    8    charge:   14.4098    magn:   -1.4876    constr:    0.0000
     atom:    9    charge:   14.3198    magn:    1.3650    constr:    0.0000
     atom:   10    charge:   14.4052    magn:   -1.4489    constr:    0.0000
     atom:   11    charge:   14.3287    magn:    1.3292    constr:    0.0000
     atom:   12    charge:   14.4052    magn:   -1.4489    constr:    0.0000
     atom:   13    charge:   14.3163    magn:    1.3785    constr:    0.0000
     atom:   14    charge:   14.4127    magn:   -1.4286    constr:    0.0000
     atom:   15    charge:   14.3101    magn:    1.4235    constr:    0.0000
     atom:   16    charge:   14.3883    magn:   -1.5281    constr:    0.0000
     atom:   17    charge:   14.3207    magn:    1.4443    constr:    0.0000
     atom:   18    charge:   14.4098    magn:   -1.4876    constr:    0.0000
     atom:   19    charge:   14.3117    magn:    1.4933    constr:    0.0000
     atom:   20    charge:   14.4366    magn:   -1.3840    constr:    0.0000
     atom:   21    charge:   14.3352    magn:    1.5669    constr:    0.0000
     atom:   22    charge:   14.4129    magn:   -1.5769    constr:    0.0000
     atom:   23    charge:   14.2929    magn:    1.6652    constr:    0.0000
     atom:   24    charge:   14.4129    magn:   -1.5769    constr:    0.0000
     atom:   25    charge:   14.3163    magn:    1.3785    constr:    0.0000
     atom:   26    charge:   14.3883    magn:   -1.5281    constr:    0.0000
     atom:   27    charge:   14.3101    magn:    1.4235    constr:    0.0000
     atom:   28    charge:   14.4127    magn:   -1.4286    constr:    0.0000
     atom:   29    charge:   14.2865    magn:    1.5751    constr:    0.0000
     atom:   30    charge:   14.3894    magn:   -1.5337    constr:    0.0000
     atom:   31    charge:   14.2886    magn:    1.5304    constr:    0.0000
     atom:   32    charge:   14.3894    magn:   -1.5337    constr:    0.0000

     total cpu time spent up to now is    10241.4 secs

     End of self-consistent calculation

     Number of k-points >= 100: set verbosity='high' to print the bands.

     the Fermi energy is    21.2412 ev

!    total energy              =  -10945.75217075 Ry

     total all-electron energy =   -107524.103889 Ry
     estimated scf accuracy    <          5.8E-09 Ry
     smearing contrib. (-TS)   =       0.01096874 Ry
     internal energy E=F+TS    =  -10945.76313948 Ry

     The total energy is F=E-TS. E is the sum of the following terms:
     one-electron contribution =   -2960.72233312 Ry
     hartree contribution      =    1852.82540104 Ry
     xc contribution           =    -893.06106919 Ry
     ewald contribution        =   -5677.75302682 Ry
     one-center paw contrib.   =   -3267.05211140 Ry

     total magnetization       =    -0.16 Bohr mag/cell
     absolute magnetization    =    43.86 Bohr mag/cell

     convergence has been achieved in  31 iterations

     Forces acting on atoms (cartesian axes, Ry/au):

     atom    1 type  3   force =    -0.05334757   -0.04173690   -0.05334757
     atom    2 type  3   force =     0.03816121    0.02490006   -0.05346198
     atom    3 type  3   force =     0.02316519   -0.03752590    0.02316519
     atom    4 type  3   force =    -0.05346198    0.02490006    0.03816121
     atom    5 type  1   force =    -0.02288245   -0.01154696    0.03085674
     atom    6 type  2   force =     0.02198092    0.01248856    0.03210896
     atom    7 type  1   force =     0.00151509   -0.00974171   -0.00808314
     atom    8 type  2   force =    -0.02053844    0.00020349   -0.01898060
     atom    9 type  1   force =    -0.01173767    0.02316788   -0.01173767
     atom   10 type  2   force =     0.00152356   -0.01126434   -0.01052734
     atom   11 type  1   force =     0.01063980    0.02321213    0.01063980
     atom   12 type  2   force =    -0.01052734   -0.01126434    0.00152356
     atom   13 type  1   force =    -0.00242172    0.01450991    0.01378273
     atom   14 type  2   force =     0.00101862   -0.01447038    0.01299696
     atom   15 type  1   force =     0.00120226    0.01333615   -0.01132487
     atom   16 type  2   force =    -0.00205661   -0.00195063   -0.00210831
     atom   17 type  1   force =     0.03085674   -0.01154696   -0.02288245
     atom   18 type  2   force =    -0.01898060    0.00020349   -0.02053844
     atom   19 type  1   force =    -0.00808314   -0.00974171    0.00151509
     atom   20 type  2   force =     0.03210896    0.01248856    0.02198092
     atom   21 type  1   force =     0.02598821    0.00038697    0.02598821
     atom   22 type  2   force =    -0.02199692    0.00027825    0.02311831
     atom   23 type  1   force =    -0.00079390    0.00045040   -0.00079390
     atom   24 type  2   force =     0.02311831    0.00027825   -0.02199692
     atom   25 type  1   force =     0.01378273    0.01450991   -0.00242172
     atom   26 type  2   force =    -0.00210831   -0.00195063   -0.00205661
     atom   27 type  1   force =    -0.01132487    0.01333615    0.00120226
     atom   28 type  2   force =     0.01299696   -0.01447038    0.00101862
     atom   29 type  1   force =     0.00232149   -0.00042761    0.00232149
     atom   30 type  2   force =    -0.00107261   -0.00032809    0.00225292
     atom   31 type  1   force =    -0.00129885   -0.00035561   -0.00129885
     atom   32 type  2   force =     0.00225292   -0.00032809   -0.00107261

     Total force =     0.189519     Total SCF correction =     0.000302


     Computing stress (Cartesian axis) and pressure

          total   stress  (Ry/bohr**3)                   (kbar)     P=      100.59
   0.00075851   0.00000143  -0.00000083          111.58        0.21       -0.12
   0.00000143   0.00053444   0.00000143            0.21       78.62        0.21
  -0.00000083   0.00000143   0.00075851           -0.12        0.21      111.58


     BFGS Geometry Optimization
     Energy error            =      0.0E+00
     Gradient error          =      5.3E-02
     Cell gradient error     =      7.6E-04


     number of scf cycles    =   1
     number of bfgs steps    =   0

     enthalpy new            =  -10945.7521707461 Ry

     new trust radius        =       0.1824133603 bohr
     new conv_thr            =       0.0000000100 Ry

     new unit-cell volume =   2434.05501 a.u.^3 (   360.68974 Ang^3 )
     density =      9.05998 g/cm^3

CELL_PARAMETERS (alat= 13.00000000)
   1.018962728   0.000035645  -0.000020779
   0.000037534   1.067047460   0.000037534
  -0.000020779   0.000035645   1.018962728

ATOMIC_POSITIONS (crystal)
Ru           -0.0041036589       -0.0030489987       -0.0041036589
Ru            0.2553501839        0.2544051376       -0.0041124596
Ru            0.2566768967       -0.0027413732        0.2566768967
Ru           -0.0041124596        0.2544051376        0.2553501839
Fe1          -0.0017601886       -0.0008435385        0.5023735950
Fe2           0.2520782326        0.2514320012        0.5024699197
Fe1           0.2550115043       -0.0007116593        0.7444832608
Fe2          -0.0015798798        0.2526009832        0.7461252476
Fe1          -0.0009028976        0.5016924794       -0.0009028976
Fe2           0.2525319036        0.7465909908       -0.0008097951
Fe1           0.2512175937        0.5016957122        0.2512175937
Fe2          -0.0008097951        0.7465909908        0.2525319036
Fe1          -0.0001862863        0.5010599899        0.5010602099
Fe2           0.2504657476        0.7484232209        0.5009997660
Fe1           0.2504916285        0.5009742439        0.7487297088
Fe2          -0.0001582005        0.7472713838        0.7474231158
Fe1           0.5023735950       -0.0008435385       -0.0017601886
Fe2           0.7461252476        0.2526009832       -0.0015798798
Fe1           0.7444832608       -0.0007116593        0.2550115043
Fe2           0.5024699197        0.2514320012        0.2520782326
Fe1           0.5019990933        0.0000282694        0.5019990933
Fe2           0.7479205371        0.2505400035        0.5017783314
Fe1           0.7450439719        0.0000329031        0.7450439719
Fe2           0.5017783314        0.2505400035        0.7479205371
Fe1           0.5010602099        0.5010599899       -0.0001862863
Fe2           0.7474231158        0.7472713838       -0.0001582005
Fe1           0.7487297088        0.5009742439        0.2504916285
Fe2           0.5009997660        0.7484232209        0.2504657476
Fe1           0.5001785758        0.4999687617        0.5001785758
Fe2           0.7495300994        0.7494563553        0.5001733015
Fe1           0.7495009414        0.4999740217        0.7495009414
Fe2           0.5001733015        0.7494563553        0.7495300994



     Writing output data file /scratch/bxp912/feru_relax_2.save/
     NEW-OLD atomic charge density approx. for the potential

     Check: negative core charge=   -0.000006
     extrapolated charge  537.38013, renormalised to  512.00000
     Generating pointlists ...

     total cpu time spent up to now is    10555.2 secs

     Self-consistent Calculation

     iteration #  1     ecut=    71.00 Ry     beta= 0.30
     Davidson diagonalization with overlap
     c_bands:  1 eigenvalues not converged
     c_bands:  1 eigenvalues not converged
     c_bands:  1 eigenvalues not converged
     c_bands:  1 eigenvalues not converged
     c_bands:  2 eigenvalues not converged
     c_bands:  3 eigenvalues not converged
     c_bands:  5 eigenvalues not converged
     c_bands:  5 eigenvalues not converged
     c_bands:  4 eigenvalues not converged
     c_bands:  2 eigenvalues not converged
     c_bands:  4 eigenvalues not converged
     c_bands:  2 eigenvalues not converged
     c_bands:  3 eigenvalues not converged
     c_bands:  1 eigenvalues not converged
     c_bands:  3 eigenvalues not converged
     c_bands:  2 eigenvalues not converged
     c_bands:  1 eigenvalues not converged
     c_bands:  3 eigenvalues not converged
     c_bands:  3 eigenvalues not converged
     c_bands:  1 eigenvalues not converged
     c_bands:  2 eigenvalues not converged
     c_bands:  1 eigenvalues not converged
     c_bands:  2 eigenvalues not converged
     c_bands:  1 eigenvalues not converged
     c_bands:  3 eigenvalues not converged
     c_bands:  4 eigenvalues not converged
     c_bands:  1 eigenvalues not converged
     c_bands:  2 eigenvalues not converged
     c_bands:  3 eigenvalues not converged
     c_bands:  3 eigenvalues not converged
     c_bands:  3 eigenvalues not converged
     c_bands:  1 eigenvalues not converged
     c_bands:  2 eigenvalues not converged
     c_bands:  3 eigenvalues not converged
     c_bands:  1 eigenvalues not converged
     c_bands:  2 eigenvalues not converged
     c_bands:  1 eigenvalues not converged
     c_bands:  2 eigenvalues not converged
     c_bands:  1 eigenvalues not converged
     c_bands:  5 eigenvalues not converged
     c_bands:  4 eigenvalues not converged
     c_bands:  1 eigenvalues not converged
     c_bands:  4 eigenvalues not converged
     c_bands:  4 eigenvalues not converged
     c_bands:  3 eigenvalues not converged
     c_bands:  2 eigenvalues not converged
     c_bands:  3 eigenvalues not converged
     c_bands:  3 eigenvalues not converged
     c_bands:  2 eigenvalues not converged
     c_bands:  5 eigenvalues not converged
     c_bands:  3 eigenvalues not converged
     c_bands:  3 eigenvalues not converged
     c_bands:  4 eigenvalues not converged
     c_bands:  3 eigenvalues not converged
     c_bands:  4 eigenvalues not converged
     c_bands:  1 eigenvalues not converged
     c_bands:  5 eigenvalues not converged
     c_bands:  3 eigenvalues not converged
     c_bands:  3 eigenvalues not converged
     c_bands:  3 eigenvalues not converged
     c_bands:  1 eigenvalues not converged
     c_bands:  1 eigenvalues not converged
     c_bands:  2 eigenvalues not converged
     c_bands:  2 eigenvalues not converged
     c_bands:  2 eigenvalues not converged
     c_bands:  2 eigenvalues not converged
     c_bands:  2 eigenvalues not converged
     c_bands:  1 eigenvalues not converged
     c_bands:  1 eigenvalues not converged
     c_bands:  1 eigenvalues not converged
     c_bands:  2 eigenvalues not converged
     c_bands:  3 eigenvalues not converged
     c_bands:  4 eigenvalues not converged
     c_bands:  5 eigenvalues not converged
     c_bands:  4 eigenvalues not converged
     c_bands:  5 eigenvalues not converged
     c_bands:  4 eigenvalues not converged
     c_bands:  4 eigenvalues not converged
     c_bands:  4 eigenvalues not converged
     c_bands:  4 eigenvalues not converged
     c_bands:  3 eigenvalues not converged
     c_bands:  4 eigenvalues not converged
     c_bands:  4 eigenvalues not converged
     c_bands:  2 eigenvalues not converged
     c_bands:  4 eigenvalues not converged
     c_bands:  4 eigenvalues not converged
     c_bands:  3 eigenvalues not converged
     c_bands:  3 eigenvalues not converged
     c_bands:  3 eigenvalues not converged
     c_bands:  1 eigenvalues not converged
     c_bands:  1 eigenvalues not converged
     c_bands:  1 eigenvalues not converged
     c_bands:  3 eigenvalues not converged
     c_bands:  2 eigenvalues not converged
     c_bands:  1 eigenvalues not converged
     c_bands:  3 eigenvalues not converged
     c_bands:  3 eigenvalues not converged
     c_bands:  1 eigenvalues not converged
     c_bands:  1 eigenvalues not converged
     c_bands:  1 eigenvalues not converged
     c_bands:  2 eigenvalues not converged
     c_bands:  2 eigenvalues not converged
     c_bands:  2 eigenvalues not converged
     c_bands:  2 eigenvalues not converged
     c_bands:  1 eigenvalues not converged
     c_bands:  3 eigenvalues not converged
     c_bands:  5 eigenvalues not converged
     c_bands:  5 eigenvalues not converged
     c_bands:  2 eigenvalues not converged
     c_bands:  2 eigenvalues not converged
     c_bands:  2 eigenvalues not converged
     c_bands:  1 eigenvalues not converged
     c_bands:  4 eigenvalues not converged
     c_bands:  1 eigenvalues not converged
     c_bands:  5 eigenvalues not converged
     c_bands:  3 eigenvalues not converged
     c_bands:  3 eigenvalues not converged
     c_bands:  4 eigenvalues not converged
     c_bands:  1 eigenvalues not converged
     c_bands:  2 eigenvalues not converged
     c_bands:  2 eigenvalues not converged
     c_bands:  3 eigenvalues not converged
     c_bands:  3 eigenvalues not converged
     c_bands:  3 eigenvalues not converged
     c_bands:  3 eigenvalues not converged
     c_bands:  4 eigenvalues not converged
     c_bands:  2 eigenvalues not converged
     c_bands:  3 eigenvalues not converged
     c_bands:  1 eigenvalues not converged
     c_bands:  2 eigenvalues not converged
     c_bands:  3 eigenvalues not converged
     c_bands:  4 eigenvalues not converged
     c_bands:  3 eigenvalues not converged
     c_bands:  3 eigenvalues not converged
     c_bands:  2 eigenvalues not converged
     c_bands:  3 eigenvalues not converged
     c_bands:  1 eigenvalues not converged
     c_bands:  2 eigenvalues not converged
     c_bands:  2 eigenvalues not converged
     c_bands:  2 eigenvalues not converged
     c_bands:  2 eigenvalues not converged
     c_bands:  2 eigenvalues not converged
     c_bands:  1 eigenvalues not converged
     c_bands:  4 eigenvalues not converged
     c_bands:  2 eigenvalues not converged
     c_bands:  2 eigenvalues not converged
     c_bands:  2 eigenvalues not converged
     c_bands:  2 eigenvalues not converged
     c_bands:  1 eigenvalues not converged
     c_bands:  3 eigenvalues not converged
     c_bands:  2 eigenvalues not converged
     c_bands:  5 eigenvalues not converged
     c_bands:  3 eigenvalues not converged
     c_bands:  4 eigenvalues not converged
     c_bands:  2 eigenvalues not converged
     c_bands:  2 eigenvalues not converged
     c_bands:  3 eigenvalues not converged
     c_bands:  2 eigenvalues not converged
     c_bands:  3 eigenvalues not converged
     c_bands:  4 eigenvalues not converged
     c_bands:  3 eigenvalues not converged
     c_bands:  5 eigenvalues not converged
     c_bands:  3 eigenvalues not converged
     c_bands:  4 eigenvalues not converged
     c_bands:  4 eigenvalues not converged
     c_bands:  3 eigenvalues not converged
     c_bands:  4 eigenvalues not converged
     c_bands:  2 eigenvalues not converged
     c_bands:  1 eigenvalues not converged
     c_bands:  2 eigenvalues not converged
     c_bands:  2 eigenvalues not converged
     c_bands:  1 eigenvalues not converged
     c_bands:  2 eigenvalues not converged
     c_bands:  1 eigenvalues not converged
     c_bands:  2 eigenvalues not converged
     c_bands:  4 eigenvalues not converged
     c_bands:  4 eigenvalues not converged
     c_bands:  4 eigenvalues not converged
     c_bands:  2 eigenvalues not converged
     c_bands:  4 eigenvalues not converged
     c_bands:  5 eigenvalues not converged
     c_bands:  3 eigenvalues not converged
     c_bands:  1 eigenvalues not converged
     c_bands:  3 eigenvalues not converged
     c_bands:  2 eigenvalues not converged
     c_bands:  2 eigenvalues not converged
     c_bands:  3 eigenvalues not converged
     c_bands:  3 eigenvalues not converged
     c_bands:  4 eigenvalues not converged
     c_bands:  2 eigenvalues not converged
     c_bands:  2 eigenvalues not converged
     c_bands:  1 eigenvalues not converged
     c_bands:  1 eigenvalues not converged
     c_bands:  1 eigenvalues not converged
     c_bands:  2 eigenvalues not converged
     c_bands:  4 eigenvalues not converged
     c_bands:  1 eigenvalues not converged
     c_bands:  2 eigenvalues not converged
     c_bands:  3 eigenvalues not converged
     c_bands:  4 eigenvalues not converged
     c_bands:  3 eigenvalues not converged
     c_bands:  1 eigenvalues not converged
     c_bands:  3 eigenvalues not converged
     c_bands:  3 eigenvalues not converged
     c_bands:  3 eigenvalues not converged
     c_bands:  2 eigenvalues not converged
     c_bands:  2 eigenvalues not converged
     c_bands:  2 eigenvalues not converged
     c_bands:  2 eigenvalues not converged
     c_bands:  1 eigenvalues not converged
     c_bands:  2 eigenvalues not converged
     c_bands:  1 eigenvalues not converged
     c_bands:  4 eigenvalues not converged
     c_bands:  5 eigenvalues not converged
     c_bands:  3 eigenvalues not converged
     c_bands:  2 eigenvalues not converged
     c_bands:  3 eigenvalues not converged
     c_bands:  5 eigenvalues not converged
     c_bands:  3 eigenvalues not converged
     c_bands:  4 eigenvalues not converged
     c_bands:  3 eigenvalues not converged
     c_bands:  3 eigenvalues not converged
     c_bands:  2 eigenvalues not converged
     c_bands:  1 eigenvalues not converged
     c_bands:  1 eigenvalues not converged
     c_bands:  3 eigenvalues not converged
     c_bands:  3 eigenvalues not converged
     c_bands:  3 eigenvalues not converged
     c_bands:  1 eigenvalues not converged
     c_bands:  1 eigenvalues not converged
     c_bands:  1 eigenvalues not converged
     c_bands:  2 eigenvalues not converged
     c_bands:  3 eigenvalues not converged
     c_bands:  2 eigenvalues not converged
     c_bands:  4 eigenvalues not converged
     c_bands:  2 eigenvalues not converged
     c_bands:  2 eigenvalues not converged
     c_bands:  1 eigenvalues not converged
     c_bands:  1 eigenvalues not converged
     c_bands:  1 eigenvalues not converged
     c_bands:  1 eigenvalues not converged
     c_bands:  3 eigenvalues not converged
     c_bands:  4 eigenvalues not converged
     c_bands:  4 eigenvalues not converged
     c_bands:  5 eigenvalues not converged
     c_bands:  5 eigenvalues not converged
     c_bands:  4 eigenvalues not converged
     c_bands:  4 eigenvalues not converged
     c_bands:  3 eigenvalues not converged
     c_bands:  2 eigenvalues not converged
     c_bands:  4 eigenvalues not converged
     c_bands:  4 eigenvalues not converged
     c_bands:  4 eigenvalues not converged
     c_bands:  3 eigenvalues not converged
     c_bands:  3 eigenvalues not converged
     c_bands:  3 eigenvalues not converged
     c_bands:  3 eigenvalues not converged
     c_bands:  3 eigenvalues not converged
     c_bands:  1 eigenvalues not converged
     c_bands:  2 eigenvalues not converged
     c_bands:  1 eigenvalues not converged
     c_bands:  4 eigenvalues not converged
     c_bands:  1 eigenvalues not converged
     c_bands:  3 eigenvalues not converged
     c_bands:  3 eigenvalues not converged
     c_bands:  1 eigenvalues not converged
     c_bands:  1 eigenvalues not converged
     c_bands:  1 eigenvalues not converged
     c_bands:  2 eigenvalues not converged
     c_bands:  2 eigenvalues not converged
     c_bands:  2 eigenvalues not converged
     c_bands:  1 eigenvalues not converged
     c_bands:  5 eigenvalues not converged
     c_bands:  4 eigenvalues not converged
     c_bands:  5 eigenvalues not converged
     c_bands:  1 eigenvalues not converged
     c_bands:  2 eigenvalues not converged
     c_bands:  1 eigenvalues not converged
     c_bands:  1 eigenvalues not converged
     c_bands:  3 eigenvalues not converged
     c_bands:  2 eigenvalues not converged
     c_bands:  3 eigenvalues not converged
     c_bands:  4 eigenvalues not converged
     c_bands:  3 eigenvalues not converged
     c_bands:  1 eigenvalues not converged
     c_bands:  2 eigenvalues not converged
     c_bands:  2 eigenvalues not converged
     c_bands:  3 eigenvalues not converged
     c_bands:  3 eigenvalues not converged
     c_bands:  3 eigenvalues not converged
     c_bands:  2 eigenvalues not converged
     c_bands:  3 eigenvalues not converged
     c_bands:  3 eigenvalues not converged
     c_bands:  3 eigenvalues not converged
     c_bands:  1 eigenvalues not converged
     c_bands:  3 eigenvalues not converged
     c_bands:  3 eigenvalues not converged
     c_bands:  2 eigenvalues not converged
     c_bands:  2 eigenvalues not converged
     c_bands:  2 eigenvalues not converged
     c_bands:  2 eigenvalues not converged
     c_bands:  2 eigenvalues not converged
     c_bands:  1 eigenvalues not converged
     c_bands:  1 eigenvalues not converged
     c_bands:  2 eigenvalues not converged
     c_bands:  1 eigenvalues not converged
     c_bands:  2 eigenvalues not converged
     c_bands:  1 eigenvalues not converged
     c_bands:  4 eigenvalues not converged
     c_bands:  1 eigenvalues not converged
     c_bands:  2 eigenvalues not converged
     c_bands:  1 eigenvalues not converged
     c_bands:  3 eigenvalues not converged
     c_bands:  3 eigenvalues not converged
     c_bands:  4 eigenvalues not converged
     c_bands:  4 eigenvalues not converged
     c_bands:  3 eigenvalues not converged
     c_bands:  3 eigenvalues not converged
     c_bands:  3 eigenvalues not converged
     c_bands:  3 eigenvalues not converged
     c_bands:  4 eigenvalues not converged
     c_bands:  4 eigenvalues not converged
     c_bands:  5 eigenvalues not converged
     c_bands:  3 eigenvalues not converged
     c_bands:  3 eigenvalues not converged
     c_bands:  5 eigenvalues not converged
     c_bands:  4 eigenvalues not converged
     c_bands:  3 eigenvalues not converged
     c_bands:  3 eigenvalues not converged
     c_bands:  2 eigenvalues not converged
     c_bands:  2 eigenvalues not converged
     ethr =  1.00E-06,  avg # of iterations = 22.2

     negative rho (up, down):  0.000E+00 2.704E-04

     total cpu time spent up to now is    12239.6 secs

     total energy              =  -10920.94853716 Ry
     estimated scf accuracy    <      60.76202143 Ry

     total magnetization       =    -0.23 Bohr mag/cell
     absolute magnetization    =    33.97 Bohr mag/cell

     iteration #  2     ecut=    71.00 Ry     beta= 0.30
     Davidson diagonalization with overlap
     ethr =  1.00E-02,  avg # of iterations =  3.1

     negative rho (up, down):  0.000E+00 3.062E-05

     total cpu time spent up to now is    12651.5 secs

     total energy              =  -10945.97645857 Ry
     estimated scf accuracy    <      92.78943737 Ry

     total magnetization       =    -0.94 Bohr mag/cell
     absolute magnetization    =    38.48 Bohr mag/cell

     iteration #  3     ecut=    71.00 Ry     beta= 0.30
     Davidson diagonalization with overlap
     ethr =  1.00E-02,  avg # of iterations =  1.1

     total cpu time spent up to now is    12895.8 secs

     total energy              =  -10946.26651105 Ry
     estimated scf accuracy    <      21.38894538 Ry

     total magnetization       =    -0.17 Bohr mag/cell
     absolute magnetization    =    42.85 Bohr mag/cell

     iteration #  4     ecut=    71.00 Ry     beta= 0.30
     Davidson diagonalization with overlap
     ethr =  4.18E-03,  avg # of iterations =  1.4

     total cpu time spent up to now is    13147.5 secs

     total energy              =  -10946.18913384 Ry
     estimated scf accuracy    <       9.43703936 Ry

     total magnetization       =    -0.44 Bohr mag/cell
     absolute magnetization    =    44.26 Bohr mag/cell

     iteration #  5     ecut=    71.00 Ry     beta= 0.30
     Davidson diagonalization with overlap
     ethr =  1.84E-03,  avg # of iterations =  1.5

     total cpu time spent up to now is    13400.0 secs

     total energy              =  -10946.17891617 Ry
     estimated scf accuracy    <       3.86461992 Ry

     total magnetization       =    -0.27 Bohr mag/cell
     absolute magnetization    =    44.86 Bohr mag/cell

     iteration #  6     ecut=    71.00 Ry     beta= 0.30
     Davidson diagonalization with overlap
     ethr =  7.55E-04,  avg # of iterations =  1.5

     total cpu time spent up to now is    13649.7 secs

     total energy              =  -10945.93344509 Ry
     estimated scf accuracy    <       3.17733185 Ry

     total magnetization       =    -0.22 Bohr mag/cell
     absolute magnetization    =    44.95 Bohr mag/cell

     iteration #  7     ecut=    71.00 Ry     beta= 0.30
     Davidson diagonalization with overlap
     ethr =  6.21E-04,  avg # of iterations =  1.2

     total cpu time spent up to now is    13895.4 secs

     total energy              =  -10945.62273886 Ry
     estimated scf accuracy    <       1.64127568 Ry

     total magnetization       =    -0.22 Bohr mag/cell
     absolute magnetization    =    45.34 Bohr mag/cell

     iteration #  8     ecut=    71.00 Ry     beta= 0.30
     Davidson diagonalization with overlap
     ethr =  3.21E-04,  avg # of iterations =  2.2

     total cpu time spent up to now is    14196.8 secs

     total energy              =  -10945.79669206 Ry
     estimated scf accuracy    <       0.02945332 Ry

     total magnetization       =    -0.18 Bohr mag/cell
     absolute magnetization    =    46.43 Bohr mag/cell

     iteration #  9     ecut=    71.00 Ry     beta= 0.30
     Davidson diagonalization with overlap
     c_bands:  1 eigenvalues not converged
     c_bands:  2 eigenvalues not converged
     c_bands:  1 eigenvalues not converged
     c_bands:  1 eigenvalues not converged
     c_bands:  1 eigenvalues not converged
     c_bands:  1 eigenvalues not converged
     c_bands:  1 eigenvalues not converged
     c_bands:  2 eigenvalues not converged
     c_bands:  2 eigenvalues not converged
     c_bands:  1 eigenvalues not converged
     c_bands:  1 eigenvalues not converged
     c_bands:  1 eigenvalues not converged
     c_bands:  1 eigenvalues not converged
     c_bands:  1 eigenvalues not converged
     c_bands:  1 eigenvalues not converged
     c_bands:  1 eigenvalues not converged
     c_bands:  1 eigenvalues not converged
     c_bands:  1 eigenvalues not converged
     c_bands:  2 eigenvalues not converged
     c_bands:  1 eigenvalues not converged
     c_bands:  2 eigenvalues not converged
     c_bands:  3 eigenvalues not converged
     c_bands:  1 eigenvalues not converged
     c_bands:  1 eigenvalues not converged
     c_bands:  1 eigenvalues not converged
     c_bands:  1 eigenvalues not converged
     c_bands:  1 eigenvalues not converged
     c_bands:  1 eigenvalues not converged
     ethr =  5.75E-06,  avg # of iterations = 14.0

     total cpu time spent up to now is    14716.2 secs

     total energy              =  -10945.81571178 Ry
     estimated scf accuracy    <       0.04963859 Ry

     total magnetization       =    -0.14 Bohr mag/cell
     absolute magnetization    =    46.99 Bohr mag/cell

     iteration # 10     ecut=    71.00 Ry     beta= 0.30
     Davidson diagonalization with overlap
     ethr =  5.75E-06,  avg # of iterations =  1.3

     total cpu time spent up to now is    14962.2 secs

     total energy              =  -10945.78319463 Ry
     estimated scf accuracy    <       0.09170884 Ry

     total magnetization       =    -0.15 Bohr mag/cell
     absolute magnetization    =    47.26 Bohr mag/cell

     iteration # 11     ecut=    71.00 Ry     beta= 0.30
     Davidson diagonalization with overlap
     c_bands:  1 eigenvalues not converged
     ethr =  5.75E-06,  avg # of iterations =  4.7

     total cpu time spent up to now is    15408.4 secs

     total energy              =  -10945.80463921 Ry
     estimated scf accuracy    <       0.01990478 Ry

     total magnetization       =    -0.16 Bohr mag/cell
     absolute magnetization    =    48.09 Bohr mag/cell

     iteration # 12     ecut=    71.00 Ry     beta= 0.30
     Davidson diagonalization with overlap
     ethr =  3.89E-06,  avg # of iterations =  1.3

     total cpu time spent up to now is    15656.4 secs

     total energy              =  -10945.80245405 Ry
     estimated scf accuracy    <       0.01127249 Ry

     total magnetization       =    -0.15 Bohr mag/cell
     absolute magnetization    =    48.23 Bohr mag/cell

     iteration # 13     ecut=    71.00 Ry     beta= 0.30
     Davidson diagonalization with overlap
     ethr =  2.20E-06,  avg # of iterations =  2.5

     total cpu time spent up to now is    15973.5 secs

     total energy              =  -10945.80432456 Ry
     estimated scf accuracy    <       0.00103332 Ry

     total magnetization       =    -0.15 Bohr mag/cell
     absolute magnetization    =    48.26 Bohr mag/cell

     iteration # 14     ecut=    71.00 Ry     beta= 0.30
     Davidson diagonalization with overlap
     c_bands:  1 eigenvalues not converged
     ethr =  2.02E-07,  avg # of iterations =  2.1

     negative rho (up, down):  0.000E+00 1.961E-06

     total cpu time spent up to now is    16282.9 secs

     total energy              =  -10945.80465247 Ry
     estimated scf accuracy    <       0.00049901 Ry

     total magnetization       =    -0.16 Bohr mag/cell
     absolute magnetization    =    48.53 Bohr mag/cell

     iteration # 15     ecut=    71.00 Ry     beta= 0.30
     Davidson diagonalization with overlap
     ethr =  9.75E-08,  avg # of iterations =  4.3

     negative rho (up, down):  0.000E+00 3.730E-06

     total cpu time spent up to now is    16636.0 secs

     total energy              =  -10945.80477814 Ry
     estimated scf accuracy    <       0.00120166 Ry

     total magnetization       =    -0.15 Bohr mag/cell
     absolute magnetization    =    49.02 Bohr mag/cell

     iteration # 16     ecut=    71.00 Ry     beta= 0.30
     Davidson diagonalization with overlap
     ethr =  9.75E-08,  avg # of iterations =  3.6

     negative rho (up, down):  0.000E+00 3.861E-06

     total cpu time spent up to now is    16969.2 secs

     total energy              =  -10945.80490621 Ry
     estimated scf accuracy    <       0.00009859 Ry

     total magnetization       =    -0.15 Bohr mag/cell
     absolute magnetization    =    49.20 Bohr mag/cell

     iteration # 17     ecut=    71.00 Ry     beta= 0.30
     Davidson diagonalization with overlap
     ethr =  1.93E-08,  avg # of iterations =  4.2

     negative rho (up, down):  0.000E+00 6.925E-06

     total cpu time spent up to now is    17317.1 secs

     total energy              =  -10945.80490988 Ry
     estimated scf accuracy    <       0.00005286 Ry

     total magnetization       =    -0.15 Bohr mag/cell
     absolute magnetization    =    49.16 Bohr mag/cell

     iteration # 18     ecut=    71.00 Ry     beta= 0.30
     Davidson diagonalization with overlap
     ethr =  1.03E-08,  avg # of iterations =  3.6

     negative rho (up, down):  0.000E+00 7.180E-06

     total cpu time spent up to now is    17649.9 secs

     total energy              =  -10945.80494179 Ry
     estimated scf accuracy    <       0.00001524 Ry

     total magnetization       =    -0.15 Bohr mag/cell
     absolute magnetization    =    49.31 Bohr mag/cell

     iteration # 19     ecut=    71.00 Ry     beta= 0.30
     Davidson diagonalization with overlap
     ethr =  2.98E-09,  avg # of iterations =  2.7

     negative rho (up, down):  0.000E+00 7.198E-06

     total cpu time spent up to now is    17965.0 secs

     total energy              =  -10945.80494380 Ry
     estimated scf accuracy    <       0.00000576 Ry

     total magnetization       =    -0.15 Bohr mag/cell
     absolute magnetization    =    49.32 Bohr mag/cell

     iteration # 20     ecut=    71.00 Ry     beta= 0.30
     Davidson diagonalization with overlap
     ethr =  1.13E-09,  avg # of iterations =  3.6

     negative rho (up, down):  0.000E+00 6.767E-06

     total cpu time spent up to now is    18259.6 secs

     total energy              =  -10945.80494466 Ry
     estimated scf accuracy    <       0.00000296 Ry

     total magnetization       =    -0.15 Bohr mag/cell
     absolute magnetization    =    49.34 Bohr mag/cell

     iteration # 21     ecut=    71.00 Ry     beta= 0.30
     Davidson diagonalization with overlap
     ethr =  5.78E-10,  avg # of iterations =  2.5

     negative rho (up, down):  0.000E+00 6.149E-06

     total cpu time spent up to now is    18574.2 secs

     total energy              =  -10945.80494582 Ry
     estimated scf accuracy    <       0.00000177 Ry

     total magnetization       =    -0.15 Bohr mag/cell
     absolute magnetization    =    49.33 Bohr mag/cell

     iteration # 22     ecut=    71.00 Ry     beta= 0.30
     Davidson diagonalization with overlap
     ethr =  3.46E-10,  avg # of iterations =  4.7

     negative rho (up, down):  0.000E+00 5.953E-06

     total cpu time spent up to now is    18934.0 secs

     total energy              =  -10945.80494610 Ry
     estimated scf accuracy    <       0.00000279 Ry

     total magnetization       =    -0.15 Bohr mag/cell
     absolute magnetization    =    49.33 Bohr mag/cell

     iteration # 23     ecut=    71.00 Ry     beta= 0.30
     Davidson diagonalization with overlap
     ethr =  3.46E-10,  avg # of iterations =  3.2

     negative rho (up, down):  0.000E+00 5.770E-06

     total cpu time spent up to now is    19259.2 secs

     total energy              =  -10945.80494675 Ry
     estimated scf accuracy    <       0.00000054 Ry

     total magnetization       =    -0.15 Bohr mag/cell
     absolute magnetization    =    49.33 Bohr mag/cell

     iteration # 24     ecut=    71.00 Ry     beta= 0.30
     Davidson diagonalization with overlap
     ethr =  1.05E-10,  avg # of iterations =  3.9

     negative rho (up, down):  0.000E+00 5.581E-06

     total cpu time spent up to now is    19593.4 secs

     total energy              =  -10945.80494686 Ry
     estimated scf accuracy    <       0.00000045 Ry

     total magnetization       =    -0.15 Bohr mag/cell
     absolute magnetization    =    49.33 Bohr mag/cell

     iteration # 25     ecut=    71.00 Ry     beta= 0.30
     Davidson diagonalization with overlap
     ethr =  8.82E-11,  avg # of iterations =  2.7

     negative rho (up, down):  0.000E+00 5.407E-06

     total cpu time spent up to now is    19910.5 secs

     total energy              =  -10945.80494701 Ry
     estimated scf accuracy    <       0.00000020 Ry

     total magnetization       =    -0.15 Bohr mag/cell
     absolute magnetization    =    49.34 Bohr mag/cell

     iteration # 26     ecut=    71.00 Ry     beta= 0.30
     Davidson diagonalization with overlap
     ethr =  3.91E-11,  avg # of iterations =  4.7

     negative rho (up, down):  0.000E+00 5.270E-06

     total cpu time spent up to now is    20278.7 secs

     total energy              =  -10945.80494710 Ry
     estimated scf accuracy    <       0.00000026 Ry

     total magnetization       =    -0.15 Bohr mag/cell
     absolute magnetization    =    49.34 Bohr mag/cell

     iteration # 27     ecut=    71.00 Ry     beta= 0.30
     Davidson diagonalization with overlap
     ethr =  3.91E-11,  avg # of iterations =  2.0

     negative rho (up, down):  0.000E+00 5.197E-06

     total cpu time spent up to now is    20586.7 secs

     total energy              =  -10945.80494717 Ry
     estimated scf accuracy    <       0.00000006 Ry

     total magnetization       =    -0.15 Bohr mag/cell
     absolute magnetization    =    49.34 Bohr mag/cell

     iteration # 28     ecut=    71.00 Ry     beta= 0.30
     Davidson diagonalization with overlap
     ethr =  1.19E-11,  avg # of iterations =  4.3

     negative rho (up, down):  0.000E+00 5.136E-06

     total cpu time spent up to now is    20931.5 secs

     total energy              =  -10945.80494720 Ry
     estimated scf accuracy    <       0.00000006 Ry

     total magnetization       =    -0.15 Bohr mag/cell
     absolute magnetization    =    49.34 Bohr mag/cell

     iteration # 29     ecut=    71.00 Ry     beta= 0.30
     Davidson diagonalization with overlap
     ethr =  1.19E-11,  avg # of iterations =  2.0

     negative rho (up, down):  0.000E+00 5.071E-06

     total cpu time spent up to now is    21223.6 secs

     total energy              =  -10945.80494721 Ry
     estimated scf accuracy    <       0.00000003 Ry

     total magnetization       =    -0.15 Bohr mag/cell
     absolute magnetization    =    49.34 Bohr mag/cell

     iteration # 30     ecut=    71.00 Ry     beta= 0.30
     Davidson diagonalization with overlap
     ethr =  5.41E-12,  avg # of iterations =  3.0

     negative rho (up, down):  0.000E+00 5.056E-06
 
     Magnetic moment per site:
     atom:    1    charge:   13.0949    magn:    0.1727    constr:    0.0000
     atom:    2    charge:   13.1117    magn:   -0.1805    constr:    0.0000
     atom:    3    charge:   13.1116    magn:    0.1901    constr:    0.0000
     atom:    4    charge:   13.1117    magn:   -0.1805    constr:    0.0000
     atom:    5    charge:   14.2501    magn:    1.6899    constr:    0.0000
     atom:    6    charge:   14.3545    magn:   -1.6554    constr:    0.0000
     atom:    7    charge:   14.2462    magn:    1.7115    constr:    0.0000
     atom:    8    charge:   14.3400    magn:   -1.7202    constr:    0.0000
     atom:    9    charge:   14.2487    magn:    1.5875    constr:    0.0000
     atom:   10    charge:   14.3356    magn:   -1.6403    constr:    0.0000
     atom:   11    charge:   14.2540    magn:    1.5645    constr:    0.0000
     atom:   12    charge:   14.3356    magn:   -1.6403    constr:    0.0000
     atom:   13    charge:   14.2579    magn:    1.5265    constr:    0.0000
     atom:   14    charge:   14.3504    magn:   -1.5651    constr:    0.0000
     atom:   15    charge:   14.2548    magn:    1.5548    constr:    0.0000
     atom:   16    charge:   14.3364    magn:   -1.6337    constr:    0.0000
     atom:   17    charge:   14.2501    magn:    1.6899    constr:    0.0000
     atom:   18    charge:   14.3400    magn:   -1.7202    constr:    0.0000
     atom:   19    charge:   14.2462    magn:    1.7115    constr:    0.0000
     atom:   20    charge:   14.3545    magn:   -1.6554    constr:    0.0000
     atom:   21    charge:   14.2741    magn:    1.7420    constr:    0.0000
     atom:   22    charge:   14.3587    magn:   -1.7530    constr:    0.0000
     atom:   23    charge:   14.2504    magn:    1.8016    constr:    0.0000
     atom:   24    charge:   14.3587    magn:   -1.7530    constr:    0.0000
     atom:   25    charge:   14.2579    magn:    1.5265    constr:    0.0000
     atom:   26    charge:   14.3364    magn:   -1.6337    constr:    0.0000
     atom:   27    charge:   14.2548    magn:    1.5548    constr:    0.0000
     atom:   28    charge:   14.3504    magn:   -1.5651    constr:    0.0000
     atom:   29    charge:   14.2359    magn:    1.6896    constr:    0.0000
     atom:   30    charge:   14.3317    magn:   -1.6725    constr:    0.0000
     atom:   31    charge:   14.2366    magn:    1.6684    constr:    0.0000
     atom:   32    charge:   14.3317    magn:   -1.6725    constr:    0.0000

     total cpu time spent up to now is    21540.7 secs

     End of self-consistent calculation

     Number of k-points >= 100: set verbosity='high' to print the bands.

     the Fermi energy is    20.0289 ev

!    total energy              =  -10945.80494722 Ry

     total all-electron energy =   -107524.156665 Ry
     estimated scf accuracy    <          9.1E-09 Ry
     smearing contrib. (-TS)   =       0.00306819 Ry
     internal energy E=F+TS    =  -10945.80801541 Ry

     The total energy is F=E-TS. E is the sum of the following terms:
     one-electron contribution =   -3113.22519180 Ry
     hartree contribution      =    1906.69596703 Ry
     xc contribution           =    -891.92863720 Ry
     ewald contribution        =   -5580.33310405 Ry
     one-center paw contrib.   =   -3267.01704939 Ry

     total magnetization       =    -0.15 Bohr mag/cell
     absolute magnetization    =    49.33 Bohr mag/cell

     convergence has been achieved in  30 iterations

     negative rho (up, down):  0.000E+00 5.056E-06

     Forces acting on atoms (cartesian axes, Ry/au):

     atom    1 type  3   force =    -0.01706446   -0.01201062   -0.01706446
     atom    2 type  3   force =     0.00900141    0.00403660   -0.01541707
     atom    3 type  3   force =     0.00273546   -0.01082143    0.00273546
     atom    4 type  3   force =    -0.01541707    0.00403660    0.00900141
     atom    5 type  1   force =    -0.01109767   -0.00522583    0.01178503
     atom    6 type  2   force =     0.01090957    0.00506164    0.01146037
     atom    7 type  1   force =    -0.00012915   -0.00486311    0.00013252
     atom    8 type  2   force =    -0.01065950   -0.00110859   -0.00619378
     atom    9 type  1   force =    -0.00427546    0.00849139   -0.00427546
     atom   10 type  2   force =    -0.00058532   -0.00214664   -0.00421295
     atom   11 type  1   force =     0.00376278    0.00818303    0.00376278
     atom   12 type  2   force =    -0.00421295   -0.00214664   -0.00058532
     atom   13 type  1   force =    -0.00230184    0.00780168    0.00578438
     atom   14 type  2   force =     0.00178858   -0.00748052    0.00553348
     atom   15 type  1   force =     0.00187202    0.00771030   -0.00506053
     atom   16 type  2   force =    -0.00220769   -0.00096247   -0.00010541
     atom   17 type  1   force =     0.01178503   -0.00522583   -0.01109767
     atom   18 type  2   force =    -0.00619378   -0.00110859   -0.01065950
     atom   19 type  1   force =     0.00013252   -0.00486311   -0.00012915
     atom   20 type  2   force =     0.01146037    0.00506164    0.01090957
     atom   21 type  1   force =     0.01268263   -0.00108534    0.01268263
     atom   22 type  2   force =    -0.01218678    0.00114209    0.01257197
     atom   23 type  1   force =     0.00009843   -0.00113382    0.00009843
     atom   24 type  2   force =     0.01257197    0.00114209   -0.01218678
     atom   25 type  1   force =     0.00578438    0.00780168   -0.00230184
     atom   26 type  2   force =    -0.00010541   -0.00096247   -0.00220769
     atom   27 type  1   force =    -0.00506053    0.00771030    0.00187202
     atom   28 type  2   force =     0.00553348   -0.00748052    0.00178858
     atom   29 type  1   force =     0.00234073    0.00152142    0.00234073
     atom   30 type  2   force =    -0.00164160   -0.00135826    0.00237839
     atom   31 type  1   force =    -0.00169857    0.00164160   -0.00169857
     atom   32 type  2   force =     0.00237839   -0.00135826   -0.00164160

     Total force =     0.069370     Total SCF correction =     0.000253


     Computing stress (Cartesian axis) and pressure


     negative rho (up, down):  0.000E+00 5.056E-06
          total   stress  (Ry/bohr**3)                   (kbar)     P=      -23.30
  -0.00017396  -0.00000093   0.00000009          -25.59       -0.14        0.01
  -0.00000093  -0.00012728  -0.00000093           -0.14      -18.72       -0.14
   0.00000009  -0.00000093  -0.00017396            0.01       -0.14      -25.59

     Energy error            =      5.3E-02
     Gradient error          =      1.7E-02
     Cell gradient error     =      1.7E-04


     number of scf cycles    =   2
     number of bfgs steps    =   1

     enthalpy old            =  -10945.7521707461 Ry
     enthalpy new            =  -10945.8049472210 Ry

     CASE: enthalpy_new < enthalpy_old

     new trust radius        =       0.0324376407 bohr
     new conv_thr            =       0.0000000017 Ry

     new unit-cell volume =   2414.91236 a.u.^3 (   357.85309 Ang^3 )
     density =      9.13180 g/cm^3

CELL_PARAMETERS (alat= 13.00000000)
   1.016045223   0.000015589  -0.000020031
   0.000016326   1.064744099   0.000016326
  -0.000020031   0.000015589   1.016045223

ATOMIC_POSITIONS (crystal)
Ru           -0.0056505267       -0.0040996813       -0.0056505267
Ru            0.2562197607        0.2548134268       -0.0055381424
Ru            0.2570029692       -0.0036875379        0.2570029692
Ru           -0.0055381424        0.2548134268        0.2562197607
Fe1          -0.0027030461       -0.0012670726        0.5034098819
Fe2           0.2530023271        0.2518489085        0.5034888930
Fe1           0.2550100448       -0.0011007004        0.7444498245
Fe2          -0.0024777705        0.2525245666        0.7455658520
Fe1          -0.0012817241        0.5024030276       -0.0012817241
Fe2           0.2524967776        0.7463838864       -0.0011775614
Fe1           0.2515526909        0.5023849929        0.2515526909
Fe2          -0.0011775614        0.7463838864        0.2524967776
Fe1          -0.0003694033        0.5016784414        0.5015615808
Fe2           0.2506033993        0.7478274215        0.5014783404
Fe1           0.2506364865        0.5015803384        0.7482950365
Fe2          -0.0003324181        0.7471942673        0.7474040503
Fe1           0.5034098819       -0.0012670726       -0.0027030461
Fe2           0.7455658520        0.2525245666       -0.0024777705
Fe1           0.7444498245       -0.0011007004        0.2550100448
Fe2           0.5034888930        0.2518489085        0.2530023271
Fe1           0.5030756835       -0.0000454883        0.5030756835
Fe2           0.7469019106        0.2506211649        0.5028314374
Fe1           0.7450470008       -0.0000439795        0.7450470008
Fe2           0.5028314374        0.2506211649        0.7469019106
Fe1           0.5015615808        0.5016784414       -0.0003694033
Fe2           0.7474040503        0.7471942673       -0.0003324181
Fe1           0.7482950365        0.5015803384        0.2506364865
Fe2           0.5014783404        0.7478274215        0.2506033993
Fe1           0.5003640438        0.5000728365        0.5003640438
Fe2           0.7494029908        0.7493598490        0.5003611854
Fe1           0.7493684249        0.5000868341        0.7493684249
Fe2           0.5003611854        0.7493598490        0.7494029908



     Writing output data file /scratch/bxp912/feru_relax_2.save/
     NEW-OLD atomic charge density approx. for the potential

     Check: negative core charge=   -0.000006

     negative rho (up, down):  0.000E+00 9.152E-06
     extrapolated charge  507.94157, renormalised to  512.00000
     Generating pointlists ...

     total cpu time spent up to now is    21849.9 secs

     Self-consistent Calculation

     iteration #  1     ecut=    71.00 Ry     beta= 0.30
     Davidson diagonalization with overlap
     c_bands:  1 eigenvalues not converged
     c_bands:  1 eigenvalues not converged
     c_bands:  1 eigenvalues not converged
     c_bands:  1 eigenvalues not converged
     c_bands:  1 eigenvalues not converged
     c_bands:  1 eigenvalues not converged
     c_bands:  1 eigenvalues not converged
     c_bands:  1 eigenvalues not converged
     c_bands:  1 eigenvalues not converged
     c_bands:  1 eigenvalues not converged
     c_bands:  1 eigenvalues not converged
     c_bands:  1 eigenvalues not converged
     c_bands:  1 eigenvalues not converged
     c_bands:  1 eigenvalues not converged
     c_bands:  1 eigenvalues not converged
     c_bands:  1 eigenvalues not converged
     c_bands:  1 eigenvalues not converged
     c_bands:  1 eigenvalues not converged
     c_bands:  1 eigenvalues not converged
     c_bands:  1 eigenvalues not converged
     c_bands:  1 eigenvalues not converged
     c_bands:  1 eigenvalues not converged
     c_bands:  1 eigenvalues not converged
     c_bands:  1 eigenvalues not converged
     c_bands:  1 eigenvalues not converged
     c_bands:  2 eigenvalues not converged
     c_bands:  1 eigenvalues not converged
     c_bands:  1 eigenvalues not converged
     c_bands:  1 eigenvalues not converged
     c_bands:  1 eigenvalues not converged
     c_bands:  1 eigenvalues not converged
     ethr =  1.00E-06,  avg # of iterations = 11.4

     total cpu time spent up to now is    22817.4 secs

     total energy              =  -10944.71962332 Ry
     estimated scf accuracy    <       4.15570310 Ry

     total magnetization       =    -0.15 Bohr mag/cell
     absolute magnetization    =    48.65 Bohr mag/cell

     iteration #  2     ecut=    71.00 Ry     beta= 0.30
     Davidson diagonalization with overlap
     ethr =  8.12E-04,  avg # of iterations =  2.7

     total cpu time spent up to now is    23135.4 secs

     total energy              =  -10945.84881307 Ry
     estimated scf accuracy    <       3.10228567 Ry

     total magnetization       =    -0.13 Bohr mag/cell
     absolute magnetization    =    48.68 Bohr mag/cell

     iteration #  3     ecut=    71.00 Ry     beta= 0.30
     Davidson diagonalization with overlap
     ethr =  6.06E-04,  avg # of iterations =  1.0

     total cpu time spent up to now is    23375.3 secs

     total energy              =  -10945.85386632 Ry
     estimated scf accuracy    <       0.98491184 Ry

     total magnetization       =    -0.14 Bohr mag/cell
     absolute magnetization    =    48.64 Bohr mag/cell

     iteration #  4     ecut=    71.00 Ry     beta= 0.30
     Davidson diagonalization with overlap
     ethr =  1.92E-04,  avg # of iterations =  1.0

     total cpu time spent up to now is    23616.0 secs

     total energy              =  -10945.83296220 Ry
     estimated scf accuracy    <       0.58403077 Ry

     total magnetization       =    -0.13 Bohr mag/cell
     absolute magnetization    =    48.64 Bohr mag/cell

     iteration #  5     ecut=    71.00 Ry     beta= 0.30
     Davidson diagonalization with overlap
     ethr =  1.14E-04,  avg # of iterations =  1.0

     total cpu time spent up to now is    23855.2 secs

     total energy              =  -10945.82299491 Ry
     estimated scf accuracy    <       0.27048313 Ry

     total magnetization       =    -0.13 Bohr mag/cell
     absolute magnetization    =    48.67 Bohr mag/cell

     iteration #  6     ecut=    71.00 Ry     beta= 0.30
     Davidson diagonalization with overlap
     ethr =  5.28E-05,  avg # of iterations =  1.1

     total cpu time spent up to now is    24095.5 secs

     total energy              =  -10945.80733595 Ry
     estimated scf accuracy    <       0.14200039 Ry

     total magnetization       =    -0.13 Bohr mag/cell
     absolute magnetization    =    48.69 Bohr mag/cell

     iteration #  7     ecut=    71.00 Ry     beta= 0.30
     Davidson diagonalization with overlap
     ethr =  2.77E-05,  avg # of iterations =  1.3

     total cpu time spent up to now is    24341.8 secs

     total energy              =  -10945.81081516 Ry
     estimated scf accuracy    <       0.02052947 Ry

     total magnetization       =    -0.12 Bohr mag/cell
     absolute magnetization    =    48.68 Bohr mag/cell

     iteration #  8     ecut=    71.00 Ry     beta= 0.30
     Davidson diagonalization with overlap
     ethr =  4.01E-06,  avg # of iterations =  3.6

     total cpu time spent up to now is    24624.3 secs

     total energy              =  -10945.81093416 Ry
     estimated scf accuracy    <       0.00816211 Ry

     total magnetization       =    -0.12 Bohr mag/cell
     absolute magnetization    =    48.66 Bohr mag/cell

     iteration #  9     ecut=    71.00 Ry     beta= 0.30
     Davidson diagonalization with overlap
     c_bands:  1 eigenvalues not converged
     c_bands:  1 eigenvalues not converged
     c_bands:  1 eigenvalues not converged
     c_bands:  1 eigenvalues not converged
     c_bands:  1 eigenvalues not converged
     c_bands:  1 eigenvalues not converged
     c_bands:  1 eigenvalues not converged
     ethr =  1.59E-06,  avg # of iterations =  4.2

     total cpu time spent up to now is    24929.9 secs

     total energy              =  -10945.81160847 Ry
     estimated scf accuracy    <       0.00104194 Ry

     total magnetization       =    -0.12 Bohr mag/cell
     absolute magnetization    =    48.63 Bohr mag/cell

     iteration # 10     ecut=    71.00 Ry     beta= 0.30
     Davidson diagonalization with overlap
     ethr =  2.04E-07,  avg # of iterations =  3.7

     total cpu time spent up to now is    25224.1 secs

     total energy              =  -10945.81174062 Ry
     estimated scf accuracy    <       0.00054175 Ry

     total magnetization       =    -0.12 Bohr mag/cell
     absolute magnetization    =    48.59 Bohr mag/cell

     iteration # 11     ecut=    71.00 Ry     beta= 0.30
     Davidson diagonalization with overlap
     ethr =  1.06E-07,  avg # of iterations =  1.8

     total cpu time spent up to now is    25484.1 secs

     total energy              =  -10945.81174277 Ry
     estimated scf accuracy    <       0.00039062 Ry

     total magnetization       =    -0.12 Bohr mag/cell
     absolute magnetization    =    48.54 Bohr mag/cell

     iteration # 12     ecut=    71.00 Ry     beta= 0.30
     Davidson diagonalization with overlap
     ethr =  7.63E-08,  avg # of iterations =  2.0

     total cpu time spent up to now is    25758.9 secs

     total energy              =  -10945.81173821 Ry
     estimated scf accuracy    <       0.00017453 Ry

     total magnetization       =    -0.11 Bohr mag/cell
     absolute magnetization    =    48.47 Bohr mag/cell

[...]

     total magnetization       =    -0.04 Bohr mag/cell
     absolute magnetization    =    47.19 Bohr mag/cell

     iteration # 14     ecut=    71.00 Ry     beta= 0.30
     Davidson diagonalization with overlap
     ethr =  2.74E-08,  avg # of iterations =  2.6

     total cpu time spent up to now is    77175.1 secs

     total energy              =  -10945.84128448 Ry
     estimated scf accuracy    <       0.00008385 Ry

     total magnetization       =    -0.03 Bohr mag/cell
     absolute magnetization    =    47.28 Bohr mag/cell

     iteration # 15     ecut=    71.00 Ry     beta= 0.30
     Davidson diagonalization with overlap
     ethr =  1.64E-08,  avg # of iterations =  3.0

     total cpu time spent up to now is    77495.4 secs

     total energy              =  -10945.84131679 Ry
     estimated scf accuracy    <       0.00003393 Ry

     total magnetization       =    -0.02 Bohr mag/cell
     absolute magnetization    =    47.36 Bohr mag/cell

     iteration # 16     ecut=    71.00 Ry     beta= 0.30
     Davidson diagonalization with overlap
     ethr =  6.63E-09,  avg # of iterations =  2.8

     total cpu time spent up to now is    77778.6 secs

     total energy              =  -10945.84132510 Ry
     estimated scf accuracy    <       0.00001940 Ry

     total magnetization       =    -0.02 Bohr mag/cell
     absolute magnetization    =    47.39 Bohr mag/cell

     iteration # 17     ecut=    71.00 Ry     beta= 0.30
     Davidson diagonalization with overlap
     ethr =  3.79E-09,  avg # of iterations =  4.6

     total cpu time spent up to now is    78132.1 secs

     total energy              =  -10945.84133727 Ry
     estimated scf accuracy    <       0.00001080 Ry

     total magnetization       =    -0.02 Bohr mag/cell
     absolute magnetization    =    47.44 Bohr mag/cell

     iteration # 18     ecut=    71.00 Ry     beta= 0.30
     Davidson diagonalization with overlap
     ethr =  2.11E-09,  avg # of iterations =  3.4

     total cpu time spent up to now is    78465.1 secs

     total energy              =  -10945.84134359 Ry
     estimated scf accuracy    <       0.00000574 Ry

     total magnetization       =    -0.01 Bohr mag/cell
     absolute magnetization    =    47.48 Bohr mag/cell

     iteration # 19     ecut=    71.00 Ry     beta= 0.30
     Davidson diagonalization with overlap
     ethr =  1.12E-09,  avg # of iterations =  3.3

     total cpu time spent up to now is    78779.1 secs

     total energy              =  -10945.84134585 Ry
     estimated scf accuracy    <       0.00000320 Ry

     total magnetization       =    -0.01 Bohr mag/cell
     absolute magnetization    =    47.50 Bohr mag/cell

     iteration # 20     ecut=    71.00 Ry     beta= 0.30
     Davidson diagonalization with overlap
     ethr =  6.25E-10,  avg # of iterations =  2.4

     total cpu time spent up to now is    79067.1 secs

     total energy              =  -10945.84134666 Ry
     estimated scf accuracy    <       0.00000208 Ry

     total magnetization       =    -0.01 Bohr mag/cell
     absolute magnetization    =    47.50 Bohr mag/cell

     iteration # 21     ecut=    71.00 Ry     beta= 0.30
     Davidson diagonalization with overlap
     ethr =  4.07E-10,  avg # of iterations =  3.2

     total cpu time spent up to now is    79364.7 secs

     total energy              =  -10945.84134723 Ry
     estimated scf accuracy    <       0.00000078 Ry

     total magnetization       =    -0.01 Bohr mag/cell
     absolute magnetization    =    47.51 Bohr mag/cell

     iteration # 22     ecut=    71.00 Ry     beta= 0.30
     Davidson diagonalization with overlap
     ethr =  1.53E-10,  avg # of iterations =  4.9

     total cpu time spent up to now is    79727.6 secs

     total energy              =  -10945.84134774 Ry
     estimated scf accuracy    <       0.00000049 Ry

     total magnetization       =    -0.01 Bohr mag/cell
     absolute magnetization    =    47.51 Bohr mag/cell

     iteration # 23     ecut=    71.00 Ry     beta= 0.30
     Davidson diagonalization with overlap
     ethr =  9.61E-11,  avg # of iterations =  1.6

     total cpu time spent up to now is    79988.7 secs

     total energy              =  -10945.84134789 Ry
     estimated scf accuracy    <       0.00000026 Ry

     total magnetization       =    -0.01 Bohr mag/cell
     absolute magnetization    =    47.51 Bohr mag/cell

     iteration # 24     ecut=    71.00 Ry     beta= 0.30
     Davidson diagonalization with overlap
     ethr =  5.00E-11,  avg # of iterations =  3.0

     total cpu time spent up to now is    80320.0 secs

     total energy              =  -10945.84134805 Ry
     estimated scf accuracy    <       0.00000016 Ry

     total magnetization       =    -0.00 Bohr mag/cell
     absolute magnetization    =    47.51 Bohr mag/cell

     iteration # 25     ecut=    71.00 Ry     beta= 0.30
     Davidson diagonalization with overlap
     ethr =  3.15E-11,  avg # of iterations =  2.1

     total cpu time spent up to now is    80613.1 secs

     total energy              =  -10945.84134810 Ry
     estimated scf accuracy    <       0.00000009 Ry

     total magnetization       =    -0.00 Bohr mag/cell
     absolute magnetization    =    47.51 Bohr mag/cell

     iteration # 26     ecut=    71.00 Ry     beta= 0.30
     Davidson diagonalization with overlap
     ethr =  1.77E-11,  avg # of iterations =  4.3

     total cpu time spent up to now is    80959.3 secs

     total energy              =  -10945.84134817 Ry
     estimated scf accuracy    <       0.00000005 Ry

     total magnetization       =    -0.00 Bohr mag/cell
     absolute magnetization    =    47.51 Bohr mag/cell

     iteration # 27     ecut=    71.00 Ry     beta= 0.30
     Davidson diagonalization with overlap
     ethr =  9.86E-12,  avg # of iterations =  2.9

     total cpu time spent up to now is    81282.5 secs

     total energy              =  -10945.84134819 Ry
     estimated scf accuracy    <       0.00000003 Ry

     total magnetization       =    -0.00 Bohr mag/cell
     absolute magnetization    =    47.50 Bohr mag/cell

     iteration # 28     ecut=    71.00 Ry     beta= 0.30
     Davidson diagonalization with overlap
     ethr =  5.83E-12,  avg # of iterations =  4.8

     total cpu time spent up to now is    81655.6 secs

     total energy              =  -10945.84134823 Ry
     estimated scf accuracy    <       0.00000001 Ry

     total magnetization       =    -0.00 Bohr mag/cell
     absolute magnetization    =    47.50 Bohr mag/cell

     iteration # 29     ecut=    71.00 Ry     beta= 0.30
     Davidson diagonalization with overlap
     ethr =  2.82E-12,  avg # of iterations =  2.0

     total cpu time spent up to now is    81951.5 secs

     total energy              =  -10945.84134823 Ry
     estimated scf accuracy    <          8.0E-09 Ry

     total magnetization       =    -0.00 Bohr mag/cell
     absolute magnetization    =    47.50 Bohr mag/cell

     iteration # 30     ecut=    71.00 Ry     beta= 0.30
     Davidson diagonalization with overlap
     ethr =  1.56E-12,  avg # of iterations =  2.4

     total cpu time spent up to now is    82272.4 secs

     total energy              =  -10945.84134824 Ry
     estimated scf accuracy    <          3.9E-09 Ry

     total magnetization       =    -0.00 Bohr mag/cell
     absolute magnetization    =    47.50 Bohr mag/cell

     iteration # 31     ecut=    71.00 Ry     beta= 0.30
     Davidson diagonalization with overlap
     ethr =  7.66E-13,  avg # of iterations =  3.2

     total cpu time spent up to now is    82589.0 secs

     total energy              =  -10945.84134824 Ry
     estimated scf accuracy    <          2.8E-09 Ry

     total magnetization       =    -0.00 Bohr mag/cell
     absolute magnetization    =    47.50 Bohr mag/cell

     iteration # 32     ecut=    71.00 Ry     beta= 0.30
     Davidson diagonalization with overlap
     ethr =  5.50E-13,  avg # of iterations =  3.7

     total cpu time spent up to now is    82915.0 secs

     total energy              =  -10945.84134824 Ry
     estimated scf accuracy    <          1.5E-09 Ry

     total magnetization       =    -0.00 Bohr mag/cell
     absolute magnetization    =    47.50 Bohr mag/cell

     iteration # 33     ecut=    71.00 Ry     beta= 0.30
     Davidson diagonalization with overlap
     ethr =  2.90E-13,  avg # of iterations =  3.1

     total cpu time spent up to now is    83234.5 secs

     total energy              =  -10945.84134824 Ry
     estimated scf accuracy    <          1.0E-09 Ry

     total magnetization       =    -0.00 Bohr mag/cell
     absolute magnetization    =    47.50 Bohr mag/cell

     iteration # 34     ecut=    71.00 Ry     beta= 0.30
     Davidson diagonalization with overlap
     ethr =  2.02E-13,  avg # of iterations =  1.9

     total cpu time spent up to now is    83504.5 secs

     total energy              =  -10945.84134824 Ry
     estimated scf accuracy    <          7.4E-10 Ry

     total magnetization       =    -0.00 Bohr mag/cell
     absolute magnetization    =    47.50 Bohr mag/cell

     iteration # 35     ecut=    71.00 Ry     beta= 0.30
     Davidson diagonalization with overlap
     ethr =  1.44E-13,  avg # of iterations =  2.8

     total cpu time spent up to now is    83828.4 secs

     total energy              =  -10945.84134824 Ry
     estimated scf accuracy    <          6.8E-10 Ry

     total magnetization       =    -0.00 Bohr mag/cell
     absolute magnetization    =    47.50 Bohr mag/cell

     iteration # 36     ecut=    71.00 Ry     beta= 0.30
     Davidson diagonalization with overlap
     ethr =  1.33E-13,  avg # of iterations =  3.6

     total cpu time spent up to now is    84168.6 secs

     total energy              =  -10945.84134824 Ry
     estimated scf accuracy    <          2.8E-10 Ry

     total magnetization       =    -0.00 Bohr mag/cell
     absolute magnetization    =    47.50 Bohr mag/cell

     iteration # 37     ecut=    71.00 Ry     beta= 0.30
     Davidson diagonalization with overlap
     ethr =  1.00E-13,  avg # of iterations =  1.6

     total cpu time spent up to now is    84428.5 secs

     total energy              =  -10945.84134824 Ry
     estimated scf accuracy    <          2.4E-10 Ry

     total magnetization       =    -0.00 Bohr mag/cell
     absolute magnetization    =    47.50 Bohr mag/cell

     iteration # 38     ecut=    71.00 Ry     beta= 0.30
     Davidson diagonalization with overlap
     ethr =  1.00E-13,  avg # of iterations =  2.0

     total cpu time spent up to now is    84702.1 secs

     total energy              =  -10945.84134824 Ry
     estimated scf accuracy    <          1.6E-10 Ry

     total magnetization       =    -0.00 Bohr mag/cell
     absolute magnetization    =    47.50 Bohr mag/cell

     iteration # 39     ecut=    71.00 Ry     beta= 0.30
     Davidson diagonalization with overlap
     ethr =  1.00E-13,  avg # of iterations =  2.3
 
     Magnetic moment per site:
     atom:    1    charge:   13.1015    magn:    0.1776    constr:    0.0000
     atom:    2    charge:   13.1010    magn:   -0.1774    constr:    0.0000
     atom:    3    charge:   13.1004    magn:    0.1775    constr:    0.0000
     atom:    4    charge:   13.1010    magn:   -0.1774    constr:    0.0000
     atom:    5    charge:   14.2599    magn:    1.6810    constr:    0.0000
     atom:    6    charge:   14.2228    magn:   -1.6762    constr:    0.0000
     atom:    7    charge:   14.2593    magn:    1.6807    constr:    0.0000
     atom:    8    charge:   14.2226    magn:   -1.6774    constr:    0.0000
     atom:    9    charge:   14.2578    magn:    1.5627    constr:    0.0000
     atom:   10    charge:   14.2212    magn:   -1.5586    constr:    0.0000
     atom:   11    charge:   14.2588    magn:    1.5602    constr:    0.0000
     atom:   12    charge:   14.2212    magn:   -1.5586    constr:    0.0000
     atom:   13    charge:   14.2759    magn:    1.4794    constr:    0.0000
     atom:   14    charge:   14.2387    magn:   -1.4769    constr:    0.0000
     atom:   15    charge:   14.2764    magn:    1.4791    constr:    0.0000
     atom:   16    charge:   14.2379    magn:   -1.4784    constr:    0.0000
     atom:   17    charge:   14.2599    magn:    1.6810    constr:    0.0000
     atom:   18    charge:   14.2226    magn:   -1.6774    constr:    0.0000
     atom:   19    charge:   14.2593    magn:    1.6807    constr:    0.0000
     atom:   20    charge:   14.2228    magn:   -1.6762    constr:    0.0000
     atom:   21    charge:   14.2939    magn:    1.6889    constr:    0.0000
     atom:   22    charge:   14.2557    magn:   -1.6848    constr:    0.0000
     atom:   23    charge:   14.2935    magn:    1.6891    constr:    0.0000
     atom:   24    charge:   14.2557    magn:   -1.6848    constr:    0.0000
     atom:   25    charge:   14.2759    magn:    1.4794    constr:    0.0000
     atom:   26    charge:   14.2379    magn:   -1.4784    constr:    0.0000
     atom:   27    charge:   14.2764    magn:    1.4791    constr:    0.0000
     atom:   28    charge:   14.2387    magn:   -1.4769    constr:    0.0000
     atom:   29    charge:   14.2704    magn:    1.5534    constr:    0.0000
     atom:   30    charge:   14.2322    magn:   -1.5541    constr:    0.0000
     atom:   31    charge:   14.2700    magn:    1.5563    constr:    0.0000
     atom:   32    charge:   14.2322    magn:   -1.5541    constr:    0.0000

     total cpu time spent up to now is    85001.6 secs

     End of self-consistent calculation

     Number of k-points >= 100: set verbosity='high' to print the bands.

     the Fermi energy is    20.3504 ev

!    total energy              =  -10945.84134824 Ry

     total all-electron energy =   -107524.193066 Ry
     estimated scf accuracy    <          7.6E-11 Ry
     smearing contrib. (-TS)   =       0.00728677 Ry
     internal energy E=F+TS    =  -10945.84863502 Ry

     The total energy is F=E-TS. E is the sum of the following terms:
     one-electron contribution =   -3082.90868685 Ry
     hartree contribution      =    1897.52862841 Ry
     xc contribution           =    -892.17458303 Ry
     ewald contribution        =   -5601.26556769 Ry
     one-center paw contrib.   =   -3267.02842586 Ry

     total magnetization       =    -0.00 Bohr mag/cell
     absolute magnetization    =    47.50 Bohr mag/cell

     convergence has been achieved in  39 iterations

     Forces acting on atoms (cartesian axes, Ry/au):

     atom    1 type  3   force =    -0.00032710    0.00009816   -0.00032710
     atom    2 type  3   force =     0.00044465    0.00015827   -0.00030806
     atom    3 type  3   force =     0.00043026    0.00011942    0.00043026
     atom    4 type  3   force =    -0.00030806    0.00015827    0.00044465
     atom    5 type  1   force =     0.00018596   -0.00026354   -0.00021640
     atom    6 type  2   force =    -0.00022357    0.00004320   -0.00005374
     atom    7 type  1   force =    -0.00006398   -0.00026963   -0.00001670
     atom    8 type  2   force =     0.00011230    0.00024906    0.00013835
     atom    9 type  1   force =     0.00024489   -0.00032861    0.00024489
     atom   10 type  2   force =    -0.00020705    0.00021329    0.00019589
     atom   11 type  1   force =    -0.00019121   -0.00018795   -0.00019121
     atom   12 type  2   force =     0.00019589    0.00021329   -0.00020705
     atom   13 type  1   force =    -0.00003497    0.00009268   -0.00037473
     atom   14 type  2   force =    -0.00005678    0.00010904   -0.00034321
     atom   15 type  1   force =    -0.00004429   -0.00007095    0.00039633
     atom   16 type  2   force =    -0.00004982    0.00004554    0.00038841
     atom   17 type  1   force =    -0.00021640   -0.00026354    0.00018596
     atom   18 type  2   force =     0.00013835    0.00024906    0.00011230
     atom   19 type  1   force =    -0.00001670   -0.00026963   -0.00006398
     atom   20 type  2   force =    -0.00005374    0.00004320   -0.00022357
     atom   21 type  1   force =    -0.00017718   -0.00031567   -0.00017718
     atom   22 type  2   force =     0.00033957    0.00004157   -0.00039128
     atom   23 type  1   force =     0.00031036   -0.00032897    0.00031036
     atom   24 type  2   force =    -0.00039128    0.00004157    0.00033957
     atom   25 type  1   force =    -0.00037473    0.00009268   -0.00003497
     atom   26 type  2   force =     0.00038841    0.00004554   -0.00004982
     atom   27 type  1   force =     0.00039633   -0.00007095   -0.00004429
     atom   28 type  2   force =    -0.00034321    0.00010904   -0.00005678
     atom   29 type  1   force =    -0.00002381    0.00015140   -0.00002381
     atom   30 type  2   force =     0.00000139   -0.00005480   -0.00004944
     atom   31 type  1   force =    -0.00003508    0.00020480   -0.00003508
     atom   32 type  2   force =    -0.00004944   -0.00005480    0.00000139

     Total force =     0.002208     Total SCF correction =     0.000013


     Computing stress (Cartesian axis) and pressure

          total   stress  (Ry/bohr**3)                   (kbar)     P=       -1.61
  -0.00001172  -0.00000009  -0.00000002           -1.72       -0.01       -0.00
  -0.00000009  -0.00000931  -0.00000009           -0.01       -1.37       -0.01
  -0.00000002  -0.00000009  -0.00001172           -0.00       -0.01       -1.72


     Writing output data file /scratch/bxp912/feru_relax_2.save/
 
     init_run     :    184.66s CPU    189.22s WALL (       2 calls)
     electrons    :  81112.55s CPU  82316.47s WALL (       9 calls)
     update_pot   :      5.70s CPU      5.83s WALL (       7 calls)
     forces       :    475.93s CPU    479.29s WALL (       9 calls)
     stress       :   2220.08s CPU   2238.21s WALL (       9 calls)

     Called by init_run:
     wfcinit      :    182.65s CPU    186.71s WALL (       2 calls)
     potinit      :      0.75s CPU      0.79s WALL (       2 calls)
     hinit0       :      0.96s CPU      1.04s WALL (       2 calls)

     Called by electrons:
     c_bands      :  72093.90s CPU  73148.63s WALL (     253 calls)
     sum_band     :   8951.20s CPU   9094.30s WALL (     253 calls)
     v_of_rho     :      5.75s CPU      5.95s WALL (     261 calls)
     newd         :     13.25s CPU     15.96s WALL (     261 calls)
     PAW_pot      :     46.35s CPU     48.92s WALL (     268 calls)
     mix_rho      :      4.25s CPU      4.56s WALL (     253 calls)

     Called by c_bands:
     init_us_2    :    339.92s CPU    346.00s WALL (  218530 calls)
     cegterg      :  70851.46s CPU  71658.97s WALL (  104146 calls)

     Called by *egterg:
     cdiaghg      :  10023.72s CPU  10077.26s WALL (  425067 calls)
     h_psi        :  38136.98s CPU  38738.71s WALL (  429583 calls)
     s_psi        :   2746.08s CPU   2765.83s WALL (  429583 calls)
     g_psi        :     68.63s CPU     69.63s WALL (  324617 calls)

     Called by h_psi:
     h_psi:calbec :   5726.96s CPU   5765.41s WALL (  429583 calls)
     vloc_psi     :  29430.57s CPU  29957.17s WALL (  429583 calls)
     add_vuspsi   :   2813.42s CPU   2848.75s WALL (  429583 calls)

     General routines
     calbec       :   8774.76s CPU   8834.22s WALL (  554633 calls)
     fft          :      4.76s CPU      4.92s WALL (    6876 calls)
     ffts         :      2.10s CPU      2.16s WALL (    5879 calls)
     fftw         :  34747.83s CPU  35364.67s WALL (******** calls)
     interpolate  :      0.55s CPU      0.60s WALL (     522 calls)
 
     Parallel routines
     fft_scatt_xy :   1493.45s CPU   1520.55s WALL (******** calls)
     fft_scatt_yz :  29661.86s CPU  30198.24s WALL (******** calls)
 
     PWSCF        :     23h22m CPU     23h43m WALL

 
   This run was terminated on:  15:44:11  25Apr2022            

=------------------------------------------------------------------------------=
   JOB DONE.
=------------------------------------------------------------------------------=
