
     Program PWSCF v.6.7MaX starts on 23May2022 at  9: 6:27 

     This program is part of the open-source Quantum ESPRESSO suite
     for quantum simulation of materials; please cite
         "P. Giannozzi et al., J. Phys.:Condens. Matter 21 395502 (2009);
         "P. Giannozzi et al., J. Phys.:Condens. Matter 29 465901 (2017);
          URL http://www.quantum-espresso.org", 
     in publications or presentations arising from this work. More details at
     http://www.quantum-espresso.org/quote

     Parallel version (MPI & OpenMP), running on      72 processor cores
     Number of MPI processes:                72
     Threads/MPI process:                     1

     MPI processes distributed on     1 nodes
     R & G space division:  proc/nbgrp/npool/nimage =      72
     Reading input from feru_03.in
Warning: card &CELL ignored
Warning: card CELL_DYNAMICS = 'BFGS', ignored
Warning: card CELL_FACTOR = 2.0, ignored
Warning: card PRESS = 0.0, ignored
Warning: card / ignored

     Current dimensions of program PWSCF are:
     Max number of different atomic species (ntypx) = 10
     Max number of k-points (npk) =  40000
     Max angular momentum in pseudopotentials (lmaxx) =  3
     file Fe.pbe-spn-kjpaw_psl.1.0.0.UPF: wavefunction(s)  3P 3D renormalized
     file Fe.pbe-spn-kjpaw_psl.1.0.0.UPF: wavefunction(s)  3P 3D renormalized
     file Ru.pbe-spn-kjpaw_psl.1.0.0.UPF: wavefunction(s)  4D renormalized

     Subspace diagonalization in iterative solution of the eigenvalue problem:
     one sub-group per band group will be used
     ELPA distributed-memory algorithm (size of sub-group:  8*  8 procs)

 
     Parallelization info
     --------------------
     sticks:   dense  smooth     PW     G-vecs:    dense   smooth      PW
     Min          84      55     15                 4857     2605     375
     Max          86      56     16                 4863     2614     380
     Sum        6115    4025   1119               349955   187945   27183
 


     bravais-lattice index     =            0
     lattice parameter (alat)  =      13.0175  a.u.
     unit-cell volume          =    2324.7211 (a.u.)^3
     number of atoms/cell      =           32
     number of atomic types    =            3
     number of electrons       =       512.00
     number of Kohn-Sham states=          307
     kinetic-energy cutoff     =      71.0000  Ry
     charge density cutoff     =     430.0000  Ry
     scf convergence threshold =      1.0E-08
     mixing beta               =       0.3000
     number of iterations used =           10  local-TF  mixing
     Exchange-correlation= SLA  PW   PBX  PBC
                           (   1   4   3   4   0   0   0)

     celldm(1)=  13.017474  celldm(2)=   0.000000  celldm(3)=   0.000000
     celldm(4)=   0.000000  celldm(5)=   0.000000  celldm(6)=   0.000000

     crystal axes: (cart. coord. in units of alat)
               a(1) = (   1.000000   0.000000   0.000000 )  
               a(2) = (   0.000000   1.053879   0.000000 )  
               a(3) = (   0.000000   0.000000   1.000000 )  

     reciprocal axes: (cart. coord. in units 2 pi/alat)
               b(1) = (  1.000000  0.000000  0.000000 )  
               b(2) = (  0.000000  0.948876  0.000000 )  
               b(3) = (  0.000000  0.000000  1.000000 )  


     PseudoPot. # 1 for Fe read from file:
     /rds/homes/b/bxp912/pp/Fe.pbe-spn-kjpaw_psl.1.0.0.UPF
     MD5 check sum: 42f43b795421b414b0dc916aa790dbcb
     Pseudo is Projector augmented-wave + core cor, Zval = 16.0
     Generated using &quot;atomic&quot; code by A. Dal Corso  v.6.3
     Shape of augmentation charge: PSQ
     Using radial grid of 1191 points,  6 beta functions with: 
                l(1) =   0
                l(2) =   0
                l(3) =   1
                l(4) =   1
                l(5) =   2
                l(6) =   2
     Q(r) pseudized with 0 coefficients 


     PseudoPot. # 2 for Fe read from file:
     /rds/homes/b/bxp912/pp/Fe.pbe-spn-kjpaw_psl.1.0.0.UPF
     MD5 check sum: 42f43b795421b414b0dc916aa790dbcb
     Pseudo is Projector augmented-wave + core cor, Zval = 16.0
     Generated using &quot;atomic&quot; code by A. Dal Corso  v.6.3
     Shape of augmentation charge: PSQ
     Using radial grid of 1191 points,  6 beta functions with: 
                l(1) =   0
                l(2) =   0
                l(3) =   1
                l(4) =   1
                l(5) =   2
                l(6) =   2
     Q(r) pseudized with 0 coefficients 


     PseudoPot. # 3 for Ru read from file:
     /rds/homes/b/bxp912/pp/Ru.pbe-spn-kjpaw_psl.1.0.0.UPF
     MD5 check sum: 0ae1f594dea09af7be8575c3a481d1ae
     Pseudo is Projector augmented-wave + core cor, Zval = 16.0
     Generated using "atomic" code by A. Dal Corso  v.5.1
     Shape of augmentation charge: PSQ
     Using radial grid of 1233 points,  6 beta functions with: 
                l(1) =   0
                l(2) =   0
                l(3) =   1
                l(4) =   1
                l(5) =   2
                l(6) =   2
     Q(r) pseudized with 0 coefficients 


     atomic species   valence    mass     pseudopotential
        Fe1           16.00    55.84500     Fe( 1.00)
        Fe2           16.00    55.84500     Fe( 1.00)
        Ru            16.00   101.07000     Ru( 1.00)

     Starting magnetic structure 
     atomic species   magnetization
        Fe1          0.100
        Fe2         -0.100
        Ru           0.010

     No symmetry found



   Cartesian axes

     site n.     atom                  positions (alat units)
         1           Ru  tau(   1) = (  -0.0003160   0.0000400  -0.0004115  )
         2           Fe2 tau(   2) = (   0.2552108   0.2689456   0.0000000  )
         3           Fe1 tau(   3) = (   0.2570288   0.0000000   0.2570288  )
         4           Fe2 tau(   4) = (   0.0000000   0.2689456   0.2552108  )
         5           Fe1 tau(   5) = (   0.0000000   0.0000000   0.5000000  )
         6           Fe2 tau(   6) = (   0.2504870   0.2644622   0.5000000  )
         7           Fe1 tau(   7) = (   0.2570288   0.0000000   0.7429712  )
         8           Fe2 tau(   8) = (   0.0000000   0.2689456   0.7447892  )
         9           Fe1 tau(   9) = (   0.0000000   0.5269394   0.0000000  )
        10           Fe2 tau(  10) = (   0.2552108   0.7849332   0.0000000  )
        11           Fe1 tau(  11) = (   0.2508487   0.5269394   0.2508487  )
        12           Fe2 tau(  12) = (   0.0000000   0.7849332   0.2552108  )
        13           Fe1 tau(  13) = (   0.0000000   0.5269394   0.5000000  )
        14           Fe2 tau(  14) = (   0.2504870   0.7894166   0.5000000  )
        15           Fe1 tau(  15) = (   0.2508487   0.5269394   0.7491513  )
        16           Fe2 tau(  16) = (   0.0000000   0.7849332   0.7447892  )
        17           Fe1 tau(  17) = (   0.5000000   0.0000000   0.0000000  )
        18           Fe2 tau(  18) = (   0.7447892   0.2689456   0.0000000  )
        19           Fe1 tau(  19) = (   0.7429712   0.0000000   0.2570288  )
        20           Fe2 tau(  20) = (   0.5000000   0.2644622   0.2504870  )
        21           Fe1 tau(  21) = (   0.5000000   0.0000000   0.5000000  )
        22           Fe2 tau(  22) = (   0.7495130   0.2644622   0.5000000  )
        23           Fe1 tau(  23) = (   0.7429712   0.0000000   0.7429712  )
        24           Fe2 tau(  24) = (   0.5000000   0.2644622   0.7495130  )
        25           Fe1 tau(  25) = (   0.5000000   0.5269394   0.0000000  )
        26           Fe2 tau(  26) = (   0.7447892   0.7849332   0.0000000  )
        27           Fe1 tau(  27) = (   0.7491513   0.5269394   0.2508487  )
        28           Fe2 tau(  28) = (   0.5000000   0.7894166   0.2504870  )
        29           Fe1 tau(  29) = (   0.5000000   0.5269394   0.5000000  )
        30           Fe2 tau(  30) = (   0.7495130   0.7894166   0.5000000  )
        31           Fe1 tau(  31) = (   0.7491513   0.5269394   0.7491513  )
        32           Fe2 tau(  32) = (   0.5000000   0.7894166   0.7495130  )

     number of k points=   365  Marzari-Vanderbilt smearing, width (Ry)=  0.0400

     Number of k-points >= 100: set verbosity='high' to print them.

     Dense  grid:   349955 G-vectors     FFT dimensions: (  90,  96,  90)

     Smooth grid:   187945 G-vectors     FFT dimensions: (  72,  75,  72)

     Estimated max dynamical RAM per process >       1.12 GB

     Estimated total dynamical RAM >      80.71 GB

     Check: negative core charge=   -0.000006
     Generating pointlists ...
     new r_m :   0.1417 (alat units)  1.8451 (a.u.) for type    1
     new r_m :   0.1445 (alat units)  1.8808 (a.u.) for type    2
     new r_m :   0.1497 (alat units)  1.9491 (a.u.) for type    3

     Initial potential from superposition of free atoms

     starting charge  511.98580, renormalised to  512.00000
     Starting wfcs are  320 randomized atomic wfcs
     Checking if some PAW data can be deallocated... 

     total cpu time spent up to now is      171.6 secs

     Self-consistent Calculation

     iteration #  1     ecut=    71.00 Ry     beta= 0.30
     Davidson diagonalization with overlap
     ethr =  1.00E-02,  avg # of iterations =  4.8

     negative rho (up, down):  1.698E-02 5.596E-02

     total cpu time spent up to now is      833.5 secs

     total energy              =  -10638.26016852 Ry
     estimated scf accuracy    <      11.37967392 Ry

     total magnetization       =    -1.22 Bohr mag/cell
     absolute magnetization    =    51.13 Bohr mag/cell

     iteration #  2     ecut=    71.00 Ry     beta= 0.30
     Davidson diagonalization with overlap
     ethr =  2.22E-03,  avg # of iterations =  2.9

     negative rho (up, down):  2.725E-02 6.332E-02

     total cpu time spent up to now is     1378.6 secs

     total energy              =  -10637.71556093 Ry
     estimated scf accuracy    <       3.32464628 Ry

     total magnetization       =    -0.62 Bohr mag/cell
     absolute magnetization    =    47.61 Bohr mag/cell

     iteration #  3     ecut=    71.00 Ry     beta= 0.30
     Davidson diagonalization with overlap
     ethr =  6.49E-04,  avg # of iterations =  2.6

     negative rho (up, down):  2.065E-02 4.564E-02

     total cpu time spent up to now is     1963.5 secs

     total energy              =  -10638.11384708 Ry
     estimated scf accuracy    <       1.77763557 Ry

     total magnetization       =    -1.25 Bohr mag/cell
     absolute magnetization    =    45.86 Bohr mag/cell

     iteration #  4     ecut=    71.00 Ry     beta= 0.30
     Davidson diagonalization with overlap
     ethr =  3.47E-04,  avg # of iterations =  2.1

     negative rho (up, down):  9.095E-03 2.260E-02

     total cpu time spent up to now is     2457.4 secs

     total energy              =  -10638.28044880 Ry
     estimated scf accuracy    <       0.51840214 Ry

     total magnetization       =    -0.85 Bohr mag/cell
     absolute magnetization    =    45.90 Bohr mag/cell

     iteration #  5     ecut=    71.00 Ry     beta= 0.30
     Davidson diagonalization with overlap
     c_bands:  1 eigenvalues not converged
     c_bands:  1 eigenvalues not converged
     c_bands:  1 eigenvalues not converged
     c_bands:  1 eigenvalues not converged
     c_bands:  1 eigenvalues not converged
     ethr =  1.01E-04,  avg # of iterations =  4.7

     negative rho (up, down):  2.362E-03 7.495E-03

     total cpu time spent up to now is     3018.7 secs

     total energy              =  -10638.38950710 Ry
     estimated scf accuracy    <       0.27900616 Ry

     total magnetization       =    -0.81 Bohr mag/cell
     absolute magnetization    =    46.21 Bohr mag/cell

     iteration #  6     ecut=    71.00 Ry     beta= 0.30
     Davidson diagonalization with overlap
     c_bands:  1 eigenvalues not converged
     c_bands:  1 eigenvalues not converged
     c_bands:  2 eigenvalues not converged
     c_bands:  1 eigenvalues not converged
     ethr =  5.45E-05,  avg # of iterations =  4.1

     negative rho (up, down):  6.153E-04 2.220E-03

     total cpu time spent up to now is     3610.7 secs

     total energy              =  -10638.49033094 Ry
     estimated scf accuracy    <       0.17591635 Ry

     total magnetization       =    -0.89 Bohr mag/cell
     absolute magnetization    =    46.60 Bohr mag/cell

     iteration #  7     ecut=    71.00 Ry     beta= 0.30
     Davidson diagonalization with overlap
     c_bands:  1 eigenvalues not converged
     c_bands:  1 eigenvalues not converged
     c_bands:  1 eigenvalues not converged
     c_bands:  1 eigenvalues not converged
     c_bands:  1 eigenvalues not converged
     ethr =  3.44E-05,  avg # of iterations =  3.3

     negative rho (up, down):  0.000E+00 9.641E-05

     total cpu time spent up to now is     4188.0 secs

     total energy              =  -10638.58113587 Ry
     estimated scf accuracy    <       0.09285190 Ry

     total magnetization       =    -0.80 Bohr mag/cell
     absolute magnetization    =    47.00 Bohr mag/cell

     iteration #  8     ecut=    71.00 Ry     beta= 0.30
     Davidson diagonalization with overlap
     c_bands:  2 eigenvalues not converged
     c_bands:  1 eigenvalues not converged
     c_bands:  1 eigenvalues not converged
     c_bands:  1 eigenvalues not converged
     c_bands:  1 eigenvalues not converged
     c_bands:  2 eigenvalues not converged
     c_bands:  2 eigenvalues not converged
     c_bands:  1 eigenvalues not converged
     c_bands:  1 eigenvalues not converged
     c_bands:  1 eigenvalues not converged
     c_bands:  1 eigenvalues not converged
     c_bands:  1 eigenvalues not converged
     c_bands:  1 eigenvalues not converged
     c_bands:  1 eigenvalues not converged
     c_bands:  1 eigenvalues not converged
     c_bands:  1 eigenvalues not converged
     c_bands:  2 eigenvalues not converged
     c_bands:  1 eigenvalues not converged
     c_bands:  1 eigenvalues not converged
     c_bands:  1 eigenvalues not converged
     c_bands:  1 eigenvalues not converged
     c_bands:  2 eigenvalues not converged
     c_bands:  1 eigenvalues not converged
     c_bands:  1 eigenvalues not converged
     ethr =  1.81E-05,  avg # of iterations =  4.2

     total cpu time spent up to now is     4815.9 secs

     total energy              =  -10638.62864125 Ry
     estimated scf accuracy    <       0.04310065 Ry

     total magnetization       =    -0.74 Bohr mag/cell
     absolute magnetization    =    47.56 Bohr mag/cell

     iteration #  9     ecut=    71.00 Ry     beta= 0.30
     Davidson diagonalization with overlap
     c_bands:  2 eigenvalues not converged
     c_bands:  1 eigenvalues not converged
     c_bands:  1 eigenvalues not converged
     c_bands:  1 eigenvalues not converged
     c_bands:  1 eigenvalues not converged
     c_bands:  1 eigenvalues not converged
     c_bands:  1 eigenvalues not converged
     c_bands:  1 eigenvalues not converged
     c_bands:  1 eigenvalues not converged
     c_bands:  1 eigenvalues not converged
     c_bands:  1 eigenvalues not converged
     c_bands:  1 eigenvalues not converged
     c_bands:  1 eigenvalues not converged
     c_bands:  1 eigenvalues not converged
     c_bands:  1 eigenvalues not converged
     c_bands:  1 eigenvalues not converged
     c_bands:  1 eigenvalues not converged
     c_bands:  1 eigenvalues not converged
     c_bands:  1 eigenvalues not converged
     c_bands:  1 eigenvalues not converged
     c_bands:  1 eigenvalues not converged
     c_bands:  1 eigenvalues not converged
     c_bands:  2 eigenvalues not converged
     c_bands:  1 eigenvalues not converged
     c_bands:  1 eigenvalues not converged
     c_bands:  1 eigenvalues not converged
     c_bands:  1 eigenvalues not converged
     c_bands:  1 eigenvalues not converged
     c_bands:  1 eigenvalues not converged
     c_bands:  1 eigenvalues not converged
     c_bands:  1 eigenvalues not converged
     c_bands:  1 eigenvalues not converged
     c_bands:  1 eigenvalues not converged
     c_bands:  1 eigenvalues not converged
     c_bands:  1 eigenvalues not converged
     c_bands:  1 eigenvalues not converged
     c_bands:  1 eigenvalues not converged
     c_bands:  1 eigenvalues not converged
     c_bands:  2 eigenvalues not converged
     c_bands:  1 eigenvalues not converged
     c_bands:  1 eigenvalues not converged
     c_bands:  1 eigenvalues not converged
     c_bands:  1 eigenvalues not converged
     ethr =  8.42E-06,  avg # of iterations =  5.3

     total cpu time spent up to now is     5475.4 secs

     total energy              =  -10638.64056328 Ry
     estimated scf accuracy    <       0.01219709 Ry

     total magnetization       =    -0.75 Bohr mag/cell
     absolute magnetization    =    48.11 Bohr mag/cell

     iteration # 10     ecut=    71.00 Ry     beta= 0.30
     Davidson diagonalization with overlap
     c_bands:  1 eigenvalues not converged
     c_bands:  1 eigenvalues not converged
     c_bands:  1 eigenvalues not converged
     c_bands:  1 eigenvalues not converged
     c_bands:  1 eigenvalues not converged
     c_bands:  1 eigenvalues not converged
     c_bands:  1 eigenvalues not converged
     c_bands:  1 eigenvalues not converged
     c_bands:  1 eigenvalues not converged
     c_bands:  1 eigenvalues not converged
     c_bands:  1 eigenvalues not converged
     c_bands:  1 eigenvalues not converged
     c_bands:  1 eigenvalues not converged
     c_bands:  1 eigenvalues not converged
     c_bands:  1 eigenvalues not converged
     c_bands:  1 eigenvalues not converged
     c_bands:  1 eigenvalues not converged
     c_bands:  1 eigenvalues not converged
     c_bands:  1 eigenvalues not converged
     c_bands:  1 eigenvalues not converged
     c_bands:  1 eigenvalues not converged
     c_bands:  1 eigenvalues not converged
     c_bands:  1 eigenvalues not converged
     c_bands:  1 eigenvalues not converged
     c_bands:  1 eigenvalues not converged
     c_bands:  1 eigenvalues not converged
     ethr =  2.38E-06,  avg # of iterations =  7.3

     total cpu time spent up to now is     6214.5 secs

     total energy              =  -10638.64629655 Ry
     estimated scf accuracy    <       0.00461441 Ry

     total magnetization       =    -0.73 Bohr mag/cell
     absolute magnetization    =    48.65 Bohr mag/cell

     iteration # 11     ecut=    71.00 Ry     beta= 0.30
     Davidson diagonalization with overlap
     c_bands:  1 eigenvalues not converged
     c_bands:  1 eigenvalues not converged
     c_bands:  1 eigenvalues not converged
     c_bands:  1 eigenvalues not converged
     c_bands:  1 eigenvalues not converged
     ethr =  9.01E-07,  avg # of iterations =  1.9

     total cpu time spent up to now is     6696.5 secs

     total energy              =  -10638.64708696 Ry
     estimated scf accuracy    <       0.00252383 Ry

     total magnetization       =    -0.71 Bohr mag/cell
     absolute magnetization    =    48.79 Bohr mag/cell

     iteration # 12     ecut=    71.00 Ry     beta= 0.30
     Davidson diagonalization with overlap
     ethr =  4.93E-07,  avg # of iterations =  2.1

     total cpu time spent up to now is     7284.4 secs

     total energy              =  -10638.64777690 Ry
     estimated scf accuracy    <       0.00118879 Ry

     total magnetization       =    -0.73 Bohr mag/cell
     absolute magnetization    =    48.96 Bohr mag/cell

     iteration # 13     ecut=    71.00 Ry     beta= 0.30
     Davidson diagonalization with overlap
     ethr =  2.32E-07,  avg # of iterations =  1.2

     total cpu time spent up to now is     7740.1 secs

     total energy              =  -10638.64788083 Ry
     estimated scf accuracy    <       0.00059950 Ry

     total magnetization       =    -0.74 Bohr mag/cell
     absolute magnetization    =    49.00 Bohr mag/cell

     iteration # 14     ecut=    71.00 Ry     beta= 0.30
     Davidson diagonalization with overlap
     c_bands:  1 eigenvalues not converged
     ethr =  1.17E-07,  avg # of iterations =  2.3

     total cpu time spent up to now is     8249.9 secs

     total energy              =  -10638.64801108 Ry
     estimated scf accuracy    <       0.00030807 Ry

     total magnetization       =    -0.73 Bohr mag/cell
     absolute magnetization    =    49.10 Bohr mag/cell

     iteration # 15     ecut=    71.00 Ry     beta= 0.30
     Davidson diagonalization with overlap
     c_bands:  1 eigenvalues not converged
     ethr =  6.02E-08,  avg # of iterations =  4.7

     total cpu time spent up to now is     8897.2 secs

     total energy              =  -10638.64814748 Ry
     estimated scf accuracy    <       0.00019730 Ry

     total magnetization       =    -0.73 Bohr mag/cell
     absolute magnetization    =    49.27 Bohr mag/cell

     iteration # 16     ecut=    71.00 Ry     beta= 0.30
     Davidson diagonalization with overlap
     ethr =  3.85E-08,  avg # of iterations =  1.8

     total cpu time spent up to now is     9384.0 secs

     total energy              =  -10638.64820106 Ry
     estimated scf accuracy    <       0.00014400 Ry

     total magnetization       =    -0.74 Bohr mag/cell
     absolute magnetization    =    49.33 Bohr mag/cell

     iteration # 17     ecut=    71.00 Ry     beta= 0.30
     Davidson diagonalization with overlap
     ethr =  2.81E-08,  avg # of iterations =  2.0

     total cpu time spent up to now is     9952.3 secs

     total energy              =  -10638.64823785 Ry
     estimated scf accuracy    <       0.00010251 Ry

     total magnetization       =    -0.74 Bohr mag/cell
     absolute magnetization    =    49.41 Bohr mag/cell

     iteration # 18     ecut=    71.00 Ry     beta= 0.30
     Davidson diagonalization with overlap
     ethr =  2.00E-08,  avg # of iterations =  3.8

     total cpu time spent up to now is    10580.9 secs

     total energy              =  -10638.64832937 Ry
     estimated scf accuracy    <       0.00004845 Ry

     total magnetization       =    -0.75 Bohr mag/cell
     absolute magnetization    =    49.58 Bohr mag/cell

     iteration # 19     ecut=    71.00 Ry     beta= 0.30
     Davidson diagonalization with overlap
     ethr =  9.46E-09,  avg # of iterations =  2.1

     total cpu time spent up to now is    11109.0 secs

     total energy              =  -10638.64834642 Ry
     estimated scf accuracy    <       0.00003446 Ry

     total magnetization       =    -0.76 Bohr mag/cell
     absolute magnetization    =    49.62 Bohr mag/cell

     iteration # 20     ecut=    71.00 Ry     beta= 0.30
     Davidson diagonalization with overlap
     ethr =  6.73E-09,  avg # of iterations =  3.9

     total cpu time spent up to now is    11728.1 secs

     total energy              =  -10638.64837027 Ry
     estimated scf accuracy    <       0.00002339 Ry

     total magnetization       =    -0.76 Bohr mag/cell
     absolute magnetization    =    49.65 Bohr mag/cell

     iteration # 21     ecut=    71.00 Ry     beta= 0.30
     Davidson diagonalization with overlap
     ethr =  4.57E-09,  avg # of iterations =  2.3

     total cpu time spent up to now is    12307.2 secs

     total energy              =  -10638.64838193 Ry
     estimated scf accuracy    <       0.00002528 Ry

     total magnetization       =    -0.77 Bohr mag/cell
     absolute magnetization    =    49.65 Bohr mag/cell

     iteration # 22     ecut=    71.00 Ry     beta= 0.30
     Davidson diagonalization with overlap
     ethr =  4.57E-09,  avg # of iterations =  3.0

     total cpu time spent up to now is    12880.2 secs

     total energy              =  -10638.64839768 Ry
     estimated scf accuracy    <       0.00001788 Ry

     total magnetization       =    -0.78 Bohr mag/cell
     absolute magnetization    =    49.66 Bohr mag/cell

     iteration # 23     ecut=    71.00 Ry     beta= 0.30
     Davidson diagonalization with overlap
     ethr =  3.49E-09,  avg # of iterations =  2.4

     total cpu time spent up to now is    13433.4 secs

     total energy              =  -10638.64840678 Ry
     estimated scf accuracy    <       0.00001687 Ry

     total magnetization       =    -0.78 Bohr mag/cell
     absolute magnetization    =    49.66 Bohr mag/cell

     iteration # 24     ecut=    71.00 Ry     beta= 0.30
     Davidson diagonalization with overlap
     ethr =  3.30E-09,  avg # of iterations =  4.0

     total cpu time spent up to now is    14042.3 secs

     total energy              =  -10638.64840241 Ry
     estimated scf accuracy    <       0.00001324 Ry

     total magnetization       =    -0.79 Bohr mag/cell
     absolute magnetization    =    49.64 Bohr mag/cell

     iteration # 25     ecut=    71.00 Ry     beta= 0.30
     Davidson diagonalization with overlap
     ethr =  2.59E-09,  avg # of iterations =  4.8

     total cpu time spent up to now is    14788.9 secs

     total energy              =  -10638.64843258 Ry
     estimated scf accuracy    <       0.00000680 Ry

     total magnetization       =    -0.81 Bohr mag/cell
     absolute magnetization    =    49.63 Bohr mag/cell

     iteration # 26     ecut=    71.00 Ry     beta= 0.30
     Davidson diagonalization with overlap
     ethr =  1.33E-09,  avg # of iterations =  4.9

     total cpu time spent up to now is    15502.0 secs

     total energy              =  -10638.64844669 Ry
     estimated scf accuracy    <       0.00000530 Ry

     total magnetization       =    -0.82 Bohr mag/cell
     absolute magnetization    =    49.63 Bohr mag/cell

     iteration # 27     ecut=    71.00 Ry     beta= 0.30
     Davidson diagonalization with overlap
     ethr =  1.03E-09,  avg # of iterations =  4.2

     total cpu time spent up to now is    16151.8 secs

     total energy              =  -10638.64845435 Ry
     estimated scf accuracy    <       0.00000313 Ry

     total magnetization       =    -0.83 Bohr mag/cell
     absolute magnetization    =    49.61 Bohr mag/cell

     iteration # 28     ecut=    71.00 Ry     beta= 0.30
     Davidson diagonalization with overlap
     ethr =  6.12E-10,  avg # of iterations =  4.3

     total cpu time spent up to now is    16801.0 secs

     total energy              =  -10638.64845910 Ry
     estimated scf accuracy    <       0.00000251 Ry

     total magnetization       =    -0.84 Bohr mag/cell
     absolute magnetization    =    49.61 Bohr mag/cell

     iteration # 29     ecut=    71.00 Ry     beta= 0.30
     Davidson diagonalization with overlap
     ethr =  4.90E-10,  avg # of iterations =  2.0

     total cpu time spent up to now is    17313.7 secs

     total energy              =  -10638.64844941 Ry
     estimated scf accuracy    <       0.00000256 Ry

     total magnetization       =    -0.84 Bohr mag/cell
     absolute magnetization    =    49.61 Bohr mag/cell

     iteration # 30     ecut=    71.00 Ry     beta= 0.30
     Davidson diagonalization with overlap
     ethr =  4.90E-10,  avg # of iterations =  5.3

     total cpu time spent up to now is    18107.5 secs

     total energy              =  -10638.64846398 Ry
     estimated scf accuracy    <       0.00000086 Ry

     total magnetization       =    -0.85 Bohr mag/cell
     absolute magnetization    =    49.58 Bohr mag/cell

     iteration # 31     ecut=    71.00 Ry     beta= 0.30
     Davidson diagonalization with overlap
     ethr =  1.68E-10,  avg # of iterations =  2.9

     total cpu time spent up to now is    18667.3 secs

     total energy              =  -10638.64846426 Ry
     estimated scf accuracy    <       0.00000076 Ry

     total magnetization       =    -0.85 Bohr mag/cell
     absolute magnetization    =    49.58 Bohr mag/cell

     iteration # 32     ecut=    71.00 Ry     beta= 0.30
     Davidson diagonalization with overlap
     ethr =  1.48E-10,  avg # of iterations =  4.4

     total cpu time spent up to now is    19300.3 secs

     total energy              =  -10638.64846437 Ry
     estimated scf accuracy    <       0.00000055 Ry

     total magnetization       =    -0.85 Bohr mag/cell
     absolute magnetization    =    49.58 Bohr mag/cell

     iteration # 33     ecut=    71.00 Ry     beta= 0.30
     Davidson diagonalization with overlap
     ethr =  1.08E-10,  avg # of iterations =  4.9

     total cpu time spent up to now is    20027.0 secs

     total energy              =  -10638.64846586 Ry
     estimated scf accuracy    <       0.00000033 Ry

     total magnetization       =    -0.86 Bohr mag/cell
     absolute magnetization    =    49.57 Bohr mag/cell

     iteration # 34     ecut=    71.00 Ry     beta= 0.30
     Davidson diagonalization with overlap
     ethr =  6.52E-11,  avg # of iterations =  2.1

     total cpu time spent up to now is    20569.2 secs

     total energy              =  -10638.64846537 Ry
     estimated scf accuracy    <       0.00000024 Ry

     total magnetization       =    -0.86 Bohr mag/cell
     absolute magnetization    =    49.57 Bohr mag/cell

     iteration # 35     ecut=    71.00 Ry     beta= 0.30
     Davidson diagonalization with overlap
     ethr =  4.72E-11,  avg # of iterations =  4.7

     total cpu time spent up to now is    21313.9 secs

     total energy              =  -10638.64846639 Ry
     estimated scf accuracy    <       0.00000012 Ry

     total magnetization       =    -0.86 Bohr mag/cell
     absolute magnetization    =    49.57 Bohr mag/cell

     iteration # 36     ecut=    71.00 Ry     beta= 0.30
     Davidson diagonalization with overlap
     ethr =  2.44E-11,  avg # of iterations =  1.9

     total cpu time spent up to now is    21805.8 secs

     total energy              =  -10638.64846632 Ry
     estimated scf accuracy    <       0.00000008 Ry

     total magnetization       =    -0.86 Bohr mag/cell
     absolute magnetization    =    49.57 Bohr mag/cell

     iteration # 37     ecut=    71.00 Ry     beta= 0.30
     Davidson diagonalization with overlap
     ethr =  1.65E-11,  avg # of iterations =  4.6

     total cpu time spent up to now is    22512.6 secs

     total energy              =  -10638.64846652 Ry
     estimated scf accuracy    <       0.00000004 Ry

     total magnetization       =    -0.86 Bohr mag/cell
     absolute magnetization    =    49.57 Bohr mag/cell

     iteration # 38     ecut=    71.00 Ry     beta= 0.30
     Davidson diagonalization with overlap
     ethr =  7.25E-12,  avg # of iterations =  3.4

     total cpu time spent up to now is    23122.0 secs

     total energy              =  -10638.64846653 Ry
     estimated scf accuracy    <       0.00000003 Ry

     total magnetization       =    -0.86 Bohr mag/cell
     absolute magnetization    =    49.57 Bohr mag/cell

     iteration # 39     ecut=    71.00 Ry     beta= 0.30
     Davidson diagonalization with overlap
     ethr =  6.35E-12,  avg # of iterations =  4.2

     total cpu time spent up to now is    23778.7 secs

     total energy              =  -10638.64846658 Ry
     estimated scf accuracy    <       0.00000002 Ry

     total magnetization       =    -0.86 Bohr mag/cell
     absolute magnetization    =    49.57 Bohr mag/cell

     iteration # 40     ecut=    71.00 Ry     beta= 0.30
     Davidson diagonalization with overlap
     ethr =  2.93E-12,  avg # of iterations =  2.5

     total cpu time spent up to now is    24339.4 secs

     total energy              =  -10638.64846657 Ry
     estimated scf accuracy    <       0.00000001 Ry

     total magnetization       =    -0.86 Bohr mag/cell
     absolute magnetization    =    49.58 Bohr mag/cell

     iteration # 41     ecut=    71.00 Ry     beta= 0.30
     Davidson diagonalization with overlap
     ethr =  2.14E-12,  avg # of iterations =  4.8
 
     Magnetic moment per site:
     atom:    1    charge:   13.4979    magn:    0.1806    constr:    0.0000
     atom:    2    charge:   14.3493    magn:   -1.5527    constr:    0.0000
     atom:    3    charge:   14.2308    magn:    1.7437    constr:    0.0000
     atom:    4    charge:   14.3493    magn:   -1.5533    constr:    0.0000
     atom:    5    charge:   14.2320    magn:    1.4312    constr:    0.0000
     atom:    6    charge:   14.3667    magn:   -1.4798    constr:    0.0000
     atom:    7    charge:   14.2315    magn:    1.7431    constr:    0.0000
     atom:    8    charge:   14.3499    magn:   -1.5493    constr:    0.0000
     atom:    9    charge:   14.2316    magn:    1.4770    constr:    0.0000
     atom:   10    charge:   14.3493    magn:   -1.5530    constr:    0.0000
     atom:   11    charge:   14.2420    magn:    1.5777    constr:    0.0000
     atom:   12    charge:   14.3492    magn:   -1.5534    constr:    0.0000
     atom:   13    charge:   14.2631    magn:    1.2004    constr:    0.0000
     atom:   14    charge:   14.3667    magn:   -1.4800    constr:    0.0000
     atom:   15    charge:   14.2419    magn:    1.5784    constr:    0.0000
     atom:   16    charge:   14.3499    magn:   -1.5494    constr:    0.0000
     atom:   17    charge:   14.2320    magn:    1.4314    constr:    0.0000
     atom:   18    charge:   14.3498    magn:   -1.5498    constr:    0.0000
     atom:   19    charge:   14.2313    magn:    1.7432    constr:    0.0000
     atom:   20    charge:   14.3667    magn:   -1.4799    constr:    0.0000
     atom:   21    charge:   14.2738    magn:    1.5351    constr:    0.0000
     atom:   22    charge:   14.3667    magn:   -1.4802    constr:    0.0000
     atom:   23    charge:   14.2320    magn:    1.7428    constr:    0.0000
     atom:   24    charge:   14.3667    magn:   -1.4804    constr:    0.0000
     atom:   25    charge:   14.2631    magn:    1.2001    constr:    0.0000
     atom:   26    charge:   14.3498    magn:   -1.5500    constr:    0.0000
     atom:   27    charge:   14.2419    magn:    1.5784    constr:    0.0000
     atom:   28    charge:   14.3667    magn:   -1.4799    constr:    0.0000
     atom:   29    charge:   14.2424    magn:    1.4798    constr:    0.0000
     atom:   30    charge:   14.3667    magn:   -1.4804    constr:    0.0000
     atom:   31    charge:   14.2419    magn:    1.5791    constr:    0.0000
     atom:   32    charge:   14.3667    magn:   -1.4804    constr:    0.0000

     total cpu time spent up to now is    25038.6 secs

     End of self-consistent calculation

     Number of k-points >= 100: set verbosity='high' to print the bands.

     the Fermi energy is    20.0605 ev

!    total energy              =  -10638.64846660 Ry

     total all-electron energy =    -87974.353190 Ry
     estimated scf accuracy    <          6.5E-09 Ry
     smearing contrib. (-TS)   =       0.01401861 Ry
     internal energy E=F+TS    =  -10638.66248521 Ry

     The total energy is F=E-TS. E is the sum of the following terms:
     one-electron contribution =   -3262.12439787 Ry
     hartree contribution      =    1980.69280283 Ry
     xc contribution           =    -888.18094550 Ry
     ewald contribution        =   -5665.12677768 Ry
     one-center paw contrib.   =   -2803.92316698 Ry

     total magnetization       =    -0.86 Bohr mag/cell
     absolute magnetization    =    49.58 Bohr mag/cell

     convergence has been achieved in  41 iterations

     Forces acting on atoms (cartesian axes, Ry/au):

     atom    1 type  3   force =     0.00111346   -0.00012255    0.00145268
     atom    2 type  2   force =    -0.01106547   -0.00959822   -0.00002533
     atom    3 type  1   force =    -0.01047533    0.00000175   -0.01046605
     atom    4 type  2   force =    -0.00001679   -0.00963325   -0.01107960
     atom    5 type  1   force =     0.00000432    0.00001280   -0.00004300
     atom    6 type  2   force =    -0.00021776    0.00047516   -0.00004490
     atom    7 type  1   force =    -0.01015279   -0.00000054    0.01021304
     atom    8 type  2   force =    -0.00001316   -0.00937517    0.01094861
     atom    9 type  1   force =     0.00000529    0.00000392    0.00000116
     atom   10 type  2   force =    -0.01108032    0.00962244   -0.00002515
     atom   11 type  1   force =    -0.00036990   -0.00000351   -0.00038192
     atom   12 type  2   force =    -0.00002056    0.00965255   -0.01109861
     atom   13 type  1   force =     0.00001000    0.00001191   -0.00007758
     atom   14 type  2   force =    -0.00021801   -0.00048032   -0.00004088
     atom   15 type  1   force =    -0.00039538   -0.00000013    0.00035922
     atom   16 type  2   force =    -0.00001544    0.00939490    0.01096535
     atom   17 type  1   force =    -0.00003397   -0.00000262    0.00001235
     atom   18 type  2   force =     0.01096262   -0.00939727   -0.00003110
     atom   19 type  1   force =     0.01028340    0.00000387   -0.01022114
     atom   20 type  2   force =    -0.00003683    0.00047513   -0.00021710
     atom   21 type  1   force =    -0.00017268   -0.00000143   -0.00021806
     atom   22 type  2   force =     0.00020958    0.00048796   -0.00004730
     atom   23 type  1   force =     0.00994716   -0.00000359    0.00995576
     atom   24 type  2   force =    -0.00003728    0.00048724    0.00020222
     atom   25 type  1   force =    -0.00006649    0.00001058    0.00001111
     atom   26 type  2   force =     0.01098244    0.00942216   -0.00002268
     atom   27 type  1   force =     0.00035840   -0.00000025   -0.00040370
     atom   28 type  2   force =    -0.00003741   -0.00047257   -0.00021380
     atom   29 type  1   force =    -0.00000385   -0.00000624   -0.00000871
     atom   30 type  2   force =     0.00020740   -0.00048456   -0.00004210
     atom   31 type  1   force =     0.00037945    0.00000083    0.00037898
     atom   32 type  2   force =    -0.00003409   -0.00048097    0.00020823

     Total force =     0.050376     Total SCF correction =     0.000168


     Computing stress (Cartesian axis) and pressure

          total   stress  (Ry/bohr**3)                   (kbar)     P=      -10.53
  -0.00006869  -0.00000000   0.00000001          -10.10       -0.00        0.00
  -0.00000000  -0.00007723  -0.00000000           -0.00      -11.36       -0.00
   0.00000001  -0.00000000  -0.00006884            0.00       -0.00      -10.13


     Writing output data file /scratch/bxp912/feru03.save/
 
     init_run     :    164.06s CPU    167.97s WALL (       1 calls)
     electrons    :  24581.96s CPU  24867.03s WALL (       1 calls)
     forces       :    100.09s CPU    100.70s WALL (       1 calls)
     stress       :    452.47s CPU    455.42s WALL (       1 calls)

     Called by init_run:
     wfcinit      :    162.96s CPU    166.79s WALL (       1 calls)
     potinit      :      0.28s CPU      0.31s WALL (       1 calls)
     hinit0       :      0.63s CPU      0.63s WALL (       1 calls)

     Called by electrons:
     c_bands      :  21888.24s CPU  22131.55s WALL (      41 calls)
     sum_band     :   2681.62s CPU   2722.37s WALL (      41 calls)
     v_of_rho     :      0.95s CPU      1.01s WALL (      42 calls)
     newd         :      2.36s CPU      2.83s WALL (      42 calls)
     PAW_pot      :      7.63s CPU      8.06s WALL (      42 calls)
     mix_rho      :      0.81s CPU      0.88s WALL (      41 calls)

     Called by c_bands:
     init_us_2    :     97.46s CPU     98.80s WALL (   62050 calls)
     cegterg      :  21515.15s CPU  21751.51s WALL (   29930 calls)

     Called by *egterg:
     cdiaghg      :   3282.83s CPU   3299.74s WALL (  135542 calls)
     h_psi        :  11394.14s CPU  11568.58s WALL (  136272 calls)
     s_psi        :    821.97s CPU    828.14s WALL (  136272 calls)
     g_psi        :     20.08s CPU     20.37s WALL (  105612 calls)

     Called by h_psi:
     h_psi:calbec :   1698.71s CPU   1710.25s WALL (  136272 calls)
     vloc_psi     :   8806.78s CPU   8959.91s WALL (  136272 calls)
     add_vuspsi   :    839.08s CPU    848.65s WALL (  136272 calls)

     General routines
     calbec       :   2581.68s CPU   2599.22s WALL (  169852 calls)
     fft          :      1.00s CPU      1.04s WALL (    1088 calls)
     ffts         :      0.44s CPU      0.45s WALL (     974 calls)
     fftw         :  10421.80s CPU  10601.89s WALL (54142700 calls)
     interpolate  :      0.22s CPU      0.22s WALL (      84 calls)
 
     Parallel routines
     fft_scatt_xy :    429.89s CPU    437.84s WALL (54144762 calls)
     fft_scatt_yz :   8952.17s CPU   9108.35s WALL (54144762 calls)
 
     PWSCF        :      7h 4m CPU      7h 9m WALL

 
   This run was terminated on:  16:15:50  23May2022            

=------------------------------------------------------------------------------=
   JOB DONE.
=------------------------------------------------------------------------------=
