
     Program PWSCF v.6.7MaX starts on  2Dec2021 at 23:19: 3 

     This program is part of the open-source Quantum ESPRESSO suite
     for quantum simulation of materials; please cite
         "P. Giannozzi et al., J. Phys.:Condens. Matter 21 395502 (2009);
         "P. Giannozzi et al., J. Phys.:Condens. Matter 29 465901 (2017);
          URL http://www.quantum-espresso.org", 
     in publications or presentations arising from this work. More details at
     http://www.quantum-espresso.org/quote

     Parallel version (MPI & OpenMP), running on      72 processor cores
     Number of MPI processes:                72
     Threads/MPI process:                     1

     MPI processes distributed on     1 nodes
     R & G space division:  proc/nbgrp/npool/nimage =      72
     Reading input from relax_14.in
Warning: card &CELL ignored
Warning: card CELL_DYNAMICS = 'BFGS', ignored
Warning: card CELL_FACTOR = 2.0, ignored
Warning: card PRESS = 0.0, ignored
Warning: card / ignored

     Current dimensions of program PWSCF are:
     Max number of different atomic species (ntypx) = 10
     Max number of k-points (npk) =  40000
     Max angular momentum in pseudopotentials (lmaxx) =  3
     file Ru.pbe-spn-kjpaw_psl.1.0.0.UPF: wavefunction(s)  4D renormalized

     Subspace diagonalization in iterative solution of the eigenvalue problem:
     one sub-group per band group will be used
     ELPA distributed-memory algorithm (size of sub-group:  8*  8 procs)

     Found symmetry operation: I + (  0.2500  0.2500  0.0000)
     This is a supercell, fractional translations are disabled
     Message from routine setup:
     using ibrav=0 with symmetry is DISCOURAGED, use correct ibrav instead
 
     Parallelization info
     --------------------
     sticks:   dense  smooth     PW     G-vecs:    dense   smooth      PW
     Min          98      65     17                10304     5530     773
     Max          99      67     18                10311     5535     782
     Sum        7113    4693   1265               742173   398339   55947
 


     bravais-lattice index     =            0
     lattice parameter (alat)  =      14.4007  a.u.
     unit-cell volume          =    4927.6348 (a.u.)^3
     number of atoms/cell      =           32
     number of atomic types    =            1
     number of electrons       =       512.00
     number of Kohn-Sham states=          307
     kinetic-energy cutoff     =      71.0000  Ry
     charge density cutoff     =     430.0000  Ry
     scf convergence threshold =      1.0E-06
     mixing beta               =       0.1000
     number of iterations used =           10  TF        mixing
     energy convergence thresh.=      1.0E-04
     force convergence thresh. =      1.0E-03
     Exchange-correlation= SLA  PW   PBX  PBC
                           (   1   4   3   4   0   0   0)
     nstep                     =           40


     celldm(1)=  14.400742  celldm(2)=   0.000000  celldm(3)=   0.000000
     celldm(4)=   0.000000  celldm(5)=   0.000000  celldm(6)=   0.000000

     crystal axes: (cart. coord. in units of alat)
               a(1) = (   1.000000   0.000000   0.000000 )  
               a(2) = (   0.000000   1.000000   0.000000 )  
               a(3) = (   0.000000   0.000000   1.650000 )  

     reciprocal axes: (cart. coord. in units 2 pi/alat)
               b(1) = (  1.000000  0.000000  0.000000 )  
               b(2) = (  0.000000  1.000000  0.000000 )  
               b(3) = (  0.000000  0.000000  0.606061 )  


     PseudoPot. # 1 for Ru read from file:
     /rds/homes/b/bxp912/pp/Ru.pbe-spn-kjpaw_psl.1.0.0.UPF
     MD5 check sum: 0ae1f594dea09af7be8575c3a481d1ae
     Pseudo is Projector augmented-wave + core cor, Zval = 16.0
     Generated using "atomic" code by A. Dal Corso  v.5.1
     Shape of augmentation charge: PSQ
     Using radial grid of 1233 points,  6 beta functions with: 
                l(1) =   0
                l(2) =   0
                l(3) =   1
                l(4) =   1
                l(5) =   2
                l(6) =   2
     Q(r) pseudized with 0 coefficients 


     atomic species   valence    mass     pseudopotential
        Ru            16.00   101.07000     Ru( 1.00)

      8 Sym. Ops. (no inversion) found



   Cartesian axes

     site n.     atom                  positions (alat units)
         1           Ru  tau(   1) = (   0.0000000   0.0000000   0.0000000  )
         2           Ru  tau(   2) = (   0.2500000   0.2500000   0.0000000  )
         3           Ru  tau(   3) = (   0.2500000   0.0000000   0.2500000  )
         4           Ru  tau(   4) = (   0.0000000   0.2500000   0.2500000  )
         5           Ru  tau(   5) = (   0.0000000   0.0000000   1.1500000  )
         6           Ru  tau(   6) = (   0.2500000   0.2500000   1.1500000  )
         7           Ru  tau(   7) = (   0.2500000   0.0000000   1.4000000  )
         8           Ru  tau(   8) = (   0.0000000   0.2500000   1.4000000  )
         9           Ru  tau(   9) = (   0.0000000   0.5000000   0.0000000  )
        10           Ru  tau(  10) = (   0.2500000   0.7500000   0.0000000  )
        11           Ru  tau(  11) = (   0.2500000   0.5000000   0.2500000  )
        12           Ru  tau(  12) = (   0.0000000   0.7500000   0.2500000  )
        13           Ru  tau(  13) = (   0.0000000   0.5000000   1.1500000  )
        14           Ru  tau(  14) = (   0.2500000   0.7500000   1.1500000  )
        15           Ru  tau(  15) = (   0.2500000   0.5000000   1.4000000  )
        16           Ru  tau(  16) = (   0.0000000   0.7500000   1.4000000  )
        17           Ru  tau(  17) = (   0.5000000   0.0000000   0.0000000  )
        18           Ru  tau(  18) = (   0.7500000   0.2500000   0.0000000  )
        19           Ru  tau(  19) = (   0.7500000   0.0000000   0.2500000  )
        20           Ru  tau(  20) = (   0.5000000   0.2500000   0.2500000  )
        21           Ru  tau(  21) = (   0.5000000   0.0000000   1.1500000  )
        22           Ru  tau(  22) = (   0.7500000   0.2500000   1.1500000  )
        23           Ru  tau(  23) = (   0.7500000   0.0000000   1.4000000  )
        24           Ru  tau(  24) = (   0.5000000   0.2500000   1.4000000  )
        25           Ru  tau(  25) = (   0.5000000   0.5000000   0.0000000  )
        26           Ru  tau(  26) = (   0.7500000   0.7500000   0.0000000  )
        27           Ru  tau(  27) = (   0.7500000   0.5000000   0.2500000  )
        28           Ru  tau(  28) = (   0.5000000   0.7500000   0.2500000  )
        29           Ru  tau(  29) = (   0.5000000   0.5000000   1.1500000  )
        30           Ru  tau(  30) = (   0.7500000   0.7500000   1.1500000  )
        31           Ru  tau(  31) = (   0.7500000   0.5000000   1.4000000  )
        32           Ru  tau(  32) = (   0.5000000   0.7500000   1.4000000  )

     number of k points=    75  Marzari-Vanderbilt smearing, width (Ry)=  0.0400
                       cart. coord. in units 2pi/alat
        k(    1) = (   0.0555556   0.0555556   0.0336700), wk =   0.0219479
        k(    2) = (   0.0555556   0.0555556   0.1010101), wk =   0.0219479
        k(    3) = (   0.0555556   0.0555556   0.1683502), wk =   0.0219479
        k(    4) = (   0.0555556   0.0555556   0.2356902), wk =   0.0219479
        k(    5) = (   0.0555556   0.0555556  -0.3030303), wk =   0.0109739
        k(    6) = (   0.0555556   0.1666667   0.0336700), wk =   0.0438957
        k(    7) = (   0.0555556   0.1666667   0.1010101), wk =   0.0438957
        k(    8) = (   0.0555556   0.1666667   0.1683502), wk =   0.0438957
        k(    9) = (   0.0555556   0.1666667   0.2356902), wk =   0.0438957
        k(   10) = (   0.0555556   0.1666667  -0.3030303), wk =   0.0219479
        k(   11) = (   0.0555556   0.2777778   0.0336700), wk =   0.0438957
        k(   12) = (   0.0555556   0.2777778   0.1010101), wk =   0.0438957
        k(   13) = (   0.0555556   0.2777778   0.1683502), wk =   0.0438957
        k(   14) = (   0.0555556   0.2777778   0.2356902), wk =   0.0438957
        k(   15) = (   0.0555556   0.2777778  -0.3030303), wk =   0.0219479
        k(   16) = (   0.0555556   0.3888889   0.0336700), wk =   0.0438957
        k(   17) = (   0.0555556   0.3888889   0.1010101), wk =   0.0438957
        k(   18) = (   0.0555556   0.3888889   0.1683502), wk =   0.0438957
        k(   19) = (   0.0555556   0.3888889   0.2356902), wk =   0.0438957
        k(   20) = (   0.0555556   0.3888889  -0.3030303), wk =   0.0219479
        k(   21) = (   0.0555556  -0.5000000   0.0336700), wk =   0.0219479
        k(   22) = (   0.0555556  -0.5000000   0.1010101), wk =   0.0219479
        k(   23) = (   0.0555556  -0.5000000   0.1683502), wk =   0.0219479
        k(   24) = (   0.0555556  -0.5000000   0.2356902), wk =   0.0219479
        k(   25) = (   0.0555556  -0.5000000  -0.3030303), wk =   0.0109739
        k(   26) = (   0.1666667   0.1666667   0.0336700), wk =   0.0219479
        k(   27) = (   0.1666667   0.1666667   0.1010101), wk =   0.0219479
        k(   28) = (   0.1666667   0.1666667   0.1683502), wk =   0.0219479
        k(   29) = (   0.1666667   0.1666667   0.2356902), wk =   0.0219479
        k(   30) = (   0.1666667   0.1666667  -0.3030303), wk =   0.0109739
        k(   31) = (   0.1666667   0.2777778   0.0336700), wk =   0.0438957
        k(   32) = (   0.1666667   0.2777778   0.1010101), wk =   0.0438957
        k(   33) = (   0.1666667   0.2777778   0.1683502), wk =   0.0438957
        k(   34) = (   0.1666667   0.2777778   0.2356902), wk =   0.0438957
        k(   35) = (   0.1666667   0.2777778  -0.3030303), wk =   0.0219479
        k(   36) = (   0.1666667   0.3888889   0.0336700), wk =   0.0438957
        k(   37) = (   0.1666667   0.3888889   0.1010101), wk =   0.0438957
        k(   38) = (   0.1666667   0.3888889   0.1683502), wk =   0.0438957
        k(   39) = (   0.1666667   0.3888889   0.2356902), wk =   0.0438957
        k(   40) = (   0.1666667   0.3888889  -0.3030303), wk =   0.0219479
        k(   41) = (   0.1666667  -0.5000000   0.0336700), wk =   0.0219479
        k(   42) = (   0.1666667  -0.5000000   0.1010101), wk =   0.0219479
        k(   43) = (   0.1666667  -0.5000000   0.1683502), wk =   0.0219479
        k(   44) = (   0.1666667  -0.5000000   0.2356902), wk =   0.0219479
        k(   45) = (   0.1666667  -0.5000000  -0.3030303), wk =   0.0109739
        k(   46) = (   0.2777778   0.2777778   0.0336700), wk =   0.0219479
        k(   47) = (   0.2777778   0.2777778   0.1010101), wk =   0.0219479
        k(   48) = (   0.2777778   0.2777778   0.1683502), wk =   0.0219479
        k(   49) = (   0.2777778   0.2777778   0.2356902), wk =   0.0219479
        k(   50) = (   0.2777778   0.2777778  -0.3030303), wk =   0.0109739
        k(   51) = (   0.2777778   0.3888889   0.0336700), wk =   0.0438957
        k(   52) = (   0.2777778   0.3888889   0.1010101), wk =   0.0438957
        k(   53) = (   0.2777778   0.3888889   0.1683502), wk =   0.0438957
        k(   54) = (   0.2777778   0.3888889   0.2356902), wk =   0.0438957
        k(   55) = (   0.2777778   0.3888889  -0.3030303), wk =   0.0219479
        k(   56) = (   0.2777778  -0.5000000   0.0336700), wk =   0.0219479
        k(   57) = (   0.2777778  -0.5000000   0.1010101), wk =   0.0219479
        k(   58) = (   0.2777778  -0.5000000   0.1683502), wk =   0.0219479
        k(   59) = (   0.2777778  -0.5000000   0.2356902), wk =   0.0219479
        k(   60) = (   0.2777778  -0.5000000  -0.3030303), wk =   0.0109739
        k(   61) = (   0.3888889   0.3888889   0.0336700), wk =   0.0219479
        k(   62) = (   0.3888889   0.3888889   0.1010101), wk =   0.0219479
        k(   63) = (   0.3888889   0.3888889   0.1683502), wk =   0.0219479
        k(   64) = (   0.3888889   0.3888889   0.2356902), wk =   0.0219479
        k(   65) = (   0.3888889   0.3888889  -0.3030303), wk =   0.0109739
        k(   66) = (   0.3888889  -0.5000000   0.0336700), wk =   0.0219479
        k(   67) = (   0.3888889  -0.5000000   0.1010101), wk =   0.0219479
        k(   68) = (   0.3888889  -0.5000000   0.1683502), wk =   0.0219479
        k(   69) = (   0.3888889  -0.5000000   0.2356902), wk =   0.0219479
        k(   70) = (   0.3888889  -0.5000000  -0.3030303), wk =   0.0109739
        k(   71) = (  -0.5000000  -0.5000000   0.0336700), wk =   0.0054870
        k(   72) = (  -0.5000000  -0.5000000   0.1010101), wk =   0.0054870
        k(   73) = (  -0.5000000  -0.5000000   0.1683502), wk =   0.0054870
        k(   74) = (  -0.5000000  -0.5000000   0.2356902), wk =   0.0054870
        k(   75) = (  -0.5000000  -0.5000000  -0.3030303), wk =   0.0027435

     Dense  grid:   742173 G-vectors     FFT dimensions: (  96,  96, 160)

     Smooth grid:   398339 G-vectors     FFT dimensions: (  80,  80, 128)

     Estimated max dynamical RAM per process >     304.78 MB

     Estimated total dynamical RAM >      21.43 GB

     Check: negative core charge=   -0.000002

     Initial potential from superposition of free atoms

     starting charge  511.97959, renormalised to  512.00000
     Starting wfcs are  320 randomized atomic wfcs
     Checking if some PAW data can be deallocated... 

     total cpu time spent up to now is       40.9 secs

     Self-consistent Calculation

     iteration #  1     ecut=    71.00 Ry     beta= 0.10
     Davidson diagonalization with overlap
     ethr =  1.00E-02,  avg # of iterations =  3.8

     total cpu time spent up to now is      146.7 secs

     total energy              =  -13812.50835247 Ry
     estimated scf accuracy    <      11.74014037 Ry

     iteration #  2     ecut=    71.00 Ry     beta= 0.10
     Davidson diagonalization with overlap
     ethr =  2.29E-03,  avg # of iterations =  1.3

     total cpu time spent up to now is      224.6 secs

     total energy              =  -13812.23659843 Ry
     estimated scf accuracy    <       8.49266309 Ry

     iteration #  3     ecut=    71.00 Ry     beta= 0.10
     Davidson diagonalization with overlap
     ethr =  1.66E-03,  avg # of iterations =  1.3

     total cpu time spent up to now is      297.6 secs

     total energy              =  -13811.91630263 Ry
     estimated scf accuracy    <       3.38359951 Ry

     iteration #  4     ecut=    71.00 Ry     beta= 0.10
     Davidson diagonalization with overlap
     ethr =  6.61E-04,  avg # of iterations =  2.4

     total cpu time spent up to now is      381.9 secs

     total energy              =  -13811.58848941 Ry
     estimated scf accuracy    <       1.82899696 Ry

     iteration #  5     ecut=    71.00 Ry     beta= 0.10
     Davidson diagonalization with overlap
     ethr =  3.57E-04,  avg # of iterations =  4.0

     total cpu time spent up to now is      485.0 secs

     total energy              =  -13811.66154339 Ry
     estimated scf accuracy    <       0.59960013 Ry

     iteration #  6     ecut=    71.00 Ry     beta= 0.10
     Davidson diagonalization with overlap
     ethr =  1.17E-04,  avg # of iterations =  3.2

     total cpu time spent up to now is      590.8 secs

     total energy              =  -13811.90634516 Ry
     estimated scf accuracy    <       1.09938913 Ry

     iteration #  7     ecut=    71.00 Ry     beta= 0.10
     Davidson diagonalization with overlap
     ethr =  1.17E-04,  avg # of iterations =  1.3

     total cpu time spent up to now is      666.1 secs

     total energy              =  -13811.82535535 Ry
     estimated scf accuracy    <       1.52769968 Ry

     iteration #  8     ecut=    71.00 Ry     beta= 0.10
     Davidson diagonalization with overlap
     ethr =  1.17E-04,  avg # of iterations =  1.1

     total cpu time spent up to now is      738.3 secs

     total energy              =  -13811.78632964 Ry
     estimated scf accuracy    <       1.12331197 Ry

     iteration #  9     ecut=    71.00 Ry     beta= 0.10
     Davidson diagonalization with overlap
     ethr =  1.17E-04,  avg # of iterations =  1.1

     total cpu time spent up to now is      809.1 secs

     total energy              =  -13811.75641873 Ry
     estimated scf accuracy    <       0.91233007 Ry

     iteration # 10     ecut=    71.00 Ry     beta= 0.10
     Davidson diagonalization with overlap
     ethr =  1.17E-04,  avg # of iterations =  1.0

     total cpu time spent up to now is      880.1 secs

     total energy              =  -13811.73926326 Ry
     estimated scf accuracy    <       0.69875514 Ry

     iteration # 11     ecut=    71.00 Ry     beta= 0.10
     Davidson diagonalization with overlap
     ethr =  1.17E-04,  avg # of iterations =  1.1

     total cpu time spent up to now is      951.3 secs

     total energy              =  -13811.71505301 Ry
     estimated scf accuracy    <       0.60713178 Ry

     iteration # 12     ecut=    71.00 Ry     beta= 0.10
     Davidson diagonalization with overlap
     ethr =  1.17E-04,  avg # of iterations =  1.2

     total cpu time spent up to now is     1021.9 secs

     total energy              =  -13811.59355545 Ry
     estimated scf accuracy    <       0.43956412 Ry

     iteration # 13     ecut=    71.00 Ry     beta= 0.10
     Davidson diagonalization with overlap
     ethr =  8.59E-05,  avg # of iterations =  3.8

     total cpu time spent up to now is     1115.4 secs

     total energy              =  -13811.66818203 Ry
     estimated scf accuracy    <       0.03587857 Ry

     iteration # 14     ecut=    71.00 Ry     beta= 0.10
     Davidson diagonalization with overlap
     ethr =  7.01E-06,  avg # of iterations =  6.4

     total cpu time spent up to now is     1229.0 secs

     total energy              =  -13811.61785248 Ry
     estimated scf accuracy    <       0.22665160 Ry

     iteration # 15     ecut=    71.00 Ry     beta= 0.10
     Davidson diagonalization with overlap
     ethr =  7.01E-06,  avg # of iterations =  5.4

     total cpu time spent up to now is     1355.9 secs

     total energy              =  -13811.65226746 Ry
     estimated scf accuracy    <       0.00312467 Ry

     iteration # 16     ecut=    71.00 Ry     beta= 0.10
     Davidson diagonalization with overlap
     ethr =  6.10E-07,  avg # of iterations =  4.7

     total cpu time spent up to now is     1459.8 secs

     total energy              =  -13811.65336153 Ry
     estimated scf accuracy    <       0.00588888 Ry

     iteration # 17     ecut=    71.00 Ry     beta= 0.10
     Davidson diagonalization with overlap
     ethr =  6.10E-07,  avg # of iterations =  2.0

     total cpu time spent up to now is     1540.7 secs

     total energy              =  -13811.65440653 Ry
     estimated scf accuracy    <       0.00324182 Ry

     iteration # 18     ecut=    71.00 Ry     beta= 0.10
     Davidson diagonalization with overlap
     ethr =  6.10E-07,  avg # of iterations =  3.8

     total cpu time spent up to now is     1639.7 secs

     total energy              =  -13811.65398236 Ry
     estimated scf accuracy    <       0.00396294 Ry

     iteration # 19     ecut=    71.00 Ry     beta= 0.10
     Davidson diagonalization with overlap
     ethr =  6.10E-07,  avg # of iterations =  2.8

     total cpu time spent up to now is     1737.4 secs

     total energy              =  -13811.65458186 Ry
     estimated scf accuracy    <       0.00010392 Ry

     iteration # 20     ecut=    71.00 Ry     beta= 0.10
     Davidson diagonalization with overlap
     ethr =  2.03E-08,  avg # of iterations =  3.5

     total cpu time spent up to now is     1827.0 secs

     total energy              =  -13811.65477756 Ry
     estimated scf accuracy    <       0.00007244 Ry

     iteration # 21     ecut=    71.00 Ry     beta= 0.10
     Davidson diagonalization with overlap
     ethr =  1.41E-08,  avg # of iterations =  2.0

     total cpu time spent up to now is     1916.2 secs

     total energy              =  -13811.65483111 Ry
     estimated scf accuracy    <       0.00004204 Ry

     iteration # 22     ecut=    71.00 Ry     beta= 0.10
     Davidson diagonalization with overlap
     ethr =  8.21E-09,  avg # of iterations =  3.8

     total cpu time spent up to now is     2015.5 secs

     total energy              =  -13811.65484347 Ry
     estimated scf accuracy    <       0.00002419 Ry

     iteration # 23     ecut=    71.00 Ry     beta= 0.10
     Davidson diagonalization with overlap
     ethr =  4.72E-09,  avg # of iterations =  2.2

     total cpu time spent up to now is     2106.4 secs

     total energy              =  -13811.65484808 Ry
     estimated scf accuracy    <       0.00000280 Ry

     iteration # 24     ecut=    71.00 Ry     beta= 0.10
     Davidson diagonalization with overlap
     ethr =  5.46E-10,  avg # of iterations =  2.1

     total cpu time spent up to now is     2189.7 secs

     total energy              =  -13811.65485251 Ry
     estimated scf accuracy    <       0.00000224 Ry

     iteration # 25     ecut=    71.00 Ry     beta= 0.10
     Davidson diagonalization with overlap
     ethr =  4.37E-10,  avg # of iterations =  3.2

     total cpu time spent up to now is     2291.7 secs

     total energy              =  -13811.65485366 Ry
     estimated scf accuracy    <       0.00000416 Ry

     iteration # 26     ecut=    71.00 Ry     beta= 0.10
     Davidson diagonalization with overlap
     ethr =  4.37E-10,  avg # of iterations =  3.0

     total cpu time spent up to now is     2384.5 secs

     End of self-consistent calculation

          k = 0.0556 0.0556 0.0337 ( 49784 PWs)   bands (ev):

   -60.8507 -60.7714 -60.7714 -60.7564 -60.7564 -60.7418 -60.7394 -60.7336
   -60.7336 -60.7296 -60.7111 -60.7111 -60.7056 -60.7056 -60.6795 -60.6795
   -60.3232 -60.3216 -60.2768 -60.2768 -60.2766 -60.2766 -60.2738 -60.2738
   -60.2730 -60.2730 -60.2677 -60.2677 -60.2676 -60.2676 -60.2191 -60.2191
   -31.1716 -31.1709 -31.1709 -31.1656 -31.1352 -31.1352 -31.0650 -30.9639
   -30.9639 -30.9622 -30.9622 -30.9170 -30.9170 -30.8899 -30.8899 -30.8743
   -30.8743 -30.8642 -30.8642 -30.8294 -30.8294 -30.7883 -30.7833 -30.7833
   -30.7748 -30.7554 -30.7554 -30.7272 -30.7272 -30.6803 -30.6641 -30.6641
   -30.6538 -30.6538 -30.6238 -30.6238 -30.5930 -30.5918 -30.5379 -30.5379
   -30.5280 -30.5280 -30.4837 -30.4837 -30.4585 -30.4585 -30.4494 -30.4460
   -30.4460 -30.4334 -30.4256 -30.4237 -30.4190 -30.4099 -30.4099 -30.3958
   -30.2961 -30.2961 -30.2922 -30.2922 -30.2649 -30.2649 -30.2559 -30.2559
   -30.2553 -30.2553 -30.2550 -30.2550 -30.2215 -30.2214 -30.2189 -30.2189
   -30.2070 -30.1712 -30.1685 -30.1684 -30.1666 -30.1666 -30.1617 -30.1578
   -30.1578 -30.1505 -30.1505 -30.1427 -30.1427 -30.1372 -30.1372 -30.1320
   -30.0379 -30.0348 -30.0317 -30.0274 -30.0077 -30.0077 -30.0041 -30.0041
     5.0844   6.3125   6.4618   6.4618   6.7368   6.7489   6.7541   6.7548
     6.7548   6.7799   6.9618   6.9618   7.2040   7.2040   7.2791   7.3828
     7.3828   7.6462   7.6462   7.6675   7.8217   7.8217   7.8563   7.8563
     8.0151   8.0151   8.0518   8.0683   8.0785   8.0785   8.1256   8.1256
     8.3472   8.3472   8.3835   8.3835   8.4070   8.4070   8.4564   8.4564
     8.5993   8.5993   8.6792   8.6792   8.7146   8.8162   8.8162   8.8256
     8.8256   9.0782   9.0782   9.0985   9.1192   9.1192   9.1235   9.1235
     9.2083   9.2083   9.3522   9.3817   9.3817   9.4298   9.5354   9.5528
     9.5528   9.5831   9.6190   9.6190   9.7723   9.7723   9.8779   9.8779
     9.9282   9.9282   9.9450   9.9532  10.0690  10.0886  10.2433  10.2536
    10.2536  10.3037  10.5393  10.5393  10.6124  10.6124  10.6282  10.6282
    10.7407  10.7407  10.8782  10.8782  10.8868  10.8868  10.8993  10.9043
    10.9043  10.9622  11.0060  11.0259  11.0561  11.0561  11.2321  11.2321
    11.2473  11.2905  11.2905  11.3609  11.3609  11.3754  11.4823  11.4823
    11.5565  11.5565  11.6649  11.6649  11.6707  11.6707  11.7074  11.8262
    11.8262  11.8589  11.8589  11.9833  11.9833  12.2405  12.2405  12.2408
    12.2690  12.2690  12.3168  12.4204  12.5250  12.5250  12.5560  12.5569
    12.5810  12.5810  12.5854  12.5854  12.6352  12.7415  12.7415  12.7640
    12.7858  12.7858  12.9270  12.9632  12.9632  13.3144  13.3144  13.3515
    13.4550  13.4615  13.4615  13.5182  13.5847  13.6974  13.7251  13.7251
    13.7521  13.7720  13.7720  13.7830  13.7830  13.9307  14.1267  14.1927
    14.1927  14.2670  14.2670  14.5376  14.5376  14.5450  14.6811  14.6811
    14.7239  15.4239  15.4587

          k = 0.0556 0.0556 0.1010 ( 49795 PWs)   bands (ev):

   -60.8507 -60.7714 -60.7714 -60.7564 -60.7564 -60.7418 -60.7394 -60.7336
   -60.7336 -60.7296 -60.7111 -60.7111 -60.7056 -60.7056 -60.6795 -60.6795
   -60.3232 -60.3216 -60.2768 -60.2768 -60.2766 -60.2766 -60.2738 -60.2738
   -60.2730 -60.2730 -60.2677 -60.2677 -60.2676 -60.2676 -60.2191 -60.2191
   -31.1716 -31.1709 -31.1709 -31.1656 -31.1352 -31.1352 -31.0650 -30.9639
   -30.9639 -30.9622 -30.9622 -30.9170 -30.9170 -30.8899 -30.8899 -30.8743
   -30.8743 -30.8642 -30.8642 -30.8295 -30.8295 -30.7883 -30.7833 -30.7833
   -30.7748 -30.7554 -30.7554 -30.7272 -30.7272 -30.6803 -30.6641 -30.6641
   -30.6538 -30.6538 -30.6238 -30.6238 -30.5929 -30.5918 -30.5379 -30.5379
   -30.5280 -30.5280 -30.4837 -30.4837 -30.4585 -30.4585 -30.4494 -30.4460
   -30.4460 -30.4334 -30.4256 -30.4236 -30.4190 -30.4099 -30.4099 -30.3958
   -30.2961 -30.2961 -30.2922 -30.2922 -30.2649 -30.2649 -30.2559 -30.2559
   -30.2553 -30.2553 -30.2550 -30.2550 -30.2215 -30.2215 -30.2189 -30.2189
   -30.2070 -30.1712 -30.1685 -30.1685 -30.1666 -30.1666 -30.1617 -30.1578
   -30.1578 -30.1505 -30.1505 -30.1427 -30.1427 -30.1372 -30.1372 -30.1319
   -30.0380 -30.0348 -30.0317 -30.0274 -30.0077 -30.0077 -30.0041 -30.0041
     5.0845   6.3125   6.4618   6.4618   6.7368   6.7489   6.7541   6.7548
     6.7548   6.7793   6.9618   6.9618   7.2040   7.2040   7.2794   7.3828
     7.3828   7.6461   7.6462   7.6675   7.8217   7.8217   7.8563   7.8563
     8.0151   8.0151   8.0517   8.0682   8.0784   8.0784   8.1256   8.1256
     8.3472   8.3472   8.3835   8.3835   8.4070   8.4070   8.4563   8.4563
     8.5994   8.5994   8.6792   8.6792   8.7146   8.8162   8.8162   8.8256
     8.8256   9.0781   9.0781   9.0985   9.1192   9.1192   9.1235   9.1235
     9.2083   9.2083   9.3522   9.3813   9.3813   9.4298   9.5354   9.5528
     9.5528   9.5831   9.6183   9.6183   9.7729   9.7729   9.8788   9.8788
     9.9282   9.9282   9.9450   9.9532  10.0689  10.0886  10.2440  10.2541
    10.2541  10.3041  10.5394  10.5394  10.6123  10.6123  10.6282  10.6282
    10.7386  10.7386  10.8781  10.8781  10.8840  10.8848  10.8848  10.9044
    10.9044  10.9821  11.0060  11.0259  11.0561  11.0561  11.2341  11.2341
    11.2473  11.2905  11.2905  11.3629  11.3629  11.3870  11.4823  11.4823
    11.5579  11.5579  11.6650  11.6650  11.6707  11.6707  11.7074  11.8251
    11.8251  11.8574  11.8574  11.9840  11.9840  12.2406  12.2406  12.2408
    12.2675  12.2675  12.3155  12.4175  12.5251  12.5251  12.5428  12.5569
    12.5854  12.5854  12.5860  12.5860  12.6352  12.7458  12.7458  12.7640
    12.7854  12.7854  12.9270  12.9629  12.9629  13.2846  13.3143  13.3143
    13.4550  13.4618  13.4618  13.5182  13.5847  13.7108  13.7108  13.7139
    13.7521  13.7719  13.7719  13.7830  13.7830  13.9307  14.1292  14.1792
    14.1792  14.2670  14.2670  14.5417  14.5417  14.5525  14.6811  14.6811
    14.8109  15.4576  15.4579

          k = 0.0556 0.0556 0.1684 ( 49808 PWs)   bands (ev):

   -60.8507 -60.7714 -60.7714 -60.7564 -60.7564 -60.7417 -60.7394 -60.7336
   -60.7336 -60.7296 -60.7111 -60.7111 -60.7057 -60.7056 -60.6795 -60.6795
   -60.3232 -60.3216 -60.2768 -60.2768 -60.2766 -60.2766 -60.2738 -60.2738
   -60.2730 -60.2730 -60.2677 -60.2677 -60.2676 -60.2676 -60.2191 -60.2191
   -31.1716 -31.1709 -31.1709 -31.1656 -31.1352 -31.1352 -31.0650 -30.9639
   -30.9639 -30.9622 -30.9622 -30.9170 -30.9170 -30.8899 -30.8899 -30.8744
   -30.8744 -30.8642 -30.8642 -30.8295 -30.8295 -30.7883 -30.7833 -30.7833
   -30.7748 -30.7554 -30.7554 -30.7272 -30.7272 -30.6802 -30.6641 -30.6641
   -30.6538 -30.6538 -30.6238 -30.6238 -30.5929 -30.5918 -30.5379 -30.5379
   -30.5280 -30.5280 -30.4838 -30.4838 -30.4585 -30.4585 -30.4494 -30.4460
   -30.4460 -30.4334 -30.4256 -30.4236 -30.4190 -30.4099 -30.4099 -30.3958
   -30.2961 -30.2961 -30.2922 -30.2922 -30.2649 -30.2649 -30.2559 -30.2559
   -30.2553 -30.2553 -30.2550 -30.2550 -30.2215 -30.2215 -30.2189 -30.2189
   -30.2070 -30.1712 -30.1685 -30.1685 -30.1666 -30.1666 -30.1617 -30.1578
   -30.1578 -30.1505 -30.1505 -30.1427 -30.1427 -30.1372 -30.1372 -30.1319
   -30.0380 -30.0348 -30.0317 -30.0273 -30.0077 -30.0077 -30.0041 -30.0041
     5.0847   6.3123   6.4618   6.4618   6.7368   6.7489   6.7541   6.7548
     6.7548   6.7783   6.9618   6.9618   7.2041   7.2041   7.2798   7.3829
     7.3829   7.6461   7.6461   7.6675   7.8217   7.8217   7.8563   7.8563
     8.0151   8.0151   8.0516   8.0681   8.0783   8.0783   8.1255   8.1255
     8.3472   8.3472   8.3834   8.3834   8.4069   8.4069   8.4563   8.4563
     8.5996   8.5996   8.6792   8.6792   8.7146   8.8162   8.8162   8.8256
     8.8256   9.0781   9.0781   9.0983   9.1192   9.1192   9.1235   9.1235
     9.2082   9.2082   9.3522   9.3807   9.3807   9.4298   9.5353   9.5527
     9.5527   9.5830   9.6172   9.6172   9.7739   9.7739   9.8802   9.8802
     9.9283   9.9283   9.9450   9.9532  10.0688  10.0886  10.2452  10.2549
    10.2549  10.3048  10.5395  10.5395  10.6121  10.6121  10.6281  10.6281
    10.7355  10.7355  10.8691  10.8780  10.8780  10.8817  10.8817  10.9044
    10.9044  11.0037  11.0060  11.0259  11.0561  11.0561  11.2372  11.2372
    11.2473  11.2904  11.2904  11.3660  11.3660  11.4066  11.4824  11.4824
    11.5601  11.5601  11.6652  11.6652  11.6707  11.6707  11.7074  11.8234
    11.8234  11.8551  11.8551  11.9852  11.9852  12.2407  12.2407  12.2408
    12.2653  12.2653  12.3136  12.4130  12.5195  12.5251  12.5251  12.5569
    12.5855  12.5855  12.5938  12.5938  12.6352  12.7526  12.7526  12.7640
    12.7849  12.7849  12.9270  12.9625  12.9625  13.2016  13.3142  13.3142
    13.4550  13.4623  13.4623  13.5182  13.5847  13.6891  13.6891  13.7290
    13.7521  13.7719  13.7719  13.7829  13.7829  13.9306  14.1329  14.1588
    14.1588  14.2670  14.2670  14.5481  14.5481  14.5641  14.6811  14.6811
    14.9410  15.4560  15.5129

          k = 0.0556 0.0556 0.2357 ( 49825 PWs)   bands (ev):

   -60.8507 -60.7714 -60.7714 -60.7564 -60.7564 -60.7417 -60.7394 -60.7336
   -60.7336 -60.7296 -60.7111 -60.7111 -60.7057 -60.7056 -60.6795 -60.6795
   -60.3232 -60.3216 -60.2768 -60.2768 -60.2766 -60.2766 -60.2738 -60.2738
   -60.2730 -60.2730 -60.2677 -60.2677 -60.2676 -60.2676 -60.2191 -60.2191
   -31.1716 -31.1709 -31.1709 -31.1656 -31.1352 -31.1352 -31.0650 -30.9639
   -30.9639 -30.9622 -30.9622 -30.9170 -30.9170 -30.8899 -30.8899 -30.8744
   -30.8744 -30.8642 -30.8642 -30.8295 -30.8295 -30.7883 -30.7833 -30.7833
   -30.7748 -30.7554 -30.7554 -30.7272 -30.7272 -30.6802 -30.6641 -30.6641
   -30.6539 -30.6539 -30.6238 -30.6238 -30.5930 -30.5918 -30.5379 -30.5379
   -30.5280 -30.5280 -30.4838 -30.4838 -30.4585 -30.4585 -30.4494 -30.4460
   -30.4460 -30.4334 -30.4256 -30.4236 -30.4190 -30.4099 -30.4099 -30.3958
   -30.2961 -30.2961 -30.2922 -30.2922 -30.2649 -30.2649 -30.2559 -30.2559
   -30.2553 -30.2553 -30.2550 -30.2550 -30.2215 -30.2215 -30.2189 -30.2189
   -30.2070 -30.1712 -30.1685 -30.1685 -30.1666 -30.1666 -30.1617 -30.1578
   -30.1578 -30.1505 -30.1505 -30.1427 -30.1427 -30.1372 -30.1372 -30.1319
   -30.0380 -30.0348 -30.0317 -30.0273 -30.0077 -30.0077 -30.0041 -30.0041
     5.0849   6.3122   6.4618   6.4618   6.7369   6.7489   6.7541   6.7549
     6.7549   6.7775   6.9618   6.9618   7.2042   7.2042   7.2802   7.3829
     7.3829   7.6461   7.6461   7.6675   7.8217   7.8217   7.8563   7.8563
     8.0151   8.0151   8.0514   8.0681   8.0782   8.0782   8.1254   8.1254
     8.3472   8.3473   8.3834   8.3834   8.4069   8.4069   8.4563   8.4563
     8.5997   8.5997   8.6791   8.6791   8.7146   8.8162   8.8162   8.8256
     8.8256   9.0780   9.0781   9.0982   9.1192   9.1192   9.1235   9.1235
     9.2081   9.2082   9.3522   9.3801   9.3801   9.4298   9.5353   9.5527
     9.5527   9.5830   9.6163   9.6163   9.7748   9.7748   9.8814   9.8814
     9.9283   9.9283   9.9450   9.9532  10.0687  10.0886  10.2462  10.2556
    10.2556  10.3054  10.5396  10.5396  10.6120  10.6120  10.6281  10.6281
    10.7327  10.7327  10.8595  10.8780  10.8780  10.8790  10.8790  10.9045
    10.9045  11.0060  11.0186  11.0259  11.0562  11.0562  11.2399  11.2399
    11.2473  11.2904  11.2904  11.3687  11.3687  11.4259  11.4824  11.4824
    11.5620  11.5620  11.6655  11.6655  11.6707  11.6707  11.7075  11.8219
    11.8219  11.8530  11.8530  11.9861  11.9861  12.2408  12.2408  12.2408
    12.2633  12.2633  12.3119  12.4091  12.4954  12.5252  12.5252  12.5569
    12.5855  12.5855  12.6008  12.6008  12.6352  12.7586  12.7586  12.7640
    12.7844  12.7844  12.9270  12.9622  12.9622  13.1413  13.3140  13.3140
    13.4550  13.4626  13.4626  13.5182  13.5847  13.6702  13.6702  13.7374
    13.7521  13.7718  13.7718  13.7829  13.7829  13.9306  14.1362  14.1412
    14.1412  14.2670  14.2671  14.5537  14.5537  14.5744  14.6811  14.6811
    15.0545  15.4545  15.5648

          k = 0.0556 0.0556-0.3030 ( 49816 PWs)   bands (ev):

   -60.8507 -60.7714 -60.7714 -60.7564 -60.7564 -60.7417 -60.7394 -60.7336
   -60.7336 -60.7296 -60.7111 -60.7111 -60.7057 -60.7056 -60.6795 -60.6795
   -60.3232 -60.3216 -60.2768 -60.2768 -60.2766 -60.2766 -60.2738 -60.2738
   -60.2730 -60.2730 -60.2677 -60.2677 -60.2676 -60.2676 -60.2191 -60.2191
   -31.1716 -31.1709 -31.1709 -31.1656 -31.1352 -31.1352 -31.0650 -30.9639
   -30.9639 -30.9622 -30.9622 -30.9170 -30.9170 -30.8899 -30.8899 -30.8744
   -30.8744 -30.8642 -30.8642 -30.8295 -30.8295 -30.7883 -30.7833 -30.7833
   -30.7748 -30.7554 -30.7554 -30.7272 -30.7272 -30.6802 -30.6641 -30.6641
   -30.6539 -30.6539 -30.6238 -30.6238 -30.5929 -30.5918 -30.5378 -30.5378
   -30.5280 -30.5280 -30.4838 -30.4838 -30.4585 -30.4585 -30.4494 -30.4460
   -30.4460 -30.4334 -30.4256 -30.4236 -30.4190 -30.4099 -30.4099 -30.3958
   -30.2960 -30.2960 -30.2922 -30.2922 -30.2650 -30.2650 -30.2559 -30.2559
   -30.2553 -30.2553 -30.2550 -30.2550 -30.2215 -30.2215 -30.2189 -30.2189
   -30.2071 -30.1712 -30.1685 -30.1685 -30.1666 -30.1666 -30.1617 -30.1578
   -30.1578 -30.1506 -30.1506 -30.1427 -30.1427 -30.1372 -30.1372 -30.1319
   -30.0380 -30.0348 -30.0317 -30.0273 -30.0077 -30.0077 -30.0041 -30.0041
     5.0849   6.3122   6.4618   6.4618   6.7369   6.7489   6.7541   6.7549
     6.7549   6.7772   6.9618   6.9618   7.2042   7.2042   7.2803   7.3830
     7.3830   7.6461   7.6461   7.6675   7.8217   7.8217   7.8563   7.8563
     8.0151   8.0151   8.0514   8.0680   8.0782   8.0782   8.1253   8.1253
     8.3473   8.3473   8.3834   8.3834   8.4069   8.4069   8.4562   8.4562
     8.5998   8.5998   8.6791   8.6791   8.7146   8.8162   8.8162   8.8256
     8.8256   9.0780   9.0780   9.0982   9.1192   9.1192   9.1235   9.1235
     9.2081   9.2081   9.3522   9.3799   9.3799   9.4298   9.5352   9.5527
     9.5527   9.5830   9.6159   9.6159   9.7752   9.7752   9.8819   9.8819
     9.9284   9.9284   9.9450   9.9532  10.0687  10.0886  10.2466  10.2558
    10.2558  10.3057  10.5397  10.5397  10.6119  10.6119  10.6281  10.6281
    10.7317  10.7317  10.8562  10.8779  10.8779  10.8780  10.8780  10.9045
    10.9045  11.0060  11.0239  11.0259  11.0562  11.0562  11.2409  11.2409
    11.2473  11.2904  11.2904  11.3698  11.3698  11.4340  11.4824  11.4824
    11.5628  11.5628  11.6656  11.6656  11.6706  11.6707  11.7075  11.8213
    11.8213  11.8521  11.8521  11.9865  11.9865  12.2408  12.2409  12.2409
    12.2625  12.2625  12.3113  12.4076  12.4848  12.5252  12.5252  12.5569
    12.5855  12.5855  12.6036  12.6036  12.6352  12.7610  12.7610  12.7640
    12.7842  12.7842  12.9270  12.9621  12.9621  13.1201  13.3140  13.3140
    13.4550  13.4628  13.4628  13.5182  13.5847  13.6628  13.6628  13.7400
    13.7521  13.7718  13.7718  13.7829  13.7829  13.9306  14.1343  14.1343
    14.1375  14.2670  14.2671  14.5559  14.5559  14.5785  14.6811  14.6811
    15.0997  15.4540  15.5865

          k = 0.0556 0.1667 0.0337 ( 49810 PWs)   bands (ev):

   -60.8480 -60.7862 -60.7703 -60.7556 -60.7452 -60.7417 -60.7407 -60.7377
   -60.7281 -60.7258 -60.7166 -60.7116 -60.7065 -60.7004 -60.6820 -60.6803
   -60.3217 -60.3202 -60.2857 -60.2853 -60.2768 -60.2765 -60.2745 -60.2745
   -60.2722 -60.2722 -60.2680 -60.2678 -60.2587 -60.2587 -60.2208 -60.2207
   -31.1670 -31.1629 -31.1610 -31.1515 -31.1274 -31.1270 -31.0606 -30.9807
   -30.9773 -30.9749 -30.9739 -30.9690 -30.9512 -30.9419 -30.8865 -30.8794
   -30.8675 -30.8657 -30.8148 -30.7894 -30.7883 -30.7872 -30.7817 -30.7744
   -30.7689 -30.7619 -30.7617 -30.7422 -30.7035 -30.6992 -30.6889 -30.6670
   -30.6445 -30.6411 -30.6007 -30.5985 -30.5840 -30.5773 -30.5495 -30.5448
   -30.5342 -30.5210 -30.4776 -30.4698 -30.4649 -30.4623 -30.4570 -30.4532
   -30.4516 -30.4448 -30.4413 -30.4234 -30.4211 -30.4151 -30.3954 -30.3789
   -30.3293 -30.3289 -30.3253 -30.3155 -30.3009 -30.2924 -30.2901 -30.2831
   -30.2317 -30.2233 -30.2204 -30.2182 -30.1981 -30.1923 -30.1892 -30.1849
   -30.1834 -30.1751 -30.1711 -30.1687 -30.1679 -30.1623 -30.1610 -30.1585
   -30.1572 -30.1495 -30.1483 -30.1413 -30.1367 -30.1362 -30.1336 -30.1335
   -30.0466 -30.0439 -30.0368 -30.0309 -30.0193 -30.0191 -30.0086 -30.0084
     5.1655   6.3793   6.5150   6.5198   6.7601   6.7869   6.8035   6.8121
     6.8146   6.8481   6.9104   6.9956   6.9982   7.2024   7.3497   7.3857
     7.4131   7.6700   7.7055   7.7143   7.7154   7.7260   7.8181   7.8206
     7.8450   7.9035   7.9038   8.0387   8.0394   8.0522   8.0677   8.1028
     8.1097   8.2355   8.2925   8.3719   8.4488   8.4617   8.4648   8.4757
     8.4820   8.5292   8.5611   8.7448   8.8045   8.8268   8.8505   8.9356
     8.9471   8.9571   8.9653   9.0125   9.0689   9.0988   9.1332   9.1724
     9.2639   9.2897   9.4172   9.4663   9.4731   9.4881   9.5022   9.5508
     9.5857   9.6063   9.6869   9.7855   9.8235   9.8664   9.8819   9.9124
     9.9143   9.9373   9.9782  10.0281  10.0912  10.1264  10.1823  10.1962
    10.2089  10.2623  10.3440  10.4274  10.4812  10.5278  10.5283  10.6099
    10.6442  10.7143  10.7726  10.7829  10.7854  10.9286  10.9353  10.9497
    11.0593  11.0860  11.1017  11.1018  11.1038  11.1507  11.1692  11.1830
    11.1884  11.2098  11.2214  11.2836  11.4023  11.4243  11.4824  11.5129
    11.6447  11.6761  11.6981  11.7085  11.7955  11.8662  11.9274  11.9568
    11.9841  11.9889  11.9998  12.0291  12.0954  12.1155  12.1381  12.1470
    12.1930  12.2254  12.2510  12.3639  12.4247  12.4495  12.5203  12.5950
    12.6036  12.6727  12.6791  12.7207  12.7449  12.7755  12.8828  12.9003
    12.9160  12.9163  12.9274  12.9307  12.9490  13.1534  13.2467  13.2946
    13.3027  13.3250  13.3433  13.4271  13.4412  13.4680  13.6243  13.7242
    13.7450  13.7503  13.7730  13.8008  13.8303  13.9341  13.9574  13.9778
    14.1475  14.1991  14.4675  14.5428  14.5581  14.6007  14.7493  14.8974
    14.9703  15.0668  15.1876

          k = 0.0556 0.1667 0.1010 ( 49795 PWs)   bands (ev):

   -60.8480 -60.7862 -60.7703 -60.7556 -60.7452 -60.7417 -60.7407 -60.7377
   -60.7281 -60.7259 -60.7166 -60.7116 -60.7065 -60.7004 -60.6820 -60.6803
   -60.3217 -60.3202 -60.2857 -60.2853 -60.2768 -60.2765 -60.2745 -60.2745
   -60.2722 -60.2722 -60.2679 -60.2678 -60.2587 -60.2586 -60.2208 -60.2207
   -31.1670 -31.1629 -31.1610 -31.1515 -31.1274 -31.1270 -31.0607 -30.9807
   -30.9773 -30.9749 -30.9739 -30.9690 -30.9512 -30.9419 -30.8865 -30.8794
   -30.8675 -30.8658 -30.8148 -30.7894 -30.7883 -30.7872 -30.7817 -30.7744
   -30.7688 -30.7619 -30.7617 -30.7422 -30.7035 -30.6992 -30.6889 -30.6670
   -30.6444 -30.6411 -30.6007 -30.5985 -30.5840 -30.5773 -30.5495 -30.5448
   -30.5342 -30.5210 -30.4776 -30.4698 -30.4649 -30.4623 -30.4570 -30.4532
   -30.4516 -30.4449 -30.4413 -30.4234 -30.4211 -30.4151 -30.3954 -30.3790
   -30.3293 -30.3289 -30.3253 -30.3154 -30.3009 -30.2924 -30.2901 -30.2831
   -30.2317 -30.2233 -30.2204 -30.2182 -30.1981 -30.1923 -30.1892 -30.1849
   -30.1834 -30.1751 -30.1711 -30.1687 -30.1679 -30.1623 -30.1610 -30.1585
   -30.1572 -30.1495 -30.1483 -30.1413 -30.1367 -30.1362 -30.1336 -30.1335
   -30.0466 -30.0439 -30.0368 -30.0309 -30.0193 -30.0191 -30.0086 -30.0084
     5.1656   6.3792   6.5150   6.5198   6.7601   6.7869   6.8035   6.8121
     6.8146   6.8475   6.9104   6.9957   6.9982   7.2025   7.3500   7.3858
     7.4131   7.6700   7.7055   7.7143   7.7154   7.7260   7.8181   7.8206
     7.8449   7.9035   7.9037   8.0385   8.0393   8.0522   8.0676   8.1027
     8.1097   8.2355   8.2924   8.3720   8.4488   8.4617   8.4648   8.4757
     8.4820   8.5291   8.5612   8.7448   8.8045   8.8266   8.8506   8.9357
     8.9471   8.9570   8.9653   9.0124   9.0691   9.0985   9.1331   9.1725
     9.2639   9.2897   9.4172   9.4660   9.4731   9.4881   9.5022   9.5508
     9.5857   9.6063   9.6863   9.7860   9.8226   9.8666   9.8823   9.9131
     9.9143   9.9375   9.9782  10.0280  10.0910  10.1276  10.1830  10.1965
    10.2091  10.2626  10.3439  10.4274  10.4814  10.5275  10.5284  10.6098
    10.6418  10.7228  10.7726  10.7810  10.7854  10.9300  10.9333  10.9419
    11.0593  11.0842  11.1030  11.1031  11.1039  11.1507  11.1693  11.1830
    11.1881  11.2098  11.2214  11.2836  11.4022  11.4260  11.4836  11.5262
    11.6455  11.6764  11.6980  11.7105  11.7970  11.8646  11.9265  11.9562
    11.9864  11.9889  11.9982  12.0270  12.0945  12.1149  12.1335  12.1359
    12.1929  12.2254  12.2515  12.3663  12.4253  12.4547  12.5204  12.5923
    12.6076  12.6727  12.6775  12.7207  12.7449  12.7783  12.8830  12.9000
    12.9157  12.9166  12.9270  12.9347  12.9444  13.1622  13.2466  13.2945
    13.3026  13.3256  13.3283  13.4277  13.4414  13.4692  13.6084  13.7107
    13.7450  13.7504  13.7730  13.7959  13.8008  13.9343  13.9581  13.9779
    14.1475  14.1863  14.4676  14.5428  14.5594  14.6086  14.7366  14.9298
    14.9769  15.0701  15.2791

          k = 0.0556 0.1667 0.1684 ( 49786 PWs)   bands (ev):

   -60.8480 -60.7862 -60.7703 -60.7556 -60.7452 -60.7417 -60.7407 -60.7377
   -60.7281 -60.7259 -60.7166 -60.7116 -60.7065 -60.7004 -60.6820 -60.6803
   -60.3217 -60.3202 -60.2857 -60.2853 -60.2768 -60.2765 -60.2745 -60.2745
   -60.2722 -60.2722 -60.2680 -60.2678 -60.2587 -60.2586 -60.2208 -60.2207
   -31.1670 -31.1629 -31.1610 -31.1516 -31.1274 -31.1269 -31.0606 -30.9807
   -30.9773 -30.9749 -30.9739 -30.9690 -30.9512 -30.9419 -30.8865 -30.8793
   -30.8675 -30.8657 -30.8148 -30.7894 -30.7883 -30.7872 -30.7817 -30.7744
   -30.7689 -30.7619 -30.7617 -30.7422 -30.7035 -30.6991 -30.6889 -30.6670
   -30.6444 -30.6411 -30.6007 -30.5984 -30.5840 -30.5773 -30.5494 -30.5448
   -30.5342 -30.5210 -30.4776 -30.4698 -30.4649 -30.4624 -30.4570 -30.4532
   -30.4516 -30.4449 -30.4413 -30.4234 -30.4211 -30.4151 -30.3954 -30.3790
   -30.3293 -30.3289 -30.3253 -30.3154 -30.3009 -30.2924 -30.2901 -30.2831
   -30.2317 -30.2233 -30.2204 -30.2182 -30.1981 -30.1923 -30.1892 -30.1849
   -30.1834 -30.1752 -30.1711 -30.1687 -30.1679 -30.1623 -30.1610 -30.1585
   -30.1572 -30.1495 -30.1483 -30.1413 -30.1367 -30.1362 -30.1336 -30.1335
   -30.0466 -30.0439 -30.0368 -30.0309 -30.0193 -30.0191 -30.0086 -30.0085
     5.1658   6.3791   6.5150   6.5198   6.7602   6.7869   6.8035   6.8121
     6.8146   6.8466   6.9105   6.9957   6.9982   7.2025   7.3504   7.3858
     7.4132   7.6700   7.7055   7.7143   7.7154   7.7260   7.8181   7.8206
     7.8448   7.9035   7.9037   8.0383   8.0392   8.0522   8.0676   8.1026
     8.1096   8.2356   8.2924   8.3723   8.4488   8.4616   8.4648   8.4756
     8.4820   8.5291   8.5613   8.7448   8.8045   8.8265   8.8506   8.9359
     8.9471   8.9568   8.9654   9.0123   9.0693   9.0981   9.1329   9.1726
     9.2639   9.2897   9.4172   9.4656   9.4731   9.4881   9.5022   9.5507
     9.5857   9.6063   9.6855   9.7868   9.8213   9.8670   9.8830   9.9141
     9.9145   9.9378   9.9782  10.0277  10.0908  10.1294  10.1840  10.1970
    10.2095  10.2630  10.3437  10.4274  10.4816  10.5270  10.5285  10.6098
    10.6382  10.7370  10.7725  10.7781  10.7854  10.9291  10.9302  10.9322
    11.0594  11.0814  11.1039  11.1050  11.1052  11.1508  11.1693  11.1830
    11.1877  11.2098  11.2214  11.2837  11.4022  11.4286  11.4855  11.5477
    11.6467  11.6769  11.6979  11.7136  11.7999  11.8622  11.9251  11.9553
    11.9890  11.9898  11.9959  12.0238  12.0931  12.1107  12.1139  12.1324
    12.1929  12.2256  12.2521  12.3700  12.4261  12.4630  12.5204  12.5880
    12.6138  12.6727  12.6752  12.7207  12.7449  12.7827  12.8831  12.8996
    12.9154  12.9171  12.9262  12.9378  12.9408  13.1765  13.2465  13.2944
    13.3025  13.3056  13.3265  13.4285  13.4418  13.4724  13.5740  13.6903
    13.7450  13.7504  13.7588  13.7729  13.8008  13.9344  13.9593  13.9780
    14.1476  14.1670  14.4676  14.5429  14.5616  14.6205  14.7174  14.9818
    14.9871  15.0756  15.4959

          k = 0.0556 0.1667 0.2357 ( 49811 PWs)   bands (ev):

   -60.8480 -60.7862 -60.7703 -60.7556 -60.7452 -60.7417 -60.7407 -60.7377
   -60.7281 -60.7259 -60.7166 -60.7116 -60.7065 -60.7004 -60.6820 -60.6803
   -60.3217 -60.3202 -60.2857 -60.2853 -60.2768 -60.2765 -60.2745 -60.2745
   -60.2722 -60.2722 -60.2680 -60.2678 -60.2587 -60.2586 -60.2208 -60.2208
   -31.1670 -31.1629 -31.1610 -31.1516 -31.1274 -31.1270 -31.0606 -30.9807
   -30.9773 -30.9749 -30.9739 -30.9690 -30.9512 -30.9419 -30.8865 -30.8793
   -30.8675 -30.8657 -30.8148 -30.7894 -30.7883 -30.7872 -30.7817 -30.7743
   -30.7689 -30.7619 -30.7617 -30.7422 -30.7035 -30.6991 -30.6889 -30.6671
   -30.6445 -30.6411 -30.6007 -30.5984 -30.5840 -30.5773 -30.5495 -30.5448
   -30.5343 -30.5210 -30.4776 -30.4698 -30.4649 -30.4623 -30.4570 -30.4532
   -30.4516 -30.4449 -30.4413 -30.4234 -30.4211 -30.4151 -30.3954 -30.3790
   -30.3293 -30.3289 -30.3253 -30.3154 -30.3009 -30.2924 -30.2901 -30.2831
   -30.2317 -30.2233 -30.2204 -30.2182 -30.1981 -30.1923 -30.1892 -30.1849
   -30.1834 -30.1752 -30.1711 -30.1687 -30.1679 -30.1623 -30.1610 -30.1585
   -30.1573 -30.1495 -30.1483 -30.1413 -30.1367 -30.1362 -30.1336 -30.1335
   -30.0466 -30.0439 -30.0368 -30.0309 -30.0193 -30.0191 -30.0086 -30.0085
     5.1659   6.3790   6.5150   6.5198   6.7602   6.7869   6.8035   6.8121
     6.8146   6.8458   6.9106   6.9957   6.9982   7.2026   7.3508   7.3858
     7.4132   7.6700   7.7055   7.7143   7.7154   7.7259   7.8181   7.8206
     7.8448   7.9035   7.9036   8.0380   8.0390   8.0522   8.0675   8.1025
     8.1095   8.2357   8.2923   8.3725   8.4488   8.4616   8.4648   8.4756
     8.4820   8.5291   8.5614   8.7448   8.8045   8.8263   8.8507   8.9360
     8.9471   8.9567   8.9654   9.0123   9.0696   9.0978   9.1327   9.1726
     9.2640   9.2896   9.4172   9.4652   9.4731   9.4881   9.5022   9.5507
     9.5857   9.6062   9.6847   9.7875   9.8201   9.8674   9.8836   9.9145
     9.9151   9.9380   9.9782  10.0275  10.0907  10.1309  10.1849  10.1975
    10.2099  10.2634  10.3436  10.4274  10.4817  10.5265  10.5286  10.6098
    10.6350  10.7510  10.7725  10.7756  10.7854  10.9164  10.9275  10.9341
    11.0594  11.0789  11.1040  11.1066  11.1069  11.1508  11.1694  11.1829
    11.1874  11.2099  11.2214  11.2838  11.4021  11.4308  11.4871  11.5679
    11.6478  11.6773  11.6977  11.7165  11.8035  11.8602  11.9239  11.9545
    11.9890  11.9927  11.9938  12.0210  12.0881  12.0920  12.1131  12.1293
    12.1929  12.2257  12.2525  12.3731  12.4268  12.4705  12.5204  12.5843
    12.6194  12.6727  12.6731  12.7208  12.7449  12.7867  12.8832  12.8993
    12.9151  12.9176  12.9254  12.9322  12.9463  13.1905  13.2464  13.2857
    13.2944  13.3024  13.3272  13.4292  13.4421  13.4802  13.5310  13.6726
    13.7383  13.7450  13.7504  13.7728  13.8007  13.9345  13.9602  13.9781
    14.1476  14.1503  14.4676  14.5429  14.5635  14.6309  14.7007  14.9961
    15.0306  15.0809  15.4946

          k = 0.0556 0.1667-0.3030 ( 49820 PWs)   bands (ev):

   -60.8480 -60.7862 -60.7703 -60.7556 -60.7452 -60.7417 -60.7407 -60.7377
   -60.7281 -60.7259 -60.7166 -60.7116 -60.7065 -60.7004 -60.6820 -60.6803
   -60.3217 -60.3202 -60.2857 -60.2853 -60.2768 -60.2765 -60.2745 -60.2745
   -60.2722 -60.2722 -60.2680 -60.2678 -60.2587 -60.2587 -60.2208 -60.2208
   -31.1670 -31.1629 -31.1610 -31.1516 -31.1274 -31.1270 -31.0606 -30.9807
   -30.9773 -30.9749 -30.9739 -30.9690 -30.9512 -30.9419 -30.8865 -30.8793
   -30.8675 -30.8657 -30.8148 -30.7894 -30.7883 -30.7872 -30.7817 -30.7743
   -30.7689 -30.7619 -30.7617 -30.7422 -30.7036 -30.6991 -30.6890 -30.6670
   -30.6445 -30.6411 -30.6008 -30.5984 -30.5840 -30.5773 -30.5495 -30.5448
   -30.5343 -30.5210 -30.4776 -30.4698 -30.4649 -30.4623 -30.4570 -30.4532
   -30.4516 -30.4448 -30.4413 -30.4234 -30.4211 -30.4151 -30.3954 -30.3790
   -30.3293 -30.3289 -30.3254 -30.3154 -30.3009 -30.2924 -30.2901 -30.2831
   -30.2317 -30.2233 -30.2204 -30.2183 -30.1981 -30.1923 -30.1892 -30.1849
   -30.1834 -30.1751 -30.1711 -30.1687 -30.1679 -30.1623 -30.1610 -30.1585
   -30.1572 -30.1496 -30.1483 -30.1413 -30.1367 -30.1363 -30.1336 -30.1335
   -30.0466 -30.0439 -30.0368 -30.0309 -30.0193 -30.0191 -30.0086 -30.0085
     5.1660   6.3789   6.5150   6.5198   6.7602   6.7869   6.8035   6.8121
     6.8146   6.8454   6.9107   6.9957   6.9982   7.2026   7.3509   7.3859
     7.4132   7.6700   7.7055   7.7143   7.7154   7.7259   7.8181   7.8206
     7.8447   7.9035   7.9036   8.0380   8.0390   8.0522   8.0675   8.1024
     8.1095   8.2357   8.2922   8.3725   8.4488   8.4616   8.4648   8.4756
     8.4820   8.5291   8.5614   8.7448   8.8045   8.8263   8.8507   8.9360
     8.9471   8.9566   8.9654   9.0122   9.0697   9.0977   9.1326   9.1727
     9.2640   9.2896   9.4172   9.4651   9.4731   9.4881   9.5022   9.5506
     9.5857   9.6062   9.6844   9.7877   9.8196   9.8675   9.8838   9.9146
     9.9154   9.9381   9.9782  10.0275  10.0906  10.1316  10.1853  10.1976
    10.2100  10.2636  10.3435  10.4274  10.4818  10.5263  10.5287  10.6097
    10.6337  10.7571  10.7725  10.7746  10.7854  10.9109  10.9265  10.9348
    11.0594  11.0780  11.1040  11.1072  11.1076  11.1508  11.1694  11.1829
    11.1872  11.2099  11.2214  11.2838  11.4021  11.4317  11.4877  11.5763
    11.6482  11.6774  11.6977  11.7176  11.8053  11.8594  11.9234  11.9542
    11.9890  11.9930  11.9938  12.0199  12.0783  12.0915  12.1127  12.1280
    12.1929  12.2258  12.2527  12.3744  12.4271  12.4735  12.5205  12.5828
    12.6217  12.6723  12.6727  12.7208  12.7449  12.7883  12.8833  12.8992
    12.9149  12.9178  12.9251  12.9301  12.9485  13.1966  13.2463  13.2779
    13.2943  13.3024  13.3275  13.4295  13.4422  13.4965  13.4992  13.6656
    13.7325  13.7450  13.7504  13.7728  13.8007  13.9345  13.9606  13.9781
    14.1438  14.1476  14.4676  14.5429  14.5643  14.6349  14.6943  14.9997
    15.0509  15.0831  15.4941

          k = 0.0556 0.2778 0.0337 ( 49781 PWs)   bands (ev):

   -60.8427 -60.8004 -60.7681 -60.7540 -60.7508 -60.7416 -60.7386 -60.7277
   -60.7229 -60.7224 -60.7219 -60.7127 -60.7082 -60.6956 -60.6870 -60.6819
   -60.3187 -60.3173 -60.2941 -60.2936 -60.2766 -60.2764 -60.2751 -60.2751
   -60.2713 -60.2713 -60.2683 -60.2682 -60.2501 -60.2500 -60.2240 -60.2240
   -31.1538 -31.1448 -31.1423 -31.1296 -31.1121 -31.1109 -31.0521 -31.0183
   -31.0116 -31.0019 -30.9978 -30.9934 -30.9906 -30.9895 -30.8978 -30.8872
   -30.8540 -30.8407 -30.7875 -30.7872 -30.7737 -30.7689 -30.7685 -30.7622
   -30.7579 -30.7463 -30.7451 -30.7415 -30.7397 -30.7262 -30.6878 -30.6456
   -30.6286 -30.6170 -30.6072 -30.5644 -30.5623 -30.5583 -30.5532 -30.5462
   -30.5419 -30.5180 -30.4888 -30.4818 -30.4784 -30.4752 -30.4655 -30.4573
   -30.4492 -30.4418 -30.4364 -30.4360 -30.4135 -30.4131 -30.3818 -30.3641
   -30.3630 -30.3585 -30.3534 -30.3352 -30.3333 -30.3301 -30.3232 -30.3047
   -30.1993 -30.1973 -30.1860 -30.1844 -30.1843 -30.1772 -30.1741 -30.1717
   -30.1688 -30.1669 -30.1640 -30.1624 -30.1610 -30.1590 -30.1564 -30.1560
   -30.1538 -30.1526 -30.1455 -30.1360 -30.1314 -30.1294 -30.1196 -30.1154
   -30.0636 -30.0610 -30.0438 -30.0419 -30.0387 -30.0376 -30.0211 -30.0204
     5.3248   6.5098   6.5569   6.6183   6.6328   6.8216   6.8687   6.8915
     6.9146   6.9280   6.9804   7.0627   7.0731   7.1814   7.3132   7.3633
     7.4581   7.4819   7.4873   7.5897   7.6239   7.6254   7.7812   7.8107
     7.8219   7.8452   7.8566   7.9412   7.9739   7.9927   8.0451   8.0697
     8.1207   8.1305   8.1430   8.1950   8.3843   8.4201   8.4440   8.4717
     8.4734   8.5131   8.6707   8.6988   8.7440   8.7614   8.7876   8.7904
     8.7977   8.8239   8.9201   9.0329   9.0838   9.2168   9.2731   9.3249
     9.3624   9.3914   9.3963   9.4266   9.5584   9.5824   9.5955   9.6091
     9.6156   9.7872   9.7960   9.8487   9.8491   9.8564   9.9146   9.9689
     9.9977   9.9991  10.0144  10.0345  10.0908  10.1182  10.1676  10.1856
    10.2067  10.2088  10.2213  10.3769  10.4228  10.4415  10.5002  10.5020
    10.5626  10.5928  10.5975  10.6521  10.7207  10.8366  10.8553  11.0180
    11.0246  11.0406  11.1438  11.1800  11.1969  11.2038  11.2215  11.2322
    11.2395  11.2775  11.3116  11.3782  11.5134  11.5372  11.5917  11.6830
    11.6968  11.7230  11.7388  11.7550  11.7952  11.8203  11.8526  11.8890
    11.9315  11.9800  11.9871  12.0956  12.1153  12.1844  12.1928  12.2386
    12.2715  12.3663  12.3701  12.3839  12.5340  12.5611  12.5615  12.6158
    12.7486  12.7830  12.8059  12.8097  12.8173  12.8589  12.8633  12.8659
    12.9059  12.9256  12.9381  12.9583  13.0318  13.0541  13.1046  13.1297
    13.2296  13.2423  13.2508  13.3551  13.3630  13.4090  13.4880  13.4941
    13.6922  13.7046  13.7308  13.7971  13.8216  13.9193  13.9310  13.9464
    14.1950  14.2184  14.3208  14.3323  14.3976  14.4113  14.5298  14.9871
    14.9905  15.3923  15.3983

          k = 0.0556 0.2778 0.1010 ( 49769 PWs)   bands (ev):

   -60.8427 -60.8004 -60.7681 -60.7540 -60.7508 -60.7416 -60.7385 -60.7277
   -60.7229 -60.7224 -60.7219 -60.7127 -60.7082 -60.6956 -60.6870 -60.6819
   -60.3187 -60.3173 -60.2941 -60.2936 -60.2766 -60.2764 -60.2751 -60.2751
   -60.2713 -60.2713 -60.2683 -60.2682 -60.2501 -60.2500 -60.2240 -60.2240
   -31.1538 -31.1448 -31.1424 -31.1296 -31.1121 -31.1109 -31.0521 -31.0183
   -31.0116 -31.0019 -30.9978 -30.9934 -30.9906 -30.9895 -30.8978 -30.8871
   -30.8540 -30.8407 -30.7875 -30.7872 -30.7737 -30.7689 -30.7685 -30.7622
   -30.7579 -30.7463 -30.7451 -30.7414 -30.7397 -30.7261 -30.6878 -30.6456
   -30.6286 -30.6170 -30.6072 -30.5644 -30.5623 -30.5583 -30.5532 -30.5462
   -30.5419 -30.5180 -30.4888 -30.4818 -30.4784 -30.4752 -30.4655 -30.4573
   -30.4492 -30.4418 -30.4364 -30.4360 -30.4135 -30.4131 -30.3818 -30.3641
   -30.3630 -30.3585 -30.3534 -30.3352 -30.3333 -30.3301 -30.3232 -30.3046
   -30.1993 -30.1973 -30.1860 -30.1844 -30.1843 -30.1772 -30.1741 -30.1717
   -30.1688 -30.1669 -30.1640 -30.1624 -30.1609 -30.1590 -30.1564 -30.1560
   -30.1538 -30.1526 -30.1454 -30.1360 -30.1313 -30.1294 -30.1196 -30.1154
   -30.0635 -30.0610 -30.0438 -30.0418 -30.0386 -30.0376 -30.0211 -30.0204
     5.3249   6.5098   6.5570   6.6183   6.6328   6.8216   6.8687   6.8916
     6.9146   6.9280   6.9798   7.0627   7.0732   7.1814   7.3132   7.3633
     7.4581   7.4818   7.4875   7.5897   7.6239   7.6254   7.7812   7.8107
     7.8219   7.8452   7.8564   7.9410   7.9739   7.9927   8.0450   8.0697
     8.1208   8.1305   8.1429   8.1951   8.3844   8.4200   8.4439   8.4717
     8.4733   8.5130   8.6708   8.6988   8.7440   8.7614   8.7876   8.7902
     8.7977   8.8237   8.9202   9.0329   9.0837   9.2170   9.2729   9.3249
     9.3631   9.3917   9.3963   9.4266   9.5584   9.5822   9.5955   9.6091
     9.6156   9.7877   9.7957   9.8491   9.8494   9.8568   9.9146   9.9688
     9.9972   9.9993  10.0144  10.0346  10.0904  10.1180  10.1678  10.1857
    10.2069  10.2089  10.2214  10.3771  10.4225  10.4480  10.5003  10.5031
    10.5627  10.5896  10.5974  10.6521  10.7219  10.8346  10.8563  11.0160
    11.0190  11.0412  11.1438  11.1800  11.1959  11.2038  11.2214  11.2322
    11.2395  11.2774  11.3100  11.3799  11.5135  11.5373  11.5975  11.6835
    11.6952  11.7113  11.7391  11.7525  11.7955  11.8252  11.8586  11.8889
    11.9314  11.9786  11.9867  12.0954  12.1146  12.1845  12.1925  12.2437
    12.2683  12.3688  12.3700  12.3878  12.5389  12.5552  12.5615  12.6301
    12.7499  12.7828  12.8057  12.8113  12.8158  12.8586  12.8632  12.8672
    12.9010  12.9261  12.9381  12.9581  13.0319  13.0394  13.1045  13.1287
    13.2278  13.2463  13.2508  13.3555  13.3640  13.4140  13.4857  13.4942
    13.6921  13.7046  13.7195  13.7970  13.8217  13.9194  13.9310  13.9459
    14.1950  14.2072  14.2708  14.3209  14.3987  14.4411  14.5291  14.9869
    15.0049  15.3862  15.3973

          k = 0.0556 0.2778 0.1684 ( 49772 PWs)   bands (ev):

   -60.8427 -60.8004 -60.7681 -60.7540 -60.7508 -60.7416 -60.7385 -60.7277
   -60.7229 -60.7224 -60.7219 -60.7127 -60.7083 -60.6956 -60.6870 -60.6819
   -60.3187 -60.3173 -60.2941 -60.2936 -60.2766 -60.2764 -60.2751 -60.2751
   -60.2713 -60.2713 -60.2683 -60.2683 -60.2501 -60.2500 -60.2240 -60.2240
   -31.1538 -31.1448 -31.1424 -31.1296 -31.1121 -31.1109 -31.0521 -31.0183
   -31.0116 -31.0019 -30.9978 -30.9934 -30.9906 -30.9895 -30.8978 -30.8871
   -30.8540 -30.8407 -30.7875 -30.7873 -30.7737 -30.7689 -30.7685 -30.7622
   -30.7579 -30.7463 -30.7451 -30.7414 -30.7397 -30.7261 -30.6878 -30.6456
   -30.6286 -30.6169 -30.6072 -30.5644 -30.5623 -30.5583 -30.5532 -30.5462
   -30.5419 -30.5180 -30.4888 -30.4818 -30.4784 -30.4752 -30.4655 -30.4573
   -30.4492 -30.4418 -30.4364 -30.4360 -30.4135 -30.4131 -30.3818 -30.3641
   -30.3630 -30.3585 -30.3534 -30.3352 -30.3333 -30.3301 -30.3232 -30.3046
   -30.1993 -30.1973 -30.1860 -30.1844 -30.1843 -30.1772 -30.1741 -30.1717
   -30.1688 -30.1669 -30.1640 -30.1625 -30.1609 -30.1590 -30.1564 -30.1560
   -30.1539 -30.1526 -30.1454 -30.1360 -30.1313 -30.1294 -30.1196 -30.1154
   -30.0635 -30.0610 -30.0438 -30.0418 -30.0387 -30.0376 -30.0211 -30.0204
     5.3251   6.5096   6.5571   6.6183   6.6328   6.8216   6.8687   6.8916
     6.9146   6.9280   6.9789   7.0627   7.0732   7.1814   7.3133   7.3633
     7.4581   7.4817   7.4879   7.5896   7.6238   7.6254   7.7812   7.8107
     7.8219   7.8452   7.8560   7.9408   7.9739   7.9927   8.0449   8.0697
     8.1209   8.1304   8.1427   8.1954   8.3845   8.4200   8.4438   8.4717
     8.4733   8.5130   8.6709   8.6988   8.7440   8.7614   8.7875   8.7900
     8.7977   8.8235   8.9203   9.0329   9.0836   9.2172   9.2727   9.3250
     9.3642   9.3920   9.3963   9.4266   9.5584   9.5819   9.5955   9.6092
     9.6156   9.7883   9.7951   9.8491   9.8504   9.8575   9.9147   9.9686
     9.9963   9.9996  10.0144  10.0347  10.0899  10.1178  10.1680  10.1860
    10.2073  10.2090  10.2216  10.3773  10.4220  10.4582  10.5004  10.5051
    10.5627  10.5846  10.5973  10.6521  10.7238  10.8315  10.8580  11.0102
    11.0128  11.0422  11.1438  11.1800  11.1944  11.2038  11.2213  11.2321
    11.2396  11.2774  11.3076  11.3824  11.5138  11.5373  11.6087  11.6844
    11.6925  11.6927  11.7395  11.7488  11.7959  11.8313  11.8682  11.8888
    11.9311  11.9765  11.9860  12.0951  12.1135  12.1847  12.1921  12.2513
    12.2633  12.3700  12.3724  12.3936  12.5466  12.5489  12.5615  12.6507
    12.7520  12.7824  12.8053  12.8137  12.8139  12.8582  12.8632  12.8690
    12.8924  12.9268  12.9381  12.9578  13.0171  13.0321  13.1044  13.1272
    13.2251  13.2508  13.2524  13.3561  13.3654  13.4235  13.4807  13.4943
    13.6917  13.7026  13.7047  13.7970  13.8218  13.9196  13.9311  13.9453
    14.1868  14.1902  14.1950  14.3209  14.4004  14.4885  14.5280  14.9865
    15.0276  15.3678  15.4217

          k = 0.0556 0.2778 0.2357 ( 49793 PWs)   bands (ev):

   -60.8427 -60.8004 -60.7681 -60.7540 -60.7508 -60.7416 -60.7385 -60.7277
   -60.7229 -60.7224 -60.7219 -60.7127 -60.7083 -60.6956 -60.6870 -60.6819
   -60.3187 -60.3173 -60.2941 -60.2936 -60.2766 -60.2764 -60.2751 -60.2751
   -60.2713 -60.2713 -60.2684 -60.2682 -60.2501 -60.2500 -60.2240 -60.2240
   -31.1538 -31.1448 -31.1424 -31.1296 -31.1120 -31.1109 -31.0521 -31.0183
   -31.0116 -31.0019 -30.9979 -30.9934 -30.9906 -30.9895 -30.8978 -30.8871
   -30.8540 -30.8407 -30.7875 -30.7873 -30.7737 -30.7689 -30.7686 -30.7622
   -30.7579 -30.7463 -30.7451 -30.7414 -30.7397 -30.7261 -30.6878 -30.6455
   -30.6286 -30.6170 -30.6072 -30.5644 -30.5624 -30.5583 -30.5532 -30.5462
   -30.5418 -30.5180 -30.4888 -30.4818 -30.4784 -30.4752 -30.4655 -30.4573
   -30.4492 -30.4418 -30.4364 -30.4360 -30.4135 -30.4131 -30.3818 -30.3641
   -30.3630 -30.3586 -30.3534 -30.3352 -30.3333 -30.3301 -30.3232 -30.3046
   -30.1993 -30.1973 -30.1860 -30.1844 -30.1843 -30.1772 -30.1741 -30.1717
   -30.1688 -30.1669 -30.1640 -30.1625 -30.1609 -30.1590 -30.1564 -30.1560
   -30.1539 -30.1526 -30.1454 -30.1360 -30.1313 -30.1294 -30.1196 -30.1154
   -30.0636 -30.0610 -30.0438 -30.0419 -30.0387 -30.0376 -30.0211 -30.0204
     5.3253   6.5095   6.5572   6.6183   6.6328   6.8216   6.8687   6.8916
     6.9146   6.9280   6.9781   7.0627   7.0732   7.1814   7.3133   7.3633
     7.4580   7.4817   7.4883   7.5896   7.6238   7.6254   7.7812   7.8107
     7.8219   7.8452   7.8558   7.9406   7.9739   7.9927   8.0447   8.0696
     8.1210   8.1304   8.1426   8.1956   8.3847   8.4199   8.4436   8.4716
     8.4733   8.5130   8.6710   8.6987   8.7440   8.7614   8.7874   8.7899
     8.7977   8.8233   8.9204   9.0329   9.0835   9.2174   9.2725   9.3251
     9.3651   9.3923   9.3963   9.4265   9.5584   9.5817   9.5955   9.6092
     9.6156   9.7889   9.7946   9.8491   9.8514   9.8580   9.9148   9.9685
     9.9956   9.9998  10.0144  10.0348  10.0894  10.1176  10.1682  10.1862
    10.2076  10.2091  10.2218  10.3775  10.4216  10.4674  10.5005  10.5070
    10.5627  10.5801  10.5972  10.6521  10.7256  10.8287  10.8595  11.0023
    11.0100  11.0430  11.1438  11.1800  11.1932  11.2038  11.2212  11.2320
    11.2396  11.2774  11.3055  11.3846  11.5140  11.5374  11.6237  11.6718
    11.6851  11.6905  11.7399  11.7455  11.7962  11.8357  11.8768  11.8886
    11.9309  11.9747  11.9855  12.0948  12.1126  12.1849  12.1918  12.2580
    12.2589  12.3700  12.3754  12.3988  12.5448  12.5533  12.5615  12.6692
    12.7540  12.7821  12.8050  12.8120  12.8161  12.8577  12.8631  12.8705
    12.8834  12.9274  12.9381  12.9576  12.9977  13.0323  13.1043  13.1259
    13.2227  13.2508  13.2578  13.3567  13.3667  13.4352  13.4734  13.4945
    13.6858  13.6933  13.7047  13.7970  13.8218  13.9199  13.9311  13.9447
    14.1200  14.1755  14.1950  14.3209  14.4017  14.5271  14.5328  14.9861
    15.0484  15.3519  15.4936

          k = 0.0556 0.2778-0.3030 ( 49784 PWs)   bands (ev):

   -60.8427 -60.8004 -60.7681 -60.7540 -60.7508 -60.7417 -60.7385 -60.7277
   -60.7229 -60.7224 -60.7219 -60.7127 -60.7083 -60.6956 -60.6870 -60.6819
   -60.3187 -60.3173 -60.2941 -60.2936 -60.2766 -60.2764 -60.2751 -60.2751
   -60.2713 -60.2713 -60.2684 -60.2683 -60.2501 -60.2500 -60.2240 -60.2240
   -31.1538 -31.1448 -31.1424 -31.1296 -31.1120 -31.1109 -31.0521 -31.0183
   -31.0116 -31.0019 -30.9979 -30.9934 -30.9906 -30.9895 -30.8978 -30.8871
   -30.8540 -30.8407 -30.7875 -30.7872 -30.7737 -30.7689 -30.7686 -30.7622
   -30.7579 -30.7463 -30.7451 -30.7414 -30.7397 -30.7261 -30.6878 -30.6455
   -30.6286 -30.6170 -30.6072 -30.5644 -30.5624 -30.5583 -30.5532 -30.5462
   -30.5418 -30.5180 -30.4888 -30.4818 -30.4784 -30.4752 -30.4655 -30.4573
   -30.4492 -30.4418 -30.4364 -30.4360 -30.4135 -30.4131 -30.3818 -30.3641
   -30.3630 -30.3586 -30.3534 -30.3352 -30.3333 -30.3301 -30.3232 -30.3046
   -30.1993 -30.1973 -30.1860 -30.1844 -30.1843 -30.1772 -30.1741 -30.1717
   -30.1688 -30.1669 -30.1640 -30.1625 -30.1609 -30.1590 -30.1564 -30.1560
   -30.1538 -30.1526 -30.1454 -30.1360 -30.1313 -30.1294 -30.1196 -30.1153
   -30.0636 -30.0610 -30.0438 -30.0419 -30.0387 -30.0376 -30.0211 -30.0204
     5.3253   6.5095   6.5573   6.6184   6.6328   6.8217   6.8687   6.8916
     6.9146   6.9280   6.9777   7.0627   7.0732   7.1814   7.3133   7.3633
     7.4580   7.4817   7.4884   7.5896   7.6238   7.6254   7.7812   7.8107
     7.8219   7.8452   7.8557   7.9405   7.9739   7.9927   8.0447   8.0696
     8.1211   8.1304   8.1425   8.1957   8.3847   8.4199   8.4436   8.4716
     8.4732   8.5130   8.6711   8.6987   8.7440   8.7614   8.7874   8.7898
     8.7977   8.8232   8.9205   9.0329   9.0835   9.2175   9.2725   9.3251
     9.3655   9.3925   9.3963   9.4265   9.5584   9.5816   9.5955   9.6092
     9.6156   9.7891   9.7944   9.8491   9.8517   9.8583   9.9148   9.9684
     9.9953   9.9999  10.0144  10.0349  10.0893  10.1175  10.1682  10.1863
    10.2077  10.2091  10.2219  10.3776  10.4214  10.4711  10.5006  10.5078
    10.5627  10.5782  10.5972  10.6521  10.7263  10.8276  10.8601  10.9991
    11.0089  11.0433  11.1438  11.1800  11.1927  11.2038  11.2212  11.2320
    11.2397  11.2773  11.3047  11.3854  11.5141  11.5374  11.6349  11.6584
    11.6854  11.6896  11.7401  11.7443  11.7963  11.8373  11.8803  11.8885
    11.9308  11.9741  11.9852  12.0947  12.1122  12.1850  12.1916  12.2571
    12.2606  12.3700  12.3766  12.4009  12.5434  12.5559  12.5615  12.6768
    12.7548  12.7820  12.8049  12.8114  12.8170  12.8575  12.8631  12.8710
    12.8793  12.9277  12.9381  12.9575  12.9900  13.0324  13.1043  13.1254
    13.2218  13.2508  13.2600  13.3569  13.3671  13.4422  13.4683  13.4945
    13.6804  13.6928  13.7048  13.7969  13.8218  13.9200  13.9311  13.9445
    14.0949  14.1698  14.1951  14.3210  14.4023  14.5267  14.5510  14.9859
    15.0569  15.3458  15.4445

          k = 0.0556 0.3889 0.0337 ( 49791 PWs)   bands (ev):

   -60.8351 -60.8136 -60.7649 -60.7561 -60.7517 -60.7454 -60.7355 -60.7270
   -60.7192 -60.7182 -60.7149 -60.7144 -60.7108 -60.6943 -60.6912 -60.6843
   -60.3143 -60.3131 -60.3018 -60.3011 -60.2764 -60.2762 -60.2756 -60.2756
   -60.2704 -60.2704 -60.2689 -60.2688 -60.2420 -60.2420 -60.2288 -60.2288
   -31.1315 -31.1180 -31.1161 -31.1011 -31.0897 -31.0880 -31.0628 -31.0478
   -31.0410 -31.0399 -31.0338 -31.0283 -31.0270 -31.0080 -30.9017 -30.8949
   -30.8342 -30.8137 -30.7845 -30.7835 -30.7801 -30.7749 -30.7695 -30.7556
   -30.7502 -30.7494 -30.7480 -30.7278 -30.7180 -30.7109 -30.7065 -30.6406
   -30.6104 -30.6003 -30.5765 -30.5709 -30.5536 -30.5418 -30.5409 -30.5306
   -30.5201 -30.5154 -30.5131 -30.5115 -30.5053 -30.5052 -30.4766 -30.4555
   -30.4477 -30.4284 -30.4233 -30.4122 -30.4081 -30.4027 -30.3964 -30.3817
   -30.3804 -30.3694 -30.3660 -30.3644 -30.3542 -30.3486 -30.3467 -30.3213
   -30.1830 -30.1769 -30.1751 -30.1738 -30.1714 -30.1704 -30.1681 -30.1666
   -30.1657 -30.1638 -30.1634 -30.1621 -30.1573 -30.1568 -30.1530 -30.1519
   -30.1398 -30.1341 -30.1318 -30.1189 -30.1095 -30.0996 -30.0927 -30.0927
   -30.0894 -30.0808 -30.0650 -30.0621 -30.0595 -30.0556 -30.0413 -30.0393
     5.5566   6.1921   6.6981   6.7657   6.7950   6.9137   6.9928   7.0121
     7.0516   7.1003   7.1198   7.1397   7.1617   7.1682   7.1890   7.2035
     7.2245   7.2814   7.3573   7.4149   7.4465   7.5449   7.5964   7.6505
     7.6829   7.9528   7.9899   8.0291   8.0515   8.0653   8.0684   8.0783
     8.0984   8.1264   8.1434   8.1623   8.1988   8.3485   8.3876   8.3932
     8.4172   8.4935   8.4994   8.5557   8.5657   8.6099   8.6184   8.6970
     8.8258   8.8537   9.0182   9.1259   9.2506   9.2562   9.3180   9.3233
     9.3557   9.4328   9.4549   9.5841   9.5871   9.5989   9.6449   9.6825
     9.7063   9.8125   9.8191   9.9030   9.9096   9.9097   9.9550   9.9667
    10.0222  10.0242  10.0356  10.0658  10.0996  10.1058  10.1365  10.1595
    10.1747  10.1799  10.2441  10.2979  10.2984  10.3226  10.4255  10.4415
    10.4845  10.5138  10.6598  10.7351  10.8181  10.9007  10.9146  11.0431
    11.0564  11.0916  11.1266  11.1567  11.1621  11.1974  11.2136  11.2159
    11.2289  11.2470  11.3809  11.3853  11.4491  11.4597  11.5414  11.6162
    11.7016  11.7828  11.7840  11.8143  11.9036  11.9123  11.9139  11.9485
    11.9748  11.9839  12.1034  12.1294  12.1814  12.1835  12.3266  12.3459
    12.4410  12.4508  12.4618  12.5231  12.5259  12.5293  12.6096  12.6201
    12.6361  12.6773  12.7067  12.7068  12.7392  12.7463  12.8302  12.8510
    12.8825  13.0016  13.0279  13.0296  13.0933  13.1224  13.1449  13.1709
    13.2229  13.2641  13.2688  13.4199  13.4225  13.4228  13.4432  13.6198
    13.6532  13.7104  13.7544  13.7622  13.8361  13.8817  13.8992  13.9037
    13.9403  13.9823  13.9849  14.0926  14.2635  14.4466  14.5242  14.8804
    15.1089  15.3065  15.3835

          k = 0.0556 0.3889 0.1010 ( 49782 PWs)   bands (ev):

   -60.8351 -60.8136 -60.7649 -60.7561 -60.7517 -60.7454 -60.7355 -60.7270
   -60.7192 -60.7182 -60.7149 -60.7144 -60.7108 -60.6943 -60.6912 -60.6843
   -60.3143 -60.3131 -60.3018 -60.3011 -60.2764 -60.2762 -60.2756 -60.2756
   -60.2704 -60.2704 -60.2689 -60.2688 -60.2420 -60.2420 -60.2288 -60.2287
   -31.1315 -31.1180 -31.1161 -31.1011 -31.0897 -31.0880 -31.0627 -31.0478
   -31.0410 -31.0399 -31.0338 -31.0283 -31.0270 -31.0080 -30.9017 -30.8949
   -30.8342 -30.8138 -30.7845 -30.7835 -30.7801 -30.7749 -30.7695 -30.7556
   -30.7503 -30.7494 -30.7480 -30.7278 -30.7180 -30.7109 -30.7065 -30.6406
   -30.6104 -30.6003 -30.5766 -30.5709 -30.5536 -30.5418 -30.5410 -30.5306
   -30.5201 -30.5154 -30.5131 -30.5115 -30.5053 -30.5052 -30.4766 -30.4555
   -30.4477 -30.4284 -30.4233 -30.4122 -30.4081 -30.4027 -30.3964 -30.3816
   -30.3804 -30.3694 -30.3660 -30.3644 -30.3542 -30.3486 -30.3467 -30.3213
   -30.1830 -30.1769 -30.1751 -30.1738 -30.1714 -30.1704 -30.1681 -30.1666
   -30.1657 -30.1638 -30.1634 -30.1621 -30.1573 -30.1568 -30.1530 -30.1518
   -30.1398 -30.1341 -30.1318 -30.1189 -30.1095 -30.0996 -30.0927 -30.0927
   -30.0894 -30.0808 -30.0650 -30.0621 -30.0595 -30.0556 -30.0413 -30.0393
     5.5567   6.1922   6.6981   6.7657   6.7950   6.9137   6.9928   7.0121
     7.0516   7.1003   7.1198   7.1397   7.1617   7.1677   7.1890   7.2034
     7.2245   7.2814   7.3573   7.4148   7.4465   7.5449   7.5964   7.6500
     7.6831   7.9528   7.9899   8.0291   8.0515   8.0652   8.0685   8.0784
     8.0986   8.1263   8.1433   8.1625   8.1987   8.3484   8.3876   8.3931
     8.4170   8.4934   8.4994   8.5557   8.5657   8.6098   8.6182   8.6970
     8.8258   8.8537   9.0183   9.1259   9.2508   9.2563   9.3180   9.3233
     9.3557   9.4328   9.4553   9.5841   9.5874   9.5990   9.6465   9.6826
     9.7062   9.8128   9.8197   9.9030   9.9095   9.9096   9.9549   9.9670
    10.0222  10.0242  10.0356  10.0659  10.0991  10.1057  10.1365  10.1596
    10.1793  10.1799  10.2443  10.2980  10.2984  10.3224  10.4254  10.4415
    10.4845  10.5138  10.6555  10.7360  10.8188  10.9019  10.9123  11.0436
    11.0560  11.0896  11.1266  11.1567  11.1621  11.1974  11.2136  11.2154
    11.2288  11.2438  11.3640  11.3828  11.4476  11.4608  11.5401  11.6192
    11.7063  11.7832  11.7843  11.8142  11.9123  11.9139  11.9161  11.9480
    11.9746  11.9838  12.1036  12.1451  12.1803  12.1833  12.3261  12.3519
    12.4400  12.4480  12.4617  12.5162  12.5308  12.5345  12.6094  12.6199
    12.6391  12.6802  12.7048  12.7071  12.7392  12.7465  12.8302  12.8439
    12.8713  13.0003  13.0246  13.0296  13.0934  13.1227  13.1442  13.1709
    13.2229  13.2619  13.2668  13.4228  13.4231  13.4330  13.4435  13.6200
    13.6532  13.7104  13.7538  13.7560  13.8377  13.8817  13.8994  13.9016
    13.9418  13.9850  14.0068  14.0926  14.2547  14.4435  14.5239  14.8015
    15.1287  15.3343  15.3858

          k = 0.0556 0.3889 0.1684 ( 49769 PWs)   bands (ev):

   -60.8351 -60.8136 -60.7649 -60.7561 -60.7517 -60.7454 -60.7355 -60.7270
   -60.7192 -60.7182 -60.7149 -60.7144 -60.7108 -60.6943 -60.6912 -60.6843
   -60.3143 -60.3131 -60.3018 -60.3011 -60.2764 -60.2762 -60.2757 -60.2756
   -60.2704 -60.2704 -60.2689 -60.2688 -60.2420 -60.2420 -60.2288 -60.2287
   -31.1315 -31.1180 -31.1161 -31.1011 -31.0897 -31.0879 -31.0628 -31.0478
   -31.0410 -31.0399 -31.0338 -31.0283 -31.0270 -31.0079 -30.9018 -30.8949
   -30.8342 -30.8138 -30.7845 -30.7835 -30.7801 -30.7749 -30.7695 -30.7556
   -30.7503 -30.7494 -30.7480 -30.7278 -30.7180 -30.7109 -30.7065 -30.6406
   -30.6103 -30.6004 -30.5766 -30.5709 -30.5536 -30.5418 -30.5410 -30.5306
   -30.5201 -30.5154 -30.5131 -30.5115 -30.5053 -30.5052 -30.4766 -30.4555
   -30.4477 -30.4284 -30.4233 -30.4122 -30.4081 -30.4027 -30.3964 -30.3817
   -30.3805 -30.3694 -30.3660 -30.3644 -30.3542 -30.3486 -30.3467 -30.3213
   -30.1830 -30.1769 -30.1751 -30.1738 -30.1714 -30.1704 -30.1681 -30.1666
   -30.1657 -30.1638 -30.1635 -30.1621 -30.1573 -30.1568 -30.1530 -30.1518
   -30.1398 -30.1341 -30.1318 -30.1189 -30.1095 -30.0996 -30.0927 -30.0927
   -30.0894 -30.0808 -30.0650 -30.0621 -30.0595 -30.0556 -30.0413 -30.0393
     5.5568   6.1923   6.6980   6.7657   6.7950   6.9137   6.9928   7.0121
     7.0516   7.1003   7.1198   7.1397   7.1617   7.1668   7.1890   7.2033
     7.2245   7.2814   7.3572   7.4148   7.4465   7.5449   7.5963   7.6493
     7.6835   7.9528   7.9899   8.0291   8.0515   8.0651   8.0685   8.0785
     8.0988   8.1263   8.1433   8.1627   8.1985   8.3483   8.3878   8.3931
     8.4167   8.4934   8.4994   8.5556   8.5657   8.6097   8.6180   8.6970
     8.8258   8.8537   9.0184   9.1259   9.2511   9.2566   9.3180   9.3232
     9.3558   9.4327   9.4560   9.5842   9.5877   9.5990   9.6489   9.6826
     9.7060   9.8134   9.8205   9.9029   9.9094   9.9094   9.9549   9.9676
    10.0223  10.0242  10.0356  10.0659  10.0985  10.1057  10.1366  10.1597
    10.1800  10.1862  10.2447  10.2981  10.2985  10.3221  10.4254  10.4416
    10.4846  10.5138  10.6489  10.7373  10.8199  10.9037  10.9087  11.0442
    11.0554  11.0864  11.1266  11.1566  11.1620  11.1973  11.2136  11.2148
    11.2288  11.2392  11.3401  11.3789  11.4453  11.4624  11.5383  11.6224
    11.7128  11.7838  11.7848  11.8141  11.9122  11.9140  11.9359  11.9473
    11.9743  11.9838  12.1039  12.1698  12.1787  12.1831  12.3253  12.3608
    12.4365  12.4450  12.4615  12.5089  12.5383  12.5386  12.6091  12.6195
    12.6436  12.6847  12.7013  12.7074  12.7392  12.7469  12.8302  12.8329
    12.8551  12.9983  13.0195  13.0297  13.0936  13.1231  13.1431  13.1710
    13.2229  13.2589  13.2637  13.4228  13.4241  13.4440  13.4534  13.6204
    13.6533  13.7105  13.7410  13.7583  13.8394  13.8817  13.8985  13.8998
    13.9442  13.9852  14.0466  14.0927  14.2413  14.4389  14.5236  14.6960
    15.1601  15.3789  15.3893

          k = 0.0556 0.3889 0.2357 ( 49782 PWs)   bands (ev):

   -60.8351 -60.8136 -60.7649 -60.7561 -60.7517 -60.7454 -60.7355 -60.7270
   -60.7192 -60.7182 -60.7149 -60.7144 -60.7108 -60.6943 -60.6912 -60.6843
   -60.3143 -60.3131 -60.3018 -60.3011 -60.2764 -60.2762 -60.2756 -60.2756
   -60.2704 -60.2704 -60.2689 -60.2688 -60.2420 -60.2420 -60.2288 -60.2287
   -31.1315 -31.1180 -31.1161 -31.1011 -31.0897 -31.0879 -31.0628 -31.0478
   -31.0410 -31.0399 -31.0338 -31.0283 -31.0270 -31.0080 -30.9018 -30.8949
   -30.8342 -30.8138 -30.7845 -30.7835 -30.7801 -30.7749 -30.7695 -30.7556
   -30.7503 -30.7494 -30.7480 -30.7278 -30.7180 -30.7109 -30.7065 -30.6406
   -30.6103 -30.6004 -30.5766 -30.5709 -30.5536 -30.5418 -30.5410 -30.5306
   -30.5201 -30.5154 -30.5131 -30.5115 -30.5053 -30.5052 -30.4766 -30.4555
   -30.4477 -30.4284 -30.4233 -30.4122 -30.4081 -30.4027 -30.3964 -30.3816
   -30.3805 -30.3694 -30.3660 -30.3644 -30.3542 -30.3486 -30.3467 -30.3213
   -30.1830 -30.1769 -30.1751 -30.1738 -30.1714 -30.1704 -30.1681 -30.1666
   -30.1657 -30.1638 -30.1635 -30.1621 -30.1573 -30.1568 -30.1529 -30.1518
   -30.1398 -30.1341 -30.1318 -30.1189 -30.1096 -30.0996 -30.0927 -30.0927
   -30.0894 -30.0808 -30.0650 -30.0621 -30.0595 -30.0556 -30.0413 -30.0393
     5.5570   6.1924   6.6979   6.7657   6.7950   6.9137   6.9928   7.0121
     7.0516   7.1003   7.1198   7.1398   7.1617   7.1660   7.1890   7.2032
     7.2244   7.2814   7.3572   7.4148   7.4465   7.5449   7.5963   7.6487
     7.6838   7.9528   7.9899   8.0291   8.0514   8.0649   8.0686   8.0786
     8.0990   8.1263   8.1433   8.1629   8.1983   8.3482   8.3879   8.3931
     8.4165   8.4933   8.4993   8.5556   8.5656   8.6096   8.6178   8.6970
     8.8258   8.8537   9.0186   9.1259   9.2513   9.2568   9.3180   9.3232
     9.3558   9.4327   9.4566   9.5842   9.5881   9.5991   9.6511   9.6826
     9.7058   9.8138   9.8212   9.9029   9.9092   9.9093   9.9548   9.9681
    10.0223  10.0242  10.0356  10.0660  10.0981  10.1056  10.1366  10.1598
    10.1801  10.1923  10.2450  10.2982  10.2986  10.3219  10.4253  10.4417
    10.4846  10.5138  10.6432  10.7386  10.8209  10.9052  10.9055  11.0448
    11.0548  11.0837  11.1266  11.1565  11.1620  11.1973  11.2136  11.2141
    11.2287  11.2353  11.3208  11.3754  11.4433  11.4637  11.5366  11.6244
    11.7178  11.7844  11.7852  11.8139  11.9122  11.9141  11.9466  11.9540
    11.9741  11.9838  12.1042  12.1775  12.1829  12.1926  12.3247  12.3687
    12.4308  12.4439  12.4614  12.5029  12.5413  12.5448  12.6088  12.6192
    12.6476  12.6888  12.6978  12.7077  12.7391  12.7473  12.8228  12.8302
    12.8419  12.9965  13.0149  13.0297  13.0937  13.1234  13.1421  13.1711
    13.2229  13.2567  13.2610  13.4228  13.4249  13.4444  13.4720  13.6209
    13.6534  13.7106  13.7298  13.7604  13.8405  13.8817  13.8958  13.9002
    13.9464  13.9853  14.0838  14.0928  14.2298  14.4350  14.5232  14.6131
    15.1890  15.3925  15.4206

          k = 0.0556 0.3889-0.3030 ( 49782 PWs)   bands (ev):

   -60.8351 -60.8136 -60.7649 -60.7561 -60.7517 -60.7454 -60.7355 -60.7270
   -60.7192 -60.7182 -60.7149 -60.7144 -60.7108 -60.6943 -60.6912 -60.6843
   -60.3143 -60.3131 -60.3018 -60.3010 -60.2764 -60.2762 -60.2756 -60.2756
   -60.2704 -60.2704 -60.2689 -60.2688 -60.2420 -60.2420 -60.2288 -60.2287
   -31.1315 -31.1179 -31.1161 -31.1011 -31.0897 -31.0879 -31.0628 -31.0478
   -31.0410 -31.0400 -31.0338 -31.0283 -31.0270 -31.0080 -30.9018 -30.8949
   -30.8342 -30.8138 -30.7845 -30.7835 -30.7801 -30.7749 -30.7695 -30.7556
   -30.7503 -30.7494 -30.7480 -30.7278 -30.7180 -30.7109 -30.7065 -30.6406
   -30.6103 -30.6004 -30.5766 -30.5709 -30.5536 -30.5419 -30.5410 -30.5306
   -30.5201 -30.5155 -30.5131 -30.5115 -30.5053 -30.5052 -30.4766 -30.4555
   -30.4477 -30.4284 -30.4233 -30.4121 -30.4081 -30.4027 -30.3964 -30.3816
   -30.3805 -30.3695 -30.3660 -30.3644 -30.3543 -30.3486 -30.3468 -30.3213
   -30.1830 -30.1769 -30.1751 -30.1738 -30.1714 -30.1703 -30.1681 -30.1666
   -30.1657 -30.1638 -30.1635 -30.1621 -30.1573 -30.1568 -30.1530 -30.1518
   -30.1398 -30.1341 -30.1318 -30.1189 -30.1096 -30.0996 -30.0927 -30.0927
   -30.0894 -30.0808 -30.0650 -30.0621 -30.0595 -30.0556 -30.0413 -30.0393
     5.5571   6.1925   6.6978   6.7657   6.7950   6.9137   6.9928   7.0121
     7.0516   7.1003   7.1198   7.1398   7.1617   7.1657   7.1890   7.2032
     7.2244   7.2814   7.3572   7.4148   7.4465   7.5449   7.5963   7.6485
     7.6839   7.9528   7.9898   8.0291   8.0514   8.0649   8.0686   8.0786
     8.0991   8.1263   8.1433   8.1630   8.1983   8.3481   8.3879   8.3931
     8.4164   8.4933   8.4993   8.5556   8.5656   8.6096   8.6178   8.6969
     8.8258   8.8537   9.0187   9.1259   9.2514   9.2568   9.3180   9.3232
     9.3558   9.4327   9.4568   9.5842   9.5882   9.5991   9.6520   9.6826
     9.7057   9.8140   9.8215   9.9029   9.9091   9.9093   9.9548   9.9683
    10.0223  10.0242  10.0356  10.0660  10.0979  10.1056  10.1366  10.1598
    10.1802  10.1947  10.2451  10.2983  10.2986  10.3218  10.4253  10.4417
    10.4846  10.5138  10.6409  10.7391  10.8213  10.9043  10.9058  11.0451
    11.0545  11.0826  11.1267  11.1565  11.1620  11.1973  11.2137  11.2139
    11.2287  11.2338  11.3135  11.3741  11.4426  11.4641  11.5360  11.6250
    11.7196  11.7846  11.7853  11.8139  11.9121  11.9141  11.9463  11.9614
    11.9739  11.9838  12.1043  12.1770  12.1828  12.2018  12.3245  12.3718
    12.4281  12.4437  12.4613  12.5004  12.5422  12.5474  12.6087  12.6191
    12.6492  12.6904  12.6963  12.7079  12.7391  12.7474  12.8187  12.8302
[...]
   -30.6871 -30.6871 -30.6871 -30.6871 -30.6871 -30.6871 -30.6871 -30.6871
   -30.5574 -30.5574 -30.5574 -30.5574 -30.4777 -30.4777 -30.4777 -30.4777
   -30.3843 -30.3843 -30.3843 -30.3843 -30.3843 -30.3843 -30.3843 -30.3843
   -30.3214 -30.3214 -30.3214 -30.3214 -30.3214 -30.3214 -30.3214 -30.3214
   -30.3034 -30.3034 -30.3034 -30.3034 -30.2730 -30.2730 -30.2730 -30.2730
   -30.2200 -30.2200 -30.2200 -30.2200 -30.2200 -30.2200 -30.2200 -30.2200
   -30.1715 -30.1715 -30.1715 -30.1715 -30.1573 -30.1573 -30.1573 -30.1573
   -30.0667 -30.0667 -30.0667 -30.0667 -30.0615 -30.0615 -30.0615 -30.0615
     6.2492   6.2492   6.2492   6.2492   6.9167   6.9167   6.9167   6.9167
     7.1777   7.1777   7.1777   7.1777   7.1778   7.1778   7.1778   7.1778
     7.1926   7.1926   7.1926   7.1926   7.3160   7.3160   7.3160   7.3160
     7.5450   7.5450   7.5450   7.5450   7.5450   7.5450   7.5450   7.5450
     7.9326   7.9326   7.9326   7.9326   8.0895   8.0895   8.0895   8.0895
     8.0895   8.0895   8.0895   8.0895   8.5212   8.5212   8.5212   8.5212
     8.5212   8.5212   8.5212   8.5212   8.7552   8.7552   8.7552   8.7552
     9.4674   9.4674   9.4674   9.4674   9.6494   9.6494   9.6494   9.6494
    10.0348  10.0348  10.0348  10.0348  10.1206  10.1206  10.1206  10.1206
    10.1510  10.1510  10.1510  10.1510  10.2572  10.2572  10.2572  10.2572
    10.2572  10.2572  10.2572  10.2573  10.2941  10.2941  10.2941  10.2941
    10.7507  10.7507  10.7507  10.7507  10.9318  10.9318  10.9318  10.9318
    11.0035  11.0035  11.0035  11.0035  11.0035  11.0035  11.0035  11.0035
    11.0843  11.0843  11.0843  11.0843  11.3084  11.3084  11.3084  11.3084
    11.3440  11.3440  11.3441  11.3441  11.3441  11.3441  11.3441  11.3441
    12.0411  12.0411  12.0411  12.0411  12.1625  12.1625  12.1625  12.1625
    12.1625  12.1625  12.1625  12.1625  12.2527  12.2527  12.2528  12.2528
    12.7592  12.7592  12.7592  12.7592  12.9894  12.9894  12.9894  12.9894
    12.9894  12.9894  12.9894  12.9894  13.1328  13.1328  13.1328  13.1328
    13.3226  13.3226  13.3226  13.3226  13.8348  13.8348  13.8348  13.8348
    13.8680  13.8680  13.8680  13.8680  13.8680  13.8680  13.8680  13.8680
    14.0128  14.0128  14.0128  14.0128  16.0485  16.0485  16.0485  16.0485
    16.8786  16.8786  16.8786

          k =-0.5000-0.5000 0.1684 ( 49752 PWs)   bands (ev):

   -60.8111 -60.8111 -60.8111 -60.8111 -60.7606 -60.7606 -60.7606 -60.7606
   -60.7198 -60.7198 -60.7198 -60.7198 -60.7198 -60.7198 -60.7198 -60.7198
   -60.3602 -60.3602 -60.3602 -60.3602 -60.3590 -60.3590 -60.3590 -60.3590
   -60.3141 -60.3141 -60.3141 -60.3141 -60.3141 -60.3141 -60.3141 -60.3141
   -31.1459 -31.1459 -31.1459 -31.1459 -31.1458 -31.1458 -31.1458 -31.1458
   -31.0376 -31.0376 -31.0376 -31.0376 -31.0042 -31.0042 -31.0042 -31.0042
   -30.9385 -30.9385 -30.9385 -30.9385 -30.9385 -30.9385 -30.9385 -30.9385
   -30.8513 -30.8513 -30.8513 -30.8513 -30.7521 -30.7521 -30.7521 -30.7521
   -30.6871 -30.6871 -30.6871 -30.6871 -30.6871 -30.6871 -30.6871 -30.6871
   -30.5574 -30.5574 -30.5574 -30.5574 -30.4777 -30.4777 -30.4777 -30.4777
   -30.3843 -30.3843 -30.3843 -30.3843 -30.3843 -30.3843 -30.3843 -30.3843
   -30.3214 -30.3214 -30.3214 -30.3214 -30.3214 -30.3214 -30.3214 -30.3214
   -30.3034 -30.3034 -30.3034 -30.3034 -30.2730 -30.2730 -30.2730 -30.2730
   -30.2200 -30.2200 -30.2200 -30.2200 -30.2200 -30.2200 -30.2200 -30.2200
   -30.1715 -30.1715 -30.1715 -30.1715 -30.1573 -30.1573 -30.1573 -30.1573
   -30.0667 -30.0667 -30.0667 -30.0667 -30.0615 -30.0615 -30.0615 -30.0615
     6.2492   6.2492   6.2492   6.2492   6.9167   6.9167   6.9167   6.9167
     7.1777   7.1777   7.1777   7.1777   7.1778   7.1778   7.1778   7.1778
     7.1923   7.1923   7.1923   7.1923   7.3163   7.3163   7.3163   7.3163
     7.5450   7.5450   7.5450   7.5450   7.5450   7.5450   7.5450   7.5450
     7.9326   7.9326   7.9326   7.9326   8.0895   8.0895   8.0895   8.0895
     8.0896   8.0896   8.0896   8.0896   8.5212   8.5212   8.5212   8.5212
     8.5212   8.5212   8.5212   8.5212   8.7553   8.7553   8.7553   8.7553
     9.4673   9.4673   9.4673   9.4673   9.6498   9.6498   9.6498   9.6498
    10.0372  10.0372  10.0372  10.0372  10.1183  10.1183  10.1183  10.1183
    10.1510  10.1510  10.1510  10.1510  10.2572  10.2572  10.2572  10.2572
    10.2572  10.2572  10.2572  10.2572  10.2941  10.2941  10.2941  10.2941
    10.7498  10.7498  10.7498  10.7498  10.9318  10.9318  10.9318  10.9318
    11.0035  11.0035  11.0035  11.0035  11.0035  11.0035  11.0035  11.0035
    11.0850  11.0850  11.0850  11.0850  11.3084  11.3084  11.3084  11.3084
    11.3443  11.3443  11.3443  11.3443  11.3443  11.3443  11.3443  11.3443
    12.0235  12.0235  12.0235  12.0235  12.1614  12.1614  12.1614  12.1614
    12.1614  12.1614  12.1614  12.1614  12.2597  12.2597  12.2597  12.2597
    12.7592  12.7592  12.7592  12.7592  12.9905  12.9905  12.9905  12.9905
    12.9905  12.9905  12.9905  12.9905  13.1328  13.1328  13.1328  13.1328
    13.3613  13.3613  13.3613  13.3613  13.8348  13.8348  13.8348  13.8348
    13.8680  13.8680  13.8680  13.8680  13.8681  13.8681  13.8681  13.8681
    14.0128  14.0128  14.0128  14.0128  15.8847  15.8847  15.8847  15.8847
    16.8806  16.8806  16.8806

          k =-0.5000-0.5000 0.2357 ( 49832 PWs)   bands (ev):

   -60.8111 -60.8111 -60.8111 -60.8111 -60.7606 -60.7606 -60.7606 -60.7606
   -60.7198 -60.7198 -60.7198 -60.7198 -60.7198 -60.7198 -60.7198 -60.7198
   -60.3602 -60.3602 -60.3602 -60.3602 -60.3590 -60.3590 -60.3590 -60.3590
   -60.3141 -60.3141 -60.3141 -60.3141 -60.3141 -60.3141 -60.3141 -60.3141
   -31.1459 -31.1459 -31.1459 -31.1459 -31.1458 -31.1458 -31.1458 -31.1458
   -31.0377 -31.0377 -31.0377 -31.0377 -31.0042 -31.0042 -31.0042 -31.0042
   -30.9385 -30.9385 -30.9385 -30.9385 -30.9385 -30.9385 -30.9385 -30.9385
   -30.8514 -30.8514 -30.8514 -30.8514 -30.7521 -30.7521 -30.7521 -30.7521
   -30.6871 -30.6871 -30.6871 -30.6871 -30.6871 -30.6871 -30.6871 -30.6871
   -30.5574 -30.5574 -30.5574 -30.5574 -30.4777 -30.4777 -30.4777 -30.4777
   -30.3843 -30.3843 -30.3843 -30.3843 -30.3843 -30.3843 -30.3843 -30.3843
   -30.3214 -30.3214 -30.3214 -30.3214 -30.3214 -30.3214 -30.3214 -30.3214
   -30.3034 -30.3034 -30.3034 -30.3034 -30.2730 -30.2730 -30.2730 -30.2730
   -30.2201 -30.2201 -30.2201 -30.2201 -30.2201 -30.2201 -30.2201 -30.2201
   -30.1715 -30.1715 -30.1715 -30.1715 -30.1573 -30.1573 -30.1573 -30.1573
   -30.0667 -30.0667 -30.0667 -30.0667 -30.0615 -30.0615 -30.0615 -30.0615
     6.2492   6.2492   6.2492   6.2492   6.9167   6.9167   6.9167   6.9167
     7.1777   7.1777   7.1777   7.1777   7.1778   7.1778   7.1778   7.1778
     7.1921   7.1921   7.1921   7.1921   7.3165   7.3165   7.3165   7.3165
     7.5450   7.5450   7.5450   7.5450   7.5450   7.5450   7.5450   7.5450
     7.9325   7.9325   7.9325   7.9325   8.0895   8.0895   8.0895   8.0895
     8.0896   8.0896   8.0896   8.0896   8.5212   8.5212   8.5212   8.5212
     8.5212   8.5212   8.5212   8.5212   8.7554   8.7554   8.7554   8.7554
     9.4672   9.4672   9.4672   9.4672   9.6502   9.6502   9.6502   9.6502
    10.0395  10.0395  10.0395  10.0395  10.1161  10.1161  10.1161  10.1161
    10.1510  10.1510  10.1510  10.1510  10.2572  10.2572  10.2572  10.2572
    10.2572  10.2572  10.2572  10.2572  10.2941  10.2941  10.2941  10.2941
    10.7489  10.7489  10.7489  10.7489  10.9318  10.9318  10.9318  10.9318
    11.0035  11.0035  11.0035  11.0035  11.0036  11.0036  11.0036  11.0036
    11.0857  11.0857  11.0857  11.0857  11.3084  11.3084  11.3084  11.3084
    11.3445  11.3445  11.3445  11.3445  11.3445  11.3445  11.3445  11.3445
    12.0092  12.0092  12.0092  12.0092  12.1605  12.1605  12.1605  12.1605
    12.1605  12.1605  12.1605  12.1605  12.2648  12.2648  12.2648  12.2648
    12.7592  12.7592  12.7592  12.7592  12.9914  12.9914  12.9914  12.9914
    12.9914  12.9914  12.9914  12.9914  13.1328  13.1328  13.1328  13.1328
    13.3964  13.3964  13.3964  13.3964  13.8348  13.8348  13.8348  13.8348
    13.8681  13.8681  13.8681  13.8681  13.8681  13.8681  13.8681  13.8681
    14.0128  14.0128  14.0128  14.0128  15.7627  15.7627  15.7627  15.7627
    16.8824  16.8824  16.8824

          k =-0.5000-0.5000-0.3030 ( 49848 PWs)   bands (ev):

   -60.8111 -60.8111 -60.8111 -60.8111 -60.7606 -60.7606 -60.7606 -60.7606
   -60.7198 -60.7198 -60.7198 -60.7198 -60.7198 -60.7198 -60.7198 -60.7198
   -60.3602 -60.3602 -60.3602 -60.3602 -60.3590 -60.3590 -60.3590 -60.3590
   -60.3141 -60.3141 -60.3141 -60.3141 -60.3141 -60.3141 -60.3141 -60.3141
   -31.1459 -31.1459 -31.1459 -31.1459 -31.1459 -31.1459 -31.1459 -31.1459
   -31.0376 -31.0376 -31.0376 -31.0376 -31.0042 -31.0042 -31.0042 -31.0042
   -30.9385 -30.9385 -30.9385 -30.9385 -30.9385 -30.9385 -30.9385 -30.9385
   -30.8514 -30.8514 -30.8514 -30.8514 -30.7522 -30.7522 -30.7522 -30.7522
   -30.6872 -30.6872 -30.6872 -30.6872 -30.6871 -30.6871 -30.6871 -30.6871
   -30.5574 -30.5574 -30.5574 -30.5574 -30.4777 -30.4777 -30.4777 -30.4777
   -30.3843 -30.3843 -30.3843 -30.3843 -30.3843 -30.3843 -30.3843 -30.3843
   -30.3214 -30.3214 -30.3214 -30.3214 -30.3214 -30.3214 -30.3214 -30.3214
   -30.3034 -30.3034 -30.3034 -30.3034 -30.2730 -30.2730 -30.2730 -30.2730
   -30.2201 -30.2201 -30.2201 -30.2201 -30.2201 -30.2201 -30.2201 -30.2201
   -30.1715 -30.1715 -30.1715 -30.1715 -30.1573 -30.1573 -30.1573 -30.1573
   -30.0667 -30.0667 -30.0667 -30.0667 -30.0615 -30.0615 -30.0615 -30.0615
     6.2492   6.2492   6.2492   6.2492   6.9167   6.9167   6.9167   6.9167
     7.1777   7.1777   7.1777   7.1777   7.1778   7.1778   7.1778   7.1778
     7.1920   7.1920   7.1920   7.1920   7.3166   7.3166   7.3166   7.3166
     7.5450   7.5450   7.5450   7.5450   7.5450   7.5450   7.5450   7.5450
     7.9325   7.9325   7.9325   7.9325   8.0896   8.0896   8.0896   8.0896
     8.0896   8.0896   8.0896   8.0896   8.5212   8.5212   8.5212   8.5212
     8.5212   8.5212   8.5212   8.5212   8.7554   8.7554   8.7554   8.7554
     9.4672   9.4672   9.4672   9.4672   9.6504   9.6504   9.6504   9.6504
    10.0404  10.0404  10.0404  10.0404  10.1152  10.1152  10.1152  10.1152
    10.1510  10.1510  10.1510  10.1510  10.2572  10.2572  10.2572  10.2572
    10.2572  10.2572  10.2572  10.2572  10.2941  10.2941  10.2941  10.2941
    10.7486  10.7486  10.7486  10.7486  10.9318  10.9318  10.9318  10.9318
    11.0035  11.0035  11.0035  11.0035  11.0036  11.0036  11.0036  11.0036
    11.0860  11.0860  11.0860  11.0860  11.3084  11.3084  11.3084  11.3084
    11.3446  11.3446  11.3446  11.3446  11.3446  11.3446  11.3446  11.3446
    12.0039  12.0039  12.0039  12.0039  12.1601  12.1601  12.1601  12.1601
    12.1601  12.1601  12.1601  12.1601  12.2666  12.2666  12.2666  12.2666
    12.7592  12.7592  12.7592  12.7592  12.9918  12.9918  12.9918  12.9918
    12.9918  12.9918  12.9918  12.9918  13.1328  13.1328  13.1328  13.1328
    13.4105  13.4105  13.4105  13.4105  13.8348  13.8348  13.8348  13.8348
    13.8681  13.8681  13.8681  13.8681  13.8681  13.8681  13.8681  13.8681
    14.0128  14.0128  14.0128  14.0128  15.7182  15.7182  15.7182  15.7182
    16.8831  16.8831  16.8831

     the Fermi energy is    12.2514 ev

!    total energy              =  -13811.74671771 Ry

     total all-electron energy =   -289988.137057 Ry
     estimated scf accuracy    <          9.8E-09 Ry
     smearing contrib. (-TS)   =      -0.00888362 Ry
     internal energy E=F+TS    =  -13811.73783409 Ry

     The total energy is F=E-TS. E is the sum of the following terms:
     one-electron contribution =  -12015.57393507 Ry
     hartree contribution      =    6222.81579728 Ry
     xc contribution           =    -926.70878408 Ry
     ewald contribution        =     497.11111812 Ry
     one-center paw contrib.   =   -7589.38203034 Ry

     convergence has been achieved in  10 iterations

     Forces acting on atoms (cartesian axes, Ry/au):

     atom    1 type  1   force =     0.00000000    0.00000000   -0.00010857
     atom    2 type  1   force =    -0.00000060   -0.00000060   -0.00010956
     atom    3 type  1   force =    -0.00000021    0.00000000    0.00004025
     atom    4 type  1   force =     0.00000000   -0.00000021    0.00004025
     atom    5 type  1   force =     0.00000000    0.00000000   -0.00004585
     atom    6 type  1   force =    -0.00000015   -0.00000015   -0.00004510
     atom    7 type  1   force =    -0.00000022    0.00000000    0.00011472
     atom    8 type  1   force =     0.00000000   -0.00000022    0.00011472
     atom    9 type  1   force =     0.00000000    0.00000000   -0.00010981
     atom   10 type  1   force =    -0.00000060    0.00000060   -0.00010956
     atom   11 type  1   force =    -0.00000046    0.00000000    0.00004075
     atom   12 type  1   force =     0.00000000    0.00000021    0.00004025
     atom   13 type  1   force =     0.00000000    0.00000000   -0.00004578
     atom   14 type  1   force =    -0.00000015    0.00000015   -0.00004510
     atom   15 type  1   force =    -0.00000090    0.00000000    0.00011391
     atom   16 type  1   force =     0.00000000    0.00000022    0.00011472
     atom   17 type  1   force =     0.00000000    0.00000000   -0.00010981
     atom   18 type  1   force =     0.00000060   -0.00000060   -0.00010956
     atom   19 type  1   force =     0.00000021    0.00000000    0.00004025
     atom   20 type  1   force =     0.00000000   -0.00000046    0.00004075
     atom   21 type  1   force =     0.00000000    0.00000000   -0.00004578
     atom   22 type  1   force =     0.00000015   -0.00000015   -0.00004510
     atom   23 type  1   force =     0.00000022    0.00000000    0.00011472
     atom   24 type  1   force =     0.00000000   -0.00000090    0.00011391
     atom   25 type  1   force =     0.00000000    0.00000000   -0.00010781
     atom   26 type  1   force =     0.00000060    0.00000060   -0.00010956
     atom   27 type  1   force =     0.00000046    0.00000000    0.00004075
     atom   28 type  1   force =     0.00000000    0.00000046    0.00004075
     atom   29 type  1   force =     0.00000000    0.00000000   -0.00004649
     atom   30 type  1   force =     0.00000015    0.00000015   -0.00004510
     atom   31 type  1   force =     0.00000090    0.00000000    0.00011391
     atom   32 type  1   force =     0.00000000    0.00000090    0.00011391

     Total force =     0.000479     Total SCF correction =     0.000454
     SCF correction compared to forces is large: reduce conv_thr to get better values


     Computing stress (Cartesian axis) and pressure

          total   stress  (Ry/bohr**3)                   (kbar)     P=      -22.17
  -0.00020840   0.00000000   0.00000000          -30.66        0.00        0.00
   0.00000000  -0.00020840   0.00000000            0.00      -30.66        0.00
   0.00000000   0.00000000  -0.00003526            0.00        0.00       -5.19

     Energy error            =      4.3E-06
     Gradient error          =      1.1E-04

     bfgs converged in   9 scf cycles and   8 bfgs steps
     (criteria: energy <  1.0E-04 Ry, force <  1.0E-03 Ry/Bohr)

     End of BFGS Geometry Optimization

     Final energy   =  -13811.7467177067 Ry

     File /scratch/InDHKRLdBvWVDGwW.bfgs deleted, as requested
Begin final coordinates

ATOMIC_POSITIONS (crystal)
Ru            0.0000000000        0.0000000000        0.0050106569
Ru            0.2500000646        0.2500000646        0.0050108519
Ru            0.2499999701        0.0000000000        0.1438502654
Ru           -0.0000000000        0.2499999701        0.1438502654
Ru            0.0000000000        0.0000000000        0.7046336966
Ru            0.2500000576        0.2500000576        0.7046335731
Ru            0.2500000038       -0.0000000000        0.8434749329
Ru            0.0000000000        0.2500000038        0.8434749329
Ru            0.0000000000        0.5000000000        0.0050109566
Ru            0.2500000646        0.7499999354        0.0050108519
Ru            0.2500002214        0.5000000000        0.1438502207
Ru            0.0000000000        0.7500000299        0.1438502654
Ru            0.0000000000        0.5000000000        0.7046336693
Ru            0.2500000576        0.7499999424        0.7046335731
Ru            0.2500001066        0.5000000000        0.8434751009
Ru            0.0000000000        0.7499999962        0.8434749329
Ru            0.5000000000        0.0000000000        0.0050109566
Ru            0.7499999354        0.2500000646        0.0050108519
Ru            0.7500000299       -0.0000000000        0.1438502654
Ru            0.5000000000        0.2500002214        0.1438502207
Ru            0.5000000000        0.0000000000        0.7046336693
Ru            0.7499999424        0.2500000576        0.7046335731
Ru            0.7499999962        0.0000000000        0.8434749329
Ru            0.5000000000        0.2500001066        0.8434751009
Ru            0.5000000000        0.5000000000        0.0050104320
Ru            0.7499999354        0.7499999354        0.0050108519
Ru            0.7499997786        0.5000000000        0.1438502207
Ru            0.5000000000        0.7499997786        0.1438502207
Ru            0.5000000000        0.5000000000        0.7046337593
Ru            0.7499999424        0.7499999424        0.7046335731
Ru            0.7499998934        0.5000000000        0.8434751009
Ru            0.5000000000        0.7499998934        0.8434751009
End final coordinates



     Writing output data file /scratch/InDHKRLdBvWVDGwW.save/
 
     init_run     :     36.84s CPU     37.59s WALL (       1 calls)
     electrons    :  13294.14s CPU  13659.20s WALL (       9 calls)
     update_pot   :      2.86s CPU      2.93s WALL (       8 calls)
     forces       :    140.55s CPU    141.71s WALL (       9 calls)
     stress       :   1194.33s CPU   1202.99s WALL (       9 calls)

     Called by init_run:
     wfcinit      :     35.80s CPU     36.45s WALL (       1 calls)
     potinit      :      0.21s CPU      0.23s WALL (       1 calls)
     hinit0       :      0.26s CPU      0.26s WALL (       1 calls)

     Called by electrons:
     c_bands      :  11878.21s CPU  12204.29s WALL (     136 calls)
     sum_band     :   1392.72s CPU   1421.54s WALL (     136 calls)
     v_of_rho     :      3.08s CPU      3.25s WALL (     144 calls)
     newd         :      6.07s CPU      8.29s WALL (     144 calls)
     PAW_pot      :     13.01s CPU     13.76s WALL (     152 calls)
     mix_rho      :      1.48s CPU      1.61s WALL (     136 calls)

     Called by c_bands:
     init_us_2    :     91.23s CPU     92.18s WALL (   22425 calls)
     cegterg      :  11618.76s CPU  11785.28s WALL (   10200 calls)

     Called by *egterg:
     cdiaghg      :   1042.99s CPU   1053.79s WALL (   34372 calls)
     h_psi        :   5778.96s CPU   5878.25s WALL (   35122 calls)
     s_psi        :    554.57s CPU    558.68s WALL (   35122 calls)
     g_psi        :     16.86s CPU     17.13s WALL (   24847 calls)

     Called by h_psi:
     h_psi:calbec :    889.63s CPU    897.29s WALL (   35122 calls)
     vloc_psi     :   4289.56s CPU   4374.42s WALL (   35122 calls)
     add_vuspsi   :    561.35s CPU    567.74s WALL (   35122 calls)

     General routines
     calbec       :   1503.48s CPU   1515.73s WALL (   49297 calls)
     fft          :      6.17s CPU      6.45s WALL (    2088 calls)
     ffts         :      0.23s CPU      0.25s WALL (     280 calls)
     fftw         :   5056.85s CPU   5158.59s WALL (18206312 calls)
     interpolate  :      0.82s CPU      0.96s WALL (     144 calls)
 
     Parallel routines
     fft_scatt_xy :    315.62s CPU    320.50s WALL (18208680 calls)
     fft_scatt_yz :   4187.56s CPU   4277.03s WALL (18208680 calls)
 
     PWSCF        :      4h 5m CPU      4h11m WALL

 
   This run was terminated on:   3:30:48   3Dec2021            

=------------------------------------------------------------------------------=
   JOB DONE.
=------------------------------------------------------------------------------=
