
     Program PWSCF v.6.7MaX starts on  3Dec2021 at  7:31:12 

     This program is part of the open-source Quantum ESPRESSO suite
     for quantum simulation of materials; please cite
         "P. Giannozzi et al., J. Phys.:Condens. Matter 21 395502 (2009);
         "P. Giannozzi et al., J. Phys.:Condens. Matter 29 465901 (2017);
          URL http://www.quantum-espresso.org", 
     in publications or presentations arising from this work. More details at
     http://www.quantum-espresso.org/quote

     Parallel version (MPI & OpenMP), running on      72 processor cores
     Number of MPI processes:                72
     Threads/MPI process:                     1

     MPI processes distributed on     1 nodes
     R & G space division:  proc/nbgrp/npool/nimage =      72
     Reading input from relax_16.in
Warning: card &CELL ignored
Warning: card CELL_DYNAMICS = 'BFGS', ignored
Warning: card CELL_FACTOR = 2.0, ignored
Warning: card PRESS = 0.0, ignored
Warning: card / ignored

     Current dimensions of program PWSCF are:
     Max number of different atomic species (ntypx) = 10
     Max number of k-points (npk) =  40000
     Max angular momentum in pseudopotentials (lmaxx) =  3
     file Ru.pbe-spn-kjpaw_psl.1.0.0.UPF: wavefunction(s)  4D renormalized

     Subspace diagonalization in iterative solution of the eigenvalue problem:
     one sub-group per band group will be used
     ELPA distributed-memory algorithm (size of sub-group:  8*  8 procs)

     Found symmetry operation: I + (  0.2500  0.2500  0.0000)
     This is a supercell, fractional translations are disabled
     Message from routine setup:
     using ibrav=0 with symmetry is DISCOURAGED, use correct ibrav instead
 
     Parallelization info
     --------------------
     sticks:   dense  smooth     PW     G-vecs:    dense   smooth      PW
     Min          98      65     17                10926     5864     819
     Max          99      67     18                10935     5871     828
     Sum        7113    4693   1265               786927   422451   59303
 


     bravais-lattice index     =            0
     lattice parameter (alat)  =      14.4007  a.u.
     unit-cell volume          =    5226.2794 (a.u.)^3
     number of atoms/cell      =           32
     number of atomic types    =            1
     number of electrons       =       512.00
     number of Kohn-Sham states=          307
     kinetic-energy cutoff     =      71.0000  Ry
     charge density cutoff     =     430.0000  Ry
     scf convergence threshold =      1.0E-06
     mixing beta               =       0.1000
     number of iterations used =           10  TF        mixing
     energy convergence thresh.=      1.0E-04
     force convergence thresh. =      1.0E-03
     Exchange-correlation= SLA  PW   PBX  PBC
                           (   1   4   3   4   0   0   0)
     nstep                     =           40


     celldm(1)=  14.400742  celldm(2)=   0.000000  celldm(3)=   0.000000
     celldm(4)=   0.000000  celldm(5)=   0.000000  celldm(6)=   0.000000

     crystal axes: (cart. coord. in units of alat)
               a(1) = (   1.000000   0.000000   0.000000 )  
               a(2) = (   0.000000   1.000000   0.000000 )  
               a(3) = (   0.000000   0.000000   1.750000 )  

     reciprocal axes: (cart. coord. in units 2 pi/alat)
               b(1) = (  1.000000  0.000000  0.000000 )  
               b(2) = (  0.000000  1.000000  0.000000 )  
               b(3) = (  0.000000  0.000000  0.571429 )  


     PseudoPot. # 1 for Ru read from file:
     /rds/homes/b/bxp912/pp/Ru.pbe-spn-kjpaw_psl.1.0.0.UPF
     MD5 check sum: 0ae1f594dea09af7be8575c3a481d1ae
     Pseudo is Projector augmented-wave + core cor, Zval = 16.0
     Generated using "atomic" code by A. Dal Corso  v.5.1
     Shape of augmentation charge: PSQ
     Using radial grid of 1233 points,  6 beta functions with: 
                l(1) =   0
                l(2) =   0
                l(3) =   1
                l(4) =   1
                l(5) =   2
                l(6) =   2
     Q(r) pseudized with 0 coefficients 


     atomic species   valence    mass     pseudopotential
        Ru            16.00   101.07000     Ru( 1.00)

      8 Sym. Ops. (no inversion) found



   Cartesian axes

     site n.     atom                  positions (alat units)
         1           Ru  tau(   1) = (   0.0000000   0.0000000   0.0000000  )
         2           Ru  tau(   2) = (   0.2500000   0.2500000   0.0000000  )
         3           Ru  tau(   3) = (   0.2500000   0.0000000   0.2500000  )
         4           Ru  tau(   4) = (   0.0000000   0.2500000   0.2500000  )
         5           Ru  tau(   5) = (   0.0000000   0.0000000   1.2500000  )
         6           Ru  tau(   6) = (   0.2500000   0.2500000   1.2500000  )
         7           Ru  tau(   7) = (   0.2500000   0.0000000   1.5000000  )
         8           Ru  tau(   8) = (   0.0000000   0.2500000   1.5000000  )
         9           Ru  tau(   9) = (   0.0000000   0.5000000   0.0000000  )
        10           Ru  tau(  10) = (   0.2500000   0.7500000   0.0000000  )
        11           Ru  tau(  11) = (   0.2500000   0.5000000   0.2500000  )
        12           Ru  tau(  12) = (   0.0000000   0.7500000   0.2500000  )
        13           Ru  tau(  13) = (   0.0000000   0.5000000   1.2500000  )
        14           Ru  tau(  14) = (   0.2500000   0.7500000   1.2500000  )
        15           Ru  tau(  15) = (   0.2500000   0.5000000   1.5000000  )
        16           Ru  tau(  16) = (   0.0000000   0.7500000   1.5000000  )
        17           Ru  tau(  17) = (   0.5000000   0.0000000   0.0000000  )
        18           Ru  tau(  18) = (   0.7500000   0.2500000   0.0000000  )
        19           Ru  tau(  19) = (   0.7500000   0.0000000   0.2500000  )
        20           Ru  tau(  20) = (   0.5000000   0.2500000   0.2500000  )
        21           Ru  tau(  21) = (   0.5000000   0.0000000   1.2500000  )
        22           Ru  tau(  22) = (   0.7500000   0.2500000   1.2500000  )
        23           Ru  tau(  23) = (   0.7500000   0.0000000   1.5000000  )
        24           Ru  tau(  24) = (   0.5000000   0.2500000   1.5000000  )
        25           Ru  tau(  25) = (   0.5000000   0.5000000   0.0000000  )
        26           Ru  tau(  26) = (   0.7500000   0.7500000   0.0000000  )
        27           Ru  tau(  27) = (   0.7500000   0.5000000   0.2500000  )
        28           Ru  tau(  28) = (   0.5000000   0.7500000   0.2500000  )
        29           Ru  tau(  29) = (   0.5000000   0.5000000   1.2500000  )
        30           Ru  tau(  30) = (   0.7500000   0.7500000   1.2500000  )
        31           Ru  tau(  31) = (   0.7500000   0.5000000   1.5000000  )
        32           Ru  tau(  32) = (   0.5000000   0.7500000   1.5000000  )

     number of k points=    75  Marzari-Vanderbilt smearing, width (Ry)=  0.0400
                       cart. coord. in units 2pi/alat
        k(    1) = (   0.0555556   0.0555556   0.0317460), wk =   0.0219479
        k(    2) = (   0.0555556   0.0555556   0.0952381), wk =   0.0219479
        k(    3) = (   0.0555556   0.0555556   0.1587302), wk =   0.0219479
        k(    4) = (   0.0555556   0.0555556   0.2222222), wk =   0.0219479
        k(    5) = (   0.0555556   0.0555556  -0.2857143), wk =   0.0109739
        k(    6) = (   0.0555556   0.1666667   0.0317460), wk =   0.0438957
        k(    7) = (   0.0555556   0.1666667   0.0952381), wk =   0.0438957
        k(    8) = (   0.0555556   0.1666667   0.1587302), wk =   0.0438957
        k(    9) = (   0.0555556   0.1666667   0.2222222), wk =   0.0438957
        k(   10) = (   0.0555556   0.1666667  -0.2857143), wk =   0.0219479
        k(   11) = (   0.0555556   0.2777778   0.0317460), wk =   0.0438957
        k(   12) = (   0.0555556   0.2777778   0.0952381), wk =   0.0438957
        k(   13) = (   0.0555556   0.2777778   0.1587302), wk =   0.0438957
        k(   14) = (   0.0555556   0.2777778   0.2222222), wk =   0.0438957
        k(   15) = (   0.0555556   0.2777778  -0.2857143), wk =   0.0219479
        k(   16) = (   0.0555556   0.3888889   0.0317460), wk =   0.0438957
        k(   17) = (   0.0555556   0.3888889   0.0952381), wk =   0.0438957
        k(   18) = (   0.0555556   0.3888889   0.1587302), wk =   0.0438957
        k(   19) = (   0.0555556   0.3888889   0.2222222), wk =   0.0438957
        k(   20) = (   0.0555556   0.3888889  -0.2857143), wk =   0.0219479
        k(   21) = (   0.0555556  -0.5000000   0.0317460), wk =   0.0219479
        k(   22) = (   0.0555556  -0.5000000   0.0952381), wk =   0.0219479
        k(   23) = (   0.0555556  -0.5000000   0.1587302), wk =   0.0219479
        k(   24) = (   0.0555556  -0.5000000   0.2222222), wk =   0.0219479
        k(   25) = (   0.0555556  -0.5000000  -0.2857143), wk =   0.0109739
        k(   26) = (   0.1666667   0.1666667   0.0317460), wk =   0.0219479
        k(   27) = (   0.1666667   0.1666667   0.0952381), wk =   0.0219479
        k(   28) = (   0.1666667   0.1666667   0.1587302), wk =   0.0219479
        k(   29) = (   0.1666667   0.1666667   0.2222222), wk =   0.0219479
        k(   30) = (   0.1666667   0.1666667  -0.2857143), wk =   0.0109739
        k(   31) = (   0.1666667   0.2777778   0.0317460), wk =   0.0438957
        k(   32) = (   0.1666667   0.2777778   0.0952381), wk =   0.0438957
        k(   33) = (   0.1666667   0.2777778   0.1587302), wk =   0.0438957
        k(   34) = (   0.1666667   0.2777778   0.2222222), wk =   0.0438957
        k(   35) = (   0.1666667   0.2777778  -0.2857143), wk =   0.0219479
        k(   36) = (   0.1666667   0.3888889   0.0317460), wk =   0.0438957
        k(   37) = (   0.1666667   0.3888889   0.0952381), wk =   0.0438957
        k(   38) = (   0.1666667   0.3888889   0.1587302), wk =   0.0438957
        k(   39) = (   0.1666667   0.3888889   0.2222222), wk =   0.0438957
        k(   40) = (   0.1666667   0.3888889  -0.2857143), wk =   0.0219479
        k(   41) = (   0.1666667  -0.5000000   0.0317460), wk =   0.0219479
        k(   42) = (   0.1666667  -0.5000000   0.0952381), wk =   0.0219479
        k(   43) = (   0.1666667  -0.5000000   0.1587302), wk =   0.0219479
        k(   44) = (   0.1666667  -0.5000000   0.2222222), wk =   0.0219479
        k(   45) = (   0.1666667  -0.5000000  -0.2857143), wk =   0.0109739
        k(   46) = (   0.2777778   0.2777778   0.0317460), wk =   0.0219479
        k(   47) = (   0.2777778   0.2777778   0.0952381), wk =   0.0219479
        k(   48) = (   0.2777778   0.2777778   0.1587302), wk =   0.0219479
        k(   49) = (   0.2777778   0.2777778   0.2222222), wk =   0.0219479
        k(   50) = (   0.2777778   0.2777778  -0.2857143), wk =   0.0109739
        k(   51) = (   0.2777778   0.3888889   0.0317460), wk =   0.0438957
        k(   52) = (   0.2777778   0.3888889   0.0952381), wk =   0.0438957
        k(   53) = (   0.2777778   0.3888889   0.1587302), wk =   0.0438957
        k(   54) = (   0.2777778   0.3888889   0.2222222), wk =   0.0438957
        k(   55) = (   0.2777778   0.3888889  -0.2857143), wk =   0.0219479
        k(   56) = (   0.2777778  -0.5000000   0.0317460), wk =   0.0219479
        k(   57) = (   0.2777778  -0.5000000   0.0952381), wk =   0.0219479
        k(   58) = (   0.2777778  -0.5000000   0.1587302), wk =   0.0219479
        k(   59) = (   0.2777778  -0.5000000   0.2222222), wk =   0.0219479
        k(   60) = (   0.2777778  -0.5000000  -0.2857143), wk =   0.0109739
        k(   61) = (   0.3888889   0.3888889   0.0317460), wk =   0.0219479
        k(   62) = (   0.3888889   0.3888889   0.0952381), wk =   0.0219479
        k(   63) = (   0.3888889   0.3888889   0.1587302), wk =   0.0219479
        k(   64) = (   0.3888889   0.3888889   0.2222222), wk =   0.0219479
        k(   65) = (   0.3888889   0.3888889  -0.2857143), wk =   0.0109739
        k(   66) = (   0.3888889  -0.5000000   0.0317460), wk =   0.0219479
        k(   67) = (   0.3888889  -0.5000000   0.0952381), wk =   0.0219479
        k(   68) = (   0.3888889  -0.5000000   0.1587302), wk =   0.0219479
        k(   69) = (   0.3888889  -0.5000000   0.2222222), wk =   0.0219479
        k(   70) = (   0.3888889  -0.5000000  -0.2857143), wk =   0.0109739
        k(   71) = (  -0.5000000  -0.5000000   0.0317460), wk =   0.0054870
        k(   72) = (  -0.5000000  -0.5000000   0.0952381), wk =   0.0054870
        k(   73) = (  -0.5000000  -0.5000000   0.1587302), wk =   0.0054870
        k(   74) = (  -0.5000000  -0.5000000   0.2222222), wk =   0.0054870
        k(   75) = (  -0.5000000  -0.5000000  -0.2857143), wk =   0.0027435

     Dense  grid:   786927 G-vectors     FFT dimensions: (  96,  96, 180)

     Smooth grid:   422451 G-vectors     FFT dimensions: (  80,  80, 135)

     Estimated max dynamical RAM per process >     323.07 MB

     Estimated total dynamical RAM >      22.72 GB

     Check: negative core charge=   -0.000002

     Initial potential from superposition of free atoms

     starting charge  511.97959, renormalised to  512.00000
     Starting wfcs are  320 randomized atomic wfcs
     Checking if some PAW data can be deallocated... 

     total cpu time spent up to now is       39.9 secs

     Self-consistent Calculation

     iteration #  1     ecut=    71.00 Ry     beta= 0.10
     Davidson diagonalization with overlap
     ethr =  1.00E-02,  avg # of iterations =  4.2

     total cpu time spent up to now is      157.7 secs

     total energy              =  -13812.50012211 Ry
     estimated scf accuracy    <      11.73070552 Ry

     iteration #  2     ecut=    71.00 Ry     beta= 0.10
     Davidson diagonalization with overlap
     ethr =  2.29E-03,  avg # of iterations =  1.2

     total cpu time spent up to now is      238.6 secs

     total energy              =  -13812.23852968 Ry
     estimated scf accuracy    <       8.42818447 Ry

     iteration #  3     ecut=    71.00 Ry     beta= 0.10
     Davidson diagonalization with overlap
     ethr =  1.65E-03,  avg # of iterations =  1.2

     total cpu time spent up to now is      324.4 secs

     total energy              =  -13811.91268473 Ry
     estimated scf accuracy    <       3.40225283 Ry

     iteration #  4     ecut=    71.00 Ry     beta= 0.10
     Davidson diagonalization with overlap
     ethr =  6.65E-04,  avg # of iterations =  2.2

     total cpu time spent up to now is      415.0 secs

     total energy              =  -13811.60186163 Ry
     estimated scf accuracy    <       1.78981546 Ry

     iteration #  5     ecut=    71.00 Ry     beta= 0.10
     Davidson diagonalization with overlap
     ethr =  3.50E-04,  avg # of iterations =  4.1

     total cpu time spent up to now is      525.1 secs

     total energy              =  -13811.67364675 Ry
     estimated scf accuracy    <       0.59155449 Ry

     iteration #  6     ecut=    71.00 Ry     beta= 0.10
     Davidson diagonalization with overlap
     ethr =  1.16E-04,  avg # of iterations =  3.0

     total cpu time spent up to now is      633.9 secs

     total energy              =  -13811.91991130 Ry
     estimated scf accuracy    <       1.08115815 Ry

     iteration #  7     ecut=    71.00 Ry     beta= 0.10
     Davidson diagonalization with overlap
     ethr =  1.16E-04,  avg # of iterations =  1.6

     total cpu time spent up to now is      715.7 secs

     total energy              =  -13811.84581522 Ry
     estimated scf accuracy    <       1.56195631 Ry

     iteration #  8     ecut=    71.00 Ry     beta= 0.10
     Davidson diagonalization with overlap
     ethr =  1.16E-04,  avg # of iterations =  1.0

     total cpu time spent up to now is      784.7 secs

     total energy              =  -13811.82279109 Ry
     estimated scf accuracy    <       1.18589373 Ry

     iteration #  9     ecut=    71.00 Ry     beta= 0.10
     Davidson diagonalization with overlap
     ethr =  1.16E-04,  avg # of iterations =  1.0

     total cpu time spent up to now is      860.0 secs

     total energy              =  -13811.79847352 Ry
     estimated scf accuracy    <       1.05117020 Ry

     iteration # 10     ecut=    71.00 Ry     beta= 0.10
     Davidson diagonalization with overlap
     ethr =  1.16E-04,  avg # of iterations =  1.0

     total cpu time spent up to now is      932.0 secs

     total energy              =  -13811.79949640 Ry
     estimated scf accuracy    <       0.87630549 Ry

     iteration # 11     ecut=    71.00 Ry     beta= 0.10
     Davidson diagonalization with overlap
     ethr =  1.16E-04,  avg # of iterations =  1.0

     total cpu time spent up to now is     1003.9 secs

     total energy              =  -13811.83426588 Ry
     estimated scf accuracy    <       0.87294614 Ry

     iteration # 12     ecut=    71.00 Ry     beta= 0.10
     Davidson diagonalization with overlap
     ethr =  1.16E-04,  avg # of iterations =  1.0

     total cpu time spent up to now is     1074.8 secs

     total energy              =  -13811.64532797 Ry
     estimated scf accuracy    <       1.13528666 Ry

     iteration # 13     ecut=    71.00 Ry     beta= 0.10
     Davidson diagonalization with overlap
     ethr =  1.16E-04,  avg # of iterations =  2.4

     total cpu time spent up to now is     1159.9 secs

     total energy              =  -13811.65192320 Ry
     estimated scf accuracy    <       0.39536513 Ry

     iteration # 14     ecut=    71.00 Ry     beta= 0.10
     Davidson diagonalization with overlap
     ethr =  7.72E-05,  avg # of iterations =  2.4

     total cpu time spent up to now is     1246.1 secs

     total energy              =  -13811.65577943 Ry
     estimated scf accuracy    <       0.11450492 Ry

     iteration # 15     ecut=    71.00 Ry     beta= 0.10
     Davidson diagonalization with overlap
     ethr =  2.24E-05,  avg # of iterations =  3.7

     total cpu time spent up to now is     1329.3 secs

     total energy              =  -13811.66983672 Ry
     estimated scf accuracy    <       0.10134562 Ry

     iteration # 16     ecut=    71.00 Ry     beta= 0.10
     Davidson diagonalization with overlap
     ethr =  1.98E-05,  avg # of iterations =  2.8

     total cpu time spent up to now is     1417.1 secs

     total energy              =  -13811.70480675 Ry
     estimated scf accuracy    <       0.28215371 Ry

     iteration # 17     ecut=    71.00 Ry     beta= 0.10
     Davidson diagonalization with overlap
     ethr =  1.98E-05,  avg # of iterations =  2.1

     total cpu time spent up to now is     1517.5 secs

     total energy              =  -13811.73098566 Ry
     estimated scf accuracy    <       0.47886924 Ry

     iteration # 18     ecut=    71.00 Ry     beta= 0.10
     Davidson diagonalization with overlap
     ethr =  1.98E-05,  avg # of iterations =  2.2

     total cpu time spent up to now is     1600.8 secs

     total energy              =  -13811.73269292 Ry
     estimated scf accuracy    <       0.63558710 Ry

     iteration # 19     ecut=    71.00 Ry     beta= 0.10
     Davidson diagonalization with overlap
     ethr =  1.98E-05,  avg # of iterations =  1.0

     total cpu time spent up to now is     1673.4 secs

     total energy              =  -13811.72580579 Ry
     estimated scf accuracy    <       0.65310785 Ry

     iteration # 20     ecut=    71.00 Ry     beta= 0.10
     Davidson diagonalization with overlap
     ethr =  1.98E-05,  avg # of iterations =  1.1

     total cpu time spent up to now is     1745.3 secs

     total energy              =  -13811.76023287 Ry
     estimated scf accuracy    <       0.58737719 Ry

     iteration # 21     ecut=    71.00 Ry     beta= 0.10
     Davidson diagonalization with overlap
     ethr =  1.98E-05,  avg # of iterations =  2.2

     negative rho (up, down):  5.023E-02 0.000E+00

     total cpu time spent up to now is     1830.7 secs

     total energy              =  -13811.55230904 Ry
     estimated scf accuracy    <       0.92799649 Ry

     iteration # 22     ecut=    71.00 Ry     beta= 0.10
     Davidson diagonalization with overlap
     ethr =  1.98E-05,  avg # of iterations =  4.3

     negative rho (up, down):  1.531E-02 0.000E+00

     total cpu time spent up to now is     1968.4 secs

     total energy              =  -13811.63478405 Ry
     estimated scf accuracy    <       0.02511385 Ry

     iteration # 23     ecut=    71.00 Ry     beta= 0.10
     Davidson diagonalization with overlap
     ethr =  4.91E-06,  avg # of iterations =  5.3

     negative rho (up, down):  4.727E-03 0.000E+00

     total cpu time spent up to now is     2078.6 secs

     total energy              =  -13811.64668948 Ry
     estimated scf accuracy    <       0.01472754 Ry

     iteration # 24     ecut=    71.00 Ry     beta= 0.10
     Davidson diagonalization with overlap
     ethr =  2.88E-06,  avg # of iterations =  2.2

     negative rho (up, down):  4.050E-03 0.000E+00

     total cpu time spent up to now is     2166.1 secs

     total energy              =  -13811.64751585 Ry
     estimated scf accuracy    <       0.01010730 Ry

     iteration # 25     ecut=    71.00 Ry     beta= 0.10
     Davidson diagonalization with overlap
     ethr =  1.97E-06,  avg # of iterations =  2.3

     negative rho (up, down):  7.405E-04 0.000E+00

     total cpu time spent up to now is     2254.7 secs

     total energy              =  -13811.65020084 Ry
     estimated scf accuracy    <       0.00139987 Ry

     iteration # 26     ecut=    71.00 Ry     beta= 0.10
     Davidson diagonalization with overlap
     ethr =  2.73E-07,  avg # of iterations =  2.1

     negative rho (up, down):  2.426E-05 0.000E+00

     total cpu time spent up to now is     2339.9 secs

     total energy              =  -13811.65174026 Ry
     estimated scf accuracy    <       0.00145374 Ry

     iteration # 27     ecut=    71.00 Ry     beta= 0.10
     Davidson diagonalization with overlap
     ethr =  2.73E-07,  avg # of iterations =  2.4

     total cpu time spent up to now is     2425.0 secs

     total energy              =  -13811.65322497 Ry
     estimated scf accuracy    <       0.00048576 Ry

     iteration # 28     ecut=    71.00 Ry     beta= 0.10
     Davidson diagonalization with overlap
     ethr =  9.49E-08,  avg # of iterations =  4.8

     total cpu time spent up to now is     2529.9 secs

     total energy              =  -13811.65336295 Ry
     estimated scf accuracy    <       0.00060187 Ry

     iteration # 29     ecut=    71.00 Ry     beta= 0.10
     Davidson diagonalization with overlap
     ethr =  9.49E-08,  avg # of iterations =  2.8

     total cpu time spent up to now is     2623.5 secs

     total energy              =  -13811.65353174 Ry
     estimated scf accuracy    <       0.00009113 Ry

     iteration # 30     ecut=    71.00 Ry     beta= 0.10
     Davidson diagonalization with overlap
     ethr =  1.78E-08,  avg # of iterations =  2.3

     total cpu time spent up to now is     2718.6 secs

     total energy              =  -13811.65360654 Ry
     estimated scf accuracy    <       0.00003862 Ry

     iteration # 31     ecut=    71.00 Ry     beta= 0.10
     Davidson diagonalization with overlap
     ethr =  7.54E-09,  avg # of iterations =  2.9

     total cpu time spent up to now is     2804.0 secs

     total energy              =  -13811.65363758 Ry
     estimated scf accuracy    <       0.00002231 Ry

     iteration # 32     ecut=    71.00 Ry     beta= 0.10
     Davidson diagonalization with overlap
     ethr =  4.36E-09,  avg # of iterations =  3.6

     total cpu time spent up to now is     2895.6 secs

     total energy              =  -13811.65365973 Ry
     estimated scf accuracy    <       0.00000851 Ry

     iteration # 33     ecut=    71.00 Ry     beta= 0.10
     Davidson diagonalization with overlap
     ethr =  1.66E-09,  avg # of iterations =  3.8

     total cpu time spent up to now is     2981.9 secs

     total energy              =  -13811.65367455 Ry
     estimated scf accuracy    <       0.00000491 Ry

     iteration # 34     ecut=    71.00 Ry     beta= 0.10
     Davidson diagonalization with overlap
     ethr =  9.58E-10,  avg # of iterations =  3.9

     negative rho (up, down):  1.360E-07 0.000E+00

     total cpu time spent up to now is     3082.5 secs

     total energy              =  -13811.65367752 Ry
     estimated scf accuracy    <       0.00000293 Ry

     iteration # 35     ecut=    71.00 Ry     beta= 0.10
     Davidson diagonalization with overlap
     ethr =  5.73E-10,  avg # of iterations =  3.7

     negative rho (up, down):  4.532E-07 0.000E+00

     total cpu time spent up to now is     3169.0 secs

     End of self-consistent calculation

          k = 0.0556 0.0556 0.0317 ( 52796 PWs)   bands (ev):

   -61.8259 -61.7467 -61.7467 -61.7317 -61.7317 -61.7170 -61.7147 -61.7090
   -61.7088 -61.7049 -61.6864 -61.6863 -61.6809 -61.6809 -61.6548 -61.6547
   -61.2982 -61.2966 -61.2519 -61.2518 -61.2516 -61.2516 -61.2489 -61.2488
   -61.2481 -61.2480 -61.2428 -61.2428 -61.2426 -61.2426 -61.1941 -61.1941
   -32.1469 -32.1462 -32.1462 -32.1409 -32.1105 -32.1105 -32.0402 -31.9391
   -31.9391 -31.9374 -31.9374 -31.8922 -31.8922 -31.8652 -31.8652 -31.8496
   -31.8496 -31.8395 -31.8395 -31.8047 -31.8047 -31.7635 -31.7585 -31.7585
   -31.7500 -31.7306 -31.7306 -31.7024 -31.7024 -31.6553 -31.6394 -31.6394
   -31.6291 -31.6290 -31.5991 -31.5990 -31.5682 -31.5670 -31.5131 -31.5131
   -31.5033 -31.5033 -31.4589 -31.4589 -31.4337 -31.4337 -31.4247 -31.4213
   -31.4213 -31.4087 -31.4009 -31.3988 -31.3943 -31.3851 -31.3851 -31.3710
   -31.2712 -31.2712 -31.2673 -31.2673 -31.2400 -31.2400 -31.2310 -31.2310
   -31.2304 -31.2304 -31.2302 -31.2302 -31.1965 -31.1965 -31.1940 -31.1940
   -31.1819 -31.1462 -31.1434 -31.1433 -31.1415 -31.1415 -31.1366 -31.1327
   -31.1327 -31.1255 -31.1255 -31.1177 -31.1177 -31.1121 -31.1121 -31.1068
   -31.0131 -31.0099 -31.0068 -31.0025 -30.9828 -30.9828 -30.9792 -30.9792
     4.1093   5.3372   5.4866   5.4866   5.7615   5.7736   5.7788   5.7795
     5.7795   5.8037   5.9865   5.9865   6.2288   6.2288   6.3043   6.4076
     6.4076   6.6709   6.6709   6.6922   6.8464   6.8464   6.8811   6.8811
     7.0398   7.0399   7.0764   7.0929   7.1031   7.1031   7.1502   7.1502
     7.3719   7.3719   7.4082   7.4082   7.4317   7.4317   7.4811   7.4811
     7.6242   7.6242   7.7039   7.7039   7.7394   7.8409   7.8409   7.8503
     7.8503   8.1028   8.1029   8.1232   8.1440   8.1440   8.1483   8.1483
     8.2330   8.2330   8.3769   8.4058   8.4058   8.4545   8.5602   8.5775
     8.5776   8.6078   8.6427   8.6427   8.7979   8.7979   8.9039   8.9039
     8.9529   8.9530   8.9697   8.9779   9.0936   9.1133   9.2691   9.2791
     9.2791   9.3291   9.5642   9.5642   9.6370   9.6370   9.6529   9.6529
     9.7626   9.7626   9.9028   9.9029   9.9087   9.9087   9.9137   9.9292
     9.9292  10.0043  10.0308  10.0506  10.0809  10.0809  10.2595  10.2595
    10.2721  10.3153  10.3153  10.3883  10.3883  10.4137  10.5071  10.5071
    10.5831  10.5831  10.6898  10.6898  10.6955  10.6955  10.7322  10.8495
    10.8495  10.8816  10.8817  11.0090  11.0090  11.2654  11.2654  11.2655
    11.2915  11.2915  11.3395  11.4408  11.5499  11.5499  11.5663  11.5817
    11.6102  11.6102  11.6121  11.6121  11.6600  11.7718  11.7718  11.7888
    11.8101  11.8101  11.9518  11.9874  11.9874  12.3164  12.3390  12.3390
    12.4798  12.4867  12.4867  12.5429  12.6094  12.7295  12.7334  12.7334
    12.7769  12.7966  12.7966  12.8077  12.8077  12.9554  13.1548  13.2020
    13.2020  13.2917  13.2917  13.5677  13.5677  13.5794  13.7059  13.7059
    13.7746  14.4817  14.4820

          k = 0.0556 0.0556 0.0952 ( 52840 PWs)   bands (ev):

   -61.8259 -61.7467 -61.7467 -61.7317 -61.7317 -61.7170 -61.7147 -61.7090
   -61.7088 -61.7049 -61.6864 -61.6863 -61.6809 -61.6809 -61.6548 -61.6547
   -61.2982 -61.2966 -61.2519 -61.2518 -61.2516 -61.2516 -61.2489 -61.2488
   -61.2481 -61.2480 -61.2428 -61.2428 -61.2426 -61.2426 -61.1941 -61.1941
   -32.1469 -32.1462 -32.1462 -32.1409 -32.1105 -32.1105 -32.0402 -31.9391
   -31.9391 -31.9375 -31.9375 -31.8923 -31.8922 -31.8652 -31.8652 -31.8496
   -31.8496 -31.8395 -31.8395 -31.8047 -31.8047 -31.7635 -31.7585 -31.7585
   -31.7500 -31.7307 -31.7306 -31.7024 -31.7024 -31.6554 -31.6394 -31.6394
   -31.6291 -31.6290 -31.5991 -31.5991 -31.5682 -31.5671 -31.5131 -31.5131
   -31.5033 -31.5033 -31.4589 -31.4589 -31.4336 -31.4336 -31.4247 -31.4213
   -31.4213 -31.4087 -31.4009 -31.3988 -31.3943 -31.3851 -31.3851 -31.3710
   -31.2712 -31.2712 -31.2673 -31.2673 -31.2400 -31.2400 -31.2310 -31.2310
   -31.2304 -31.2304 -31.2302 -31.2302 -31.1965 -31.1965 -31.1940 -31.1940
   -31.1819 -31.1462 -31.1434 -31.1434 -31.1415 -31.1415 -31.1366 -31.1327
   -31.1327 -31.1255 -31.1255 -31.1177 -31.1177 -31.1121 -31.1121 -31.1069
   -31.0131 -31.0099 -31.0068 -31.0025 -30.9829 -30.9828 -30.9792 -30.9792
     4.1093   5.3372   5.4866   5.4866   5.7615   5.7736   5.7788   5.7795
     5.7796   5.8035   5.9865   5.9865   6.2288   6.2288   6.3044   6.4076
     6.4076   6.6709   6.6709   6.6922   6.8464   6.8464   6.8811   6.8811
     7.0398   7.0399   7.0763   7.0929   7.1031   7.1031   7.1502   7.1502
     7.3719   7.3719   7.4082   7.4082   7.4317   7.4317   7.4810   7.4810
     7.6242   7.6242   7.7039   7.7039   7.7394   7.8409   7.8409   7.8503
     7.8503   8.1028   8.1028   8.1231   8.1440   8.1440   8.1483   8.1483
     8.2330   8.2330   8.3769   8.4057   8.4057   8.4545   8.5601   8.5775
     8.5776   8.6078   8.6424   8.6425   8.7981   8.7981   8.9042   8.9042
     8.9530   8.9530   8.9697   8.9779   9.0936   9.1133   9.2694   9.2792
     9.2793   9.3292   9.5642   9.5642   9.6370   9.6370   9.6529   9.6529
     9.7618   9.7618   9.9028   9.9028   9.9080   9.9080   9.9084   9.9292
     9.9292  10.0117  10.0308  10.0506  10.0809  10.0809  10.2602  10.2602
    10.2721  10.3153  10.3153  10.3891  10.3891  10.4194  10.5071  10.5071
    10.5836  10.5836  10.6899  10.6899  10.6955  10.6955  10.7322  10.8490
    10.8490  10.8810  10.8811  11.0092  11.0093  11.2654  11.2654  11.2655
    11.2910  11.2910  11.3391  11.4398  11.5499  11.5499  11.5588  11.5817
    11.6102  11.6102  11.6142  11.6142  11.6600  11.7736  11.7736  11.7888
    11.8099  11.8099  11.9518  11.9874  11.9874  12.2823  12.3390  12.3390
    12.4798  12.4868  12.4868  12.5429  12.6094  12.7269  12.7269  12.7377
    12.7769  12.7966  12.7966  12.8077  12.8077  12.9554  13.1556  13.1959
    13.1959  13.2917  13.2917  13.5693  13.5693  13.5824  13.7059  13.7059
    13.8334  14.4816  14.5011

          k = 0.0556 0.0556 0.1587 ( 52848 PWs)   bands (ev):

   -61.8259 -61.7467 -61.7467 -61.7317 -61.7317 -61.7170 -61.7147 -61.7090
   -61.7088 -61.7049 -61.6864 -61.6864 -61.6809 -61.6809 -61.6548 -61.6547
   -61.2982 -61.2966 -61.2519 -61.2518 -61.2516 -61.2516 -61.2489 -61.2488
   -61.2481 -61.2480 -61.2428 -61.2428 -61.2426 -61.2426 -61.1941 -61.1941
   -32.1469 -32.1462 -32.1462 -32.1409 -32.1105 -32.1105 -32.0402 -31.9391
   -31.9391 -31.9375 -31.9375 -31.8923 -31.8923 -31.8652 -31.8652 -31.8496
   -31.8496 -31.8395 -31.8395 -31.8048 -31.8047 -31.7635 -31.7585 -31.7585
   -31.7500 -31.7306 -31.7306 -31.7024 -31.7024 -31.6554 -31.6394 -31.6394
   -31.6291 -31.6290 -31.5991 -31.5991 -31.5682 -31.5671 -31.5131 -31.5131
   -31.5033 -31.5033 -31.4589 -31.4589 -31.4337 -31.4337 -31.4247 -31.4213
   -31.4213 -31.4087 -31.4009 -31.3988 -31.3943 -31.3851 -31.3850 -31.3709
   -31.2712 -31.2712 -31.2673 -31.2673 -31.2400 -31.2400 -31.2310 -31.2310
   -31.2304 -31.2304 -31.2302 -31.2302 -31.1966 -31.1966 -31.1940 -31.1940
   -31.1820 -31.1461 -31.1434 -31.1434 -31.1415 -31.1415 -31.1366 -31.1327
   -31.1327 -31.1255 -31.1255 -31.1177 -31.1177 -31.1121 -31.1121 -31.1069
   -31.0131 -31.0099 -31.0068 -31.0025 -30.9828 -30.9828 -30.9792 -30.9792
     4.1094   5.3371   5.4866   5.4866   5.7616   5.7736   5.7788   5.7795
     5.7796   5.8032   5.9865   5.9865   6.2288   6.2289   6.3045   6.4076
     6.4076   6.6709   6.6709   6.6922   6.8464   6.8464   6.8811   6.8811
     7.0398   7.0398   7.0763   7.0929   7.1030   7.1031   7.1502   7.1502
     7.3719   7.3719   7.4082   7.4082   7.4317   7.4317   7.4810   7.4810
     7.6243   7.6243   7.7039   7.7039   7.7394   7.8409   7.8409   7.8503
     7.8503   8.1028   8.1028   8.1231   8.1440   8.1440   8.1483   8.1483
     8.2330   8.2330   8.3769   8.4055   8.4055   8.4545   8.5601   8.5775
     8.5775   8.6078   8.6421   8.6421   8.7985   8.7985   8.9047   8.9047
     8.9530   8.9530   8.9697   8.9779   9.0935   9.1133   9.2697   9.2795
     9.2795   9.3294   9.5642   9.5642   9.6369   9.6369   9.6529   9.6529
     9.7607   9.7607   9.9015   9.9028   9.9028   9.9069   9.9069   9.9292
     9.9292  10.0215  10.0308  10.0506  10.0809  10.0809  10.2614  10.2614
    10.2721  10.3153  10.3153  10.3902  10.3902  10.4285  10.5071  10.5072
    10.5845  10.5845  10.6900  10.6900  10.6955  10.6955  10.7322  10.8484
    10.8484  10.8801  10.8801  11.0097  11.0097  11.2655  11.2655  11.2655
    11.2903  11.2903  11.3385  11.4383  11.5464  11.5499  11.5499  11.5817
    11.6102  11.6102  11.6174  11.6174  11.6600  11.7763  11.7763  11.7888
    11.8097  11.8097  11.9518  11.9873  11.9873  12.2361  12.3389  12.3389
    12.4798  12.4869  12.4869  12.5429  12.6094  12.7169  12.7170  12.7473
    12.7769  12.7966  12.7966  12.8077  12.8077  12.9554  13.1570  13.1867
    13.1867  13.2917  13.2917  13.5718  13.5718  13.5871  13.7059  13.7059
    13.9247  14.4809  14.5322

          k = 0.0556 0.0556 0.2222 ( 52839 PWs)   bands (ev):

   -61.8259 -61.7467 -61.7467 -61.7317 -61.7317 -61.7170 -61.7147 -61.7090
   -61.7088 -61.7049 -61.6864 -61.6864 -61.6809 -61.6809 -61.6548 -61.6547
   -61.2982 -61.2966 -61.2519 -61.2519 -61.2516 -61.2516 -61.2489 -61.2488
   -61.2481 -61.2480 -61.2428 -61.2428 -61.2426 -61.2426 -61.1941 -61.1941
   -32.1469 -32.1462 -32.1462 -32.1409 -32.1105 -32.1105 -32.0403 -31.9392
   -31.9392 -31.9375 -31.9375 -31.8923 -31.8923 -31.8652 -31.8652 -31.8496
   -31.8496 -31.8395 -31.8395 -31.8048 -31.8047 -31.7635 -31.7585 -31.7585
   -31.7500 -31.7306 -31.7306 -31.7025 -31.7025 -31.6554 -31.6394 -31.6394
   -31.6291 -31.6290 -31.5991 -31.5991 -31.5683 -31.5671 -31.5131 -31.5131
   -31.5033 -31.5033 -31.4589 -31.4589 -31.4336 -31.4336 -31.4247 -31.4213
   -31.4212 -31.4087 -31.4009 -31.3988 -31.3943 -31.3851 -31.3850 -31.3709
   -31.2712 -31.2712 -31.2673 -31.2673 -31.2401 -31.2400 -31.2310 -31.2310
   -31.2304 -31.2304 -31.2301 -31.2301 -31.1966 -31.1966 -31.1941 -31.1940
   -31.1819 -31.1461 -31.1434 -31.1433 -31.1415 -31.1415 -31.1365 -31.1327
   -31.1327 -31.1255 -31.1255 -31.1177 -31.1177 -31.1121 -31.1121 -31.1069
   -31.0131 -31.0099 -31.0068 -31.0025 -30.9828 -30.9828 -30.9792 -30.9791
     4.1094   5.3371   5.4866   5.4866   5.7616   5.7736   5.7788   5.7795
     5.7796   5.8029   5.9865   5.9865   6.2288   6.2289   6.3046   6.4076
     6.4077   6.6709   6.6709   6.6922   6.8464   6.8464   6.8811   6.8811
     7.0398   7.0398   7.0763   7.0929   7.1030   7.1030   7.1502   7.1502
     7.3719   7.3720   7.4081   7.4082   7.4317   7.4317   7.4810   7.4810
     7.6243   7.6243   7.7038   7.7039   7.7394   7.8409   7.8409   7.8503
     7.8503   8.1028   8.1028   8.1231   8.1440   8.1440   8.1483   8.1483
     8.2329   8.2329   8.3769   8.4053   8.4053   8.4545   8.5601   8.5775
     8.5775   8.6078   8.6418   8.6418   8.7987   8.7987   8.9051   8.9051
     8.9530   8.9530   8.9697   8.9779   9.0935   9.1133   9.2700   9.2797
     9.2797   9.3296   9.5643   9.5643   9.6368   9.6368   9.6529   9.6529
     9.7597   9.7597   9.8963   9.9028   9.9028   9.9059   9.9059   9.9292
     9.9292  10.0292  10.0308  10.0506  10.0809  10.0809  10.2623  10.2624
    10.2721  10.3152  10.3153  10.3912  10.3912  10.4370  10.5072  10.5072
    10.5852  10.5852  10.6901  10.6901  10.6955  10.6955  10.7322  10.8479
    10.8479  10.8793  10.8793  11.0100  11.0101  11.2655  11.2655  11.2655
    11.2896  11.2896  11.3380  11.4370  11.5346  11.5499  11.5499  11.5817
    11.6102  11.6103  11.6203  11.6203  11.6600  11.7787  11.7787  11.7888
    11.8096  11.8096  11.9518  11.9872  11.9872  12.2001  12.3389  12.3389
    12.4798  12.4871  12.4871  12.5429  12.6094  12.7083  12.7083  12.7536
    12.7769  12.7966  12.7966  12.8077  12.8077  12.9554  13.1581  13.1786
    13.1786  13.2917  13.2917  13.5739  13.5739  13.5912  13.7059  13.7059
    14.0070  14.4804  14.5608

          k = 0.0556 0.0556-0.2857 ( 52818 PWs)   bands (ev):

   -61.8259 -61.7467 -61.7467 -61.7317 -61.7317 -61.7170 -61.7147 -61.7090
   -61.7088 -61.7049 -61.6864 -61.6864 -61.6809 -61.6809 -61.6548 -61.6547
   -61.2982 -61.2966 -61.2519 -61.2519 -61.2516 -61.2516 -61.2489 -61.2488
   -61.2481 -61.2480 -61.2428 -61.2428 -61.2426 -61.2426 -61.1941 -61.1941
   -32.1469 -32.1462 -32.1462 -32.1409 -32.1105 -32.1105 -32.0402 -31.9392
   -31.9392 -31.9375 -31.9375 -31.8923 -31.8923 -31.8652 -31.8652 -31.8496
   -31.8496 -31.8395 -31.8395 -31.8048 -31.8047 -31.7635 -31.7585 -31.7585
   -31.7500 -31.7307 -31.7306 -31.7025 -31.7025 -31.6554 -31.6394 -31.6394
   -31.6291 -31.6290 -31.5991 -31.5991 -31.5683 -31.5671 -31.5131 -31.5131
   -31.5033 -31.5033 -31.4589 -31.4589 -31.4336 -31.4336 -31.4247 -31.4213
   -31.4213 -31.4087 -31.4009 -31.3988 -31.3943 -31.3851 -31.3850 -31.3709
   -31.2712 -31.2712 -31.2673 -31.2673 -31.2401 -31.2401 -31.2310 -31.2310
   -31.2304 -31.2304 -31.2302 -31.2302 -31.1966 -31.1966 -31.1940 -31.1940
   -31.1819 -31.1461 -31.1434 -31.1433 -31.1415 -31.1415 -31.1366 -31.1327
   -31.1327 -31.1255 -31.1255 -31.1177 -31.1177 -31.1121 -31.1121 -31.1069
   -31.0131 -31.0099 -31.0068 -31.0025 -30.9828 -30.9828 -30.9792 -30.9791
     4.1095   5.3371   5.4866   5.4866   5.7616   5.7736   5.7788   5.7795
     5.7796   5.8028   5.9865   5.9865   6.2288   6.2289   6.3047   6.4076
     6.4077   6.6709   6.6709   6.6922   6.8464   6.8464   6.8811   6.8811
     7.0398   7.0398   7.0763   7.0928   7.1030   7.1030   7.1502   7.1502
     7.3719   7.3720   7.4081   7.4082   7.4317   7.4317   7.4810   7.4810
     7.6243   7.6243   7.7038   7.7039   7.7394   7.8409   7.8409   7.8503
     7.8503   8.1028   8.1028   8.1231   8.1440   8.1440   8.1483   8.1483
     8.2329   8.2329   8.3769   8.4053   8.4053   8.4545   8.5601   8.5775
     8.5775   8.6078   8.6417   8.6417   8.7989   8.7989   8.9052   8.9052
     8.9530   8.9530   8.9697   8.9779   9.0935   9.1133   9.2701   9.2797
     9.2798   9.3297   9.5643   9.5643   9.6368   9.6368   9.6529   9.6529
     9.7594   9.7594   9.8945   9.9028   9.9028   9.9056   9.9056   9.9292
     9.9292  10.0308  10.0320  10.0506  10.0809  10.0809  10.2627  10.2628
    10.2721  10.3152  10.3152  10.3915  10.3915  10.4405  10.5072  10.5072
    10.5855  10.5855  10.6901  10.6901  10.6954  10.6955  10.7322  10.8476
    10.8476  10.8790  10.8790  11.0102  11.0102  11.2655  11.2655  11.2655
    11.2894  11.2894  11.3378  11.4364  11.5297  11.5499  11.5499  11.5817
    11.6102  11.6103  11.6215  11.6215  11.6600  11.7796  11.7796  11.7888
    11.8095  11.8095  11.9518  11.9872  11.9872  12.1869  12.3389  12.3389
    12.4798  12.4871  12.4871  12.5429  12.6094  12.7049  12.7049  12.7557
    12.7769  12.7966  12.7966  12.8077  12.8077  12.9554  13.1586  13.1754
    13.1754  13.2917  13.2917  13.5748  13.5748  13.5929  13.7059  13.7059
    14.0403  14.4802  14.5725

          k = 0.0556 0.1667 0.0317 ( 52810 PWs)   bands (ev):

   -61.8233 -61.7615 -61.7456 -61.7309 -61.7205 -61.7170 -61.7159 -61.7130
   -61.7033 -61.7011 -61.6918 -61.6869 -61.6818 -61.6757 -61.6573 -61.6556
   -61.2967 -61.2952 -61.2607 -61.2603 -61.2518 -61.2516 -61.2496 -61.2495
   -61.2472 -61.2472 -61.2430 -61.2428 -61.2338 -61.2337 -61.1958 -61.1958
   -32.1423 -32.1381 -32.1362 -32.1268 -32.1027 -32.1023 -32.0358 -31.9560
   -31.9525 -31.9501 -31.9492 -31.9443 -31.9264 -31.9171 -31.8618 -31.8546
   -31.8428 -31.8410 -31.7901 -31.7646 -31.7636 -31.7624 -31.7569 -31.7496
   -31.7441 -31.7371 -31.7369 -31.7174 -31.6788 -31.6743 -31.6642 -31.6423
   -31.6197 -31.6164 -31.5760 -31.5737 -31.5593 -31.5526 -31.5247 -31.5201
   -31.5095 -31.4962 -31.4527 -31.4450 -31.4402 -31.4377 -31.4323 -31.4283
   -31.4267 -31.4201 -31.4165 -31.3987 -31.3963 -31.3903 -31.3706 -31.3541
   -31.3044 -31.3040 -31.3004 -31.2906 -31.2760 -31.2675 -31.2652 -31.2582
   -31.2068 -31.1984 -31.1955 -31.1933 -31.1731 -31.1674 -31.1642 -31.1600
   -31.1585 -31.1500 -31.1460 -31.1436 -31.1428 -31.1372 -31.1359 -31.1334
   -31.1321 -31.1245 -31.1233 -31.1162 -31.1116 -31.1113 -31.1085 -31.1085
   -31.0218 -31.0190 -31.0119 -31.0060 -30.9945 -30.9942 -30.9837 -30.9835
     4.1904   5.4039   5.5397   5.5445   5.7849   5.8116   5.8282   5.8368
     5.8393   5.8719   5.9352   6.0204   6.0230   6.2272   6.3749   6.4105
     6.4379   6.6948   6.7302   6.7390   6.7401   6.7507   6.8429   6.8453
     6.8696   6.9282   6.9285   7.0631   7.0640   7.0769   7.0923   7.1274
     7.1344   7.2603   7.3171   7.3968   7.4736   7.4864   7.4896   7.5004
     7.5067   7.5539   7.5859   7.7696   7.8293   7.8513   7.8753   7.9605
     7.9719   7.9817   7.9901   8.0371   8.0939   8.1231   8.1577   8.1973
     8.2887   8.3144   8.4419   8.4906   8.4978   8.5128   8.5270   8.5755
     8.6105   8.6311   8.7108   8.8109   8.8470   8.8915   8.9073   8.9381
     8.9391   8.9623   9.0029   9.0527   9.1157   9.1528   9.2081   9.2214
     9.2340   9.2875   9.3686   9.4522   9.5062   9.5521   9.5532   9.6346
     9.6658   9.7516   9.7974   9.8050   9.8101   9.9551   9.9572   9.9643
    10.0841  10.1081  10.1281  10.1282  10.1287  10.1755  10.1941  10.2077
    10.2129  10.2346  10.2462  10.3084  10.4270  10.4512  10.5088  10.5541
    10.6706  10.7013  10.7227  10.7360  10.8223  10.8889  10.9510  10.9808
    11.0116  11.0137  11.0222  11.0512  11.1187  11.1392  11.1552  11.1595
    11.2177  11.2503  11.2761  11.3917  11.4502  11.4808  11.5452  11.6169
    11.6334  11.6975  11.7017  11.7455  11.7697  11.8038  11.9078  11.9245
    11.9403  11.9416  11.9515  11.9606  11.9697  12.1875  12.2713  12.3192
    12.3273  12.3504  12.3509  12.4526  12.4663  12.4983  12.6281  12.7334
    12.7697  12.7751  12.7977  12.8194  12.8255  12.9589  12.9832  13.0026
    13.1722  13.2091  13.4923  13.5676  13.5847  13.6352  13.7594  13.9532
    14.0034  14.0955  14.2241

          k = 0.0556 0.1667 0.0952 ( 52815 PWs)   bands (ev):

   -61.8233 -61.7615 -61.7456 -61.7309 -61.7205 -61.7170 -61.7159 -61.7129
   -61.7033 -61.7011 -61.6918 -61.6869 -61.6818 -61.6757 -61.6573 -61.6556
   -61.2967 -61.2952 -61.2607 -61.2603 -61.2518 -61.2516 -61.2496 -61.2495
   -61.2472 -61.2472 -61.2430 -61.2428 -61.2338 -61.2337 -61.1958 -61.1957
   -32.1423 -32.1381 -32.1362 -32.1268 -32.1027 -32.1023 -32.0358 -31.9560
   -31.9525 -31.9501 -31.9492 -31.9443 -31.9264 -31.9171 -31.8618 -31.8546
   -31.8428 -31.8410 -31.7901 -31.7646 -31.7636 -31.7624 -31.7569 -31.7495
   -31.7441 -31.7372 -31.7369 -31.7174 -31.6788 -31.6743 -31.6642 -31.6423
   -31.6197 -31.6164 -31.5760 -31.5737 -31.5593 -31.5526 -31.5247 -31.5201
   -31.5095 -31.4962 -31.4527 -31.4449 -31.4402 -31.4377 -31.4323 -31.4284
   -31.4267 -31.4201 -31.4165 -31.3987 -31.3963 -31.3903 -31.3706 -31.3541
   -31.3044 -31.3040 -31.3005 -31.2906 -31.2760 -31.2675 -31.2652 -31.2582
   -31.2068 -31.1984 -31.1955 -31.1933 -31.1731 -31.1674 -31.1642 -31.1600
   -31.1585 -31.1500 -31.1460 -31.1436 -31.1428 -31.1372 -31.1359 -31.1334
   -31.1321 -31.1245 -31.1233 -31.1162 -31.1116 -31.1112 -31.1085 -31.1085
   -31.0217 -31.0190 -31.0119 -31.0060 -30.9944 -30.9942 -30.9837 -30.9835
     4.1904   5.4039   5.5397   5.5445   5.7849   5.8116   5.8282   5.8368
     5.8393   5.8717   5.9352   6.0204   6.0230   6.2272   6.3750   6.4105
     6.4379   6.6948   6.7302   6.7390   6.7401   6.7507   6.8429   6.8453
     6.8696   6.9282   6.9284   7.0631   7.0639   7.0769   7.0923   7.1274
     7.1343   7.2603   7.3171   7.3969   7.4736   7.4864   7.4896   7.5004
     7.5067   7.5539   7.5859   7.7696   7.8293   7.8513   7.8753   7.9605
     7.9719   7.9816   7.9901   8.0371   8.0939   8.1230   8.1577   8.1973
     8.2887   8.3144   8.4419   8.4905   8.4978   8.5128   8.5270   8.5755
     8.6105   8.6311   8.7106   8.8111   8.8467   8.8915   8.9074   8.9383
     8.9391   8.9623   9.0029   9.0526   9.1157   9.1532   9.2083   9.2215
     9.2341   9.2876   9.3686   9.4522   9.5062   9.5520   9.5532   9.6346
     9.6649   9.7555   9.7974   9.8044   9.8101   9.9557   9.9565   9.9607
    10.0841  10.1075  10.1286  10.1287  10.1287  10.1755  10.1941  10.2077
    10.2128  10.2346  10.2462  10.3084  10.4270  10.4519  10.5092  10.5605
    10.6709  10.7014  10.7227  10.7368  10.8232  10.8883  10.9507  10.9806
    11.0125  11.0137  11.0217  11.0504  11.1184  11.1390  11.1481  11.1588
    11.2177  11.2503  11.2763  11.3927  11.4504  11.4831  11.5452  11.6155
    11.6351  11.6975  11.7011  11.7455  11.7696  11.8050  11.9079  11.9245
    11.9402  11.9417  11.9513  11.9621  11.9673  12.1926  12.2713  12.3192
    12.3273  12.3440  12.3507  12.4528  12.4663  12.5000  12.6153  12.7273
    12.7697  12.7751  12.7977  12.8028  12.8255  12.9590  12.9834  13.0026
    13.1722  13.2034  13.4924  13.5676  13.5852  13.6385  13.7537  13.9716
    14.0062  14.0971  14.2905

          k = 0.0556 0.1667 0.1587 ( 52824 PWs)   bands (ev):

   -61.8233 -61.7615 -61.7456 -61.7309 -61.7205 -61.7170 -61.7159 -61.7129
   -61.7033 -61.7011 -61.6918 -61.6869 -61.6818 -61.6757 -61.6573 -61.6556
   -61.2967 -61.2952 -61.2607 -61.2604 -61.2518 -61.2516 -61.2496 -61.2495
   -61.2472 -61.2472 -61.2430 -61.2428 -61.2338 -61.2337 -61.1958 -61.1957
   -32.1423 -32.1381 -32.1363 -32.1268 -32.1027 -32.1022 -32.0358 -31.9560
   -31.9525 -31.9501 -31.9492 -31.9443 -31.9265 -31.9171 -31.8618 -31.8546
   -31.8428 -31.8410 -31.7901 -31.7646 -31.7636 -31.7624 -31.7569 -31.7496
   -31.7441 -31.7372 -31.7369 -31.7174 -31.6788 -31.6743 -31.6642 -31.6422
   -31.6197 -31.6164 -31.5760 -31.5737 -31.5593 -31.5526 -31.5247 -31.5201
   -31.5095 -31.4962 -31.4527 -31.4449 -31.4402 -31.4376 -31.4323 -31.4283
   -31.4267 -31.4201 -31.4165 -31.3987 -31.3963 -31.3903 -31.3706 -31.3541
   -31.3044 -31.3040 -31.3005 -31.2906 -31.2760 -31.2675 -31.2652 -31.2582
   -31.2068 -31.1984 -31.1955 -31.1933 -31.1730 -31.1674 -31.1642 -31.1600
   -31.1585 -31.1500 -31.1460 -31.1436 -31.1428 -31.1372 -31.1359 -31.1334
   -31.1321 -31.1245 -31.1233 -31.1162 -31.1117 -31.1113 -31.1085 -31.1085
   -31.0217 -31.0190 -31.0119 -31.0060 -30.9945 -30.9942 -30.9837 -30.9835
     4.1905   5.4039   5.5397   5.5445   5.7849   5.8116   5.8282   5.8368
     5.8393   5.8714   5.9353   6.0204   6.0230   6.2273   6.3751   6.4105
     6.4379   6.6948   6.7302   6.7390   6.7401   6.7507   6.8429   6.8453
     6.8696   6.9282   6.9284   7.0630   7.0639   7.0769   7.0923   7.1273
     7.1343   7.2603   7.3171   7.3969   7.4736   7.4864   7.4896   7.5004
     7.5067   7.5539   7.5860   7.7696   7.8293   7.8512   7.8754   7.9606
     7.9719   7.9816   7.9901   8.0371   8.0940   8.1229   8.1576   8.1973
     8.2887   8.3144   8.4419   8.4904   8.4978   8.5128   8.5270   8.5755
     8.6105   8.6310   8.7103   8.8113   8.8462   8.8916   8.9076   8.9387
     8.9392   8.9624   9.0029   9.0525   9.1156   9.1538   9.2086   9.2217
     9.2342   9.2877   9.3685   9.4522   9.5063   9.5518   9.5532   9.6346
     9.6635   9.7618   9.7973   9.8033   9.8102   9.9549   9.9554   9.9564
    10.0841  10.1065  10.1287  10.1293  10.1294  10.1756  10.1941  10.2077
    10.2126  10.2346  10.2462  10.3085  10.4269  10.4529  10.5099  10.5705
    10.6714  10.7016  10.7226  10.7380  10.8246  10.8874  10.9501  10.9803
    11.0137  11.0138  11.0209  11.0491  11.1180  11.1367  11.1387  11.1575
    11.2177  11.2503  11.2766  11.3941  11.4507  11.4867  11.5452  11.6133
    11.6377  11.6975  11.7003  11.7455  11.7696  11.8068  11.9079  11.9244
    11.9401  11.9419  11.9510  11.9638  11.9645  12.2007  12.2712  12.3192
    12.3272  12.3334  12.3510  12.4531  12.4664  12.5038  12.5915  12.7180
    12.7698  12.7751  12.7828  12.7976  12.8255  12.9591  12.9838  13.0026
    13.1722  13.1947  13.4924  13.5676  13.5860  13.6436  13.7451  14.0009
    14.0104  14.0996  14.5208

          k = 0.0556 0.1667 0.2222 ( 52828 PWs)   bands (ev):

   -61.8233 -61.7615 -61.7456 -61.7309 -61.7205 -61.7170 -61.7159 -61.7129
   -61.7033 -61.7011 -61.6918 -61.6869 -61.6818 -61.6757 -61.6573 -61.6556
   -61.2967 -61.2952 -61.2607 -61.2604 -61.2518 -61.2516 -61.2496 -61.2495
   -61.2472 -61.2472 -61.2430 -61.2428 -61.2338 -61.2337 -61.1958 -61.1957
   -32.1423 -32.1381 -32.1362 -32.1268 -32.1027 -32.1022 -32.0358 -31.9560
   -31.9525 -31.9501 -31.9492 -31.9443 -31.9265 -31.9171 -31.8618 -31.8546
   -31.8428 -31.8410 -31.7901 -31.7646 -31.7636 -31.7624 -31.7570 -31.7495
   -31.7441 -31.7372 -31.7369 -31.7175 -31.6788 -31.6743 -31.6642 -31.6422
   -31.6197 -31.6164 -31.5760 -31.5737 -31.5593 -31.5526 -31.5247 -31.5201
   -31.5095 -31.4962 -31.4527 -31.4449 -31.4402 -31.4376 -31.4323 -31.4283
   -31.4267 -31.4201 -31.4165 -31.3987 -31.3963 -31.3903 -31.3706 -31.3541
   -31.3045 -31.3040 -31.3005 -31.2906 -31.2760 -31.2675 -31.2652 -31.2582
   -31.2068 -31.1984 -31.1955 -31.1933 -31.1730 -31.1674 -31.1643 -31.1600
   -31.1585 -31.1500 -31.1460 -31.1436 -31.1428 -31.1372 -31.1359 -31.1334
   -31.1321 -31.1244 -31.1233 -31.1162 -31.1117 -31.1113 -31.1086 -31.1085
   -31.0217 -31.0190 -31.0119 -31.0060 -30.9944 -30.9942 -30.9837 -30.9836
     4.1905   5.4038   5.5397   5.5445   5.7849   5.8116   5.8282   5.8368
     5.8393   5.8712   5.9353   6.0204   6.0230   6.2273   6.3752   6.4106
     6.4379   6.6948   6.7302   6.7390   6.7401   6.7507   6.8429   6.8453
     6.8696   6.9282   6.9284   7.0629   7.0639   7.0769   7.0923   7.1273
     7.1343   7.2603   7.3170   7.3970   7.4736   7.4864   7.4896   7.5004
     7.5067   7.5539   7.5860   7.7696   7.8293   7.8512   7.8754   7.9606
     7.9719   7.9816   7.9901   8.0371   8.0941   8.1228   8.1575   8.1973
     8.2887   8.3144   8.4419   8.4903   8.4978   8.5128   8.5270   8.5755
     8.6105   8.6310   8.7100   8.8115   8.8458   8.8917   8.9078   8.9390
     8.9392   8.9625   9.0029   9.0524   9.1155   9.1544   9.2088   9.2218
     9.2343   9.2878   9.3685   9.4522   9.5063   9.5517   9.5533   9.6346
     9.6623   9.7675   9.7973   9.8024   9.8102   9.9496   9.9545   9.9571
    10.0841  10.1057  10.1287  10.1300  10.1300  10.1756  10.1941  10.2077
    10.2125  10.2346  10.2462  10.3085  10.4269  10.4538  10.5104  10.5797
    10.6718  10.7018  10.7226  10.7392  10.8262  10.8866  10.9497  10.9800
    11.0137  11.0150  11.0202  11.0479  11.1176  11.1260  11.1385  11.1565
    11.2177  11.2504  11.2768  11.3953  11.4509  11.4898  11.5452  11.6114
    11.6400  11.6974  11.6995  11.7455  11.7696  11.8083  11.9080  11.9243
    11.9400  11.9421  11.9507  11.9607  11.9666  12.2083  12.2712  12.3192
    12.3242  12.3272  12.3513  12.4534  12.4665  12.5105  12.5647  12.7099
    12.7697  12.7698  12.7751  12.7976  12.8255  12.9592  12.9841  13.0027
    13.1722  13.1871  13.4924  13.5676  13.5866  13.6481  13.7376  14.0141
    14.0278  14.1019  14.5203

          k = 0.0556 0.1667-0.2857 ( 52830 PWs)   bands (ev):

   -61.8233 -61.7615 -61.7456 -61.7309 -61.7205 -61.7170 -61.7159 -61.7129
   -61.7033 -61.7011 -61.6919 -61.6869 -61.6818 -61.6757 -61.6573 -61.6556
   -61.2967 -61.2952 -61.2607 -61.2604 -61.2518 -61.2516 -61.2496 -61.2495
   -61.2472 -61.2472 -61.2430 -61.2428 -61.2338 -61.2337 -61.1958 -61.1957
   -32.1423 -32.1381 -32.1362 -32.1268 -32.1027 -32.1023 -32.0359 -31.9560
   -31.9525 -31.9502 -31.9492 -31.9443 -31.9265 -31.9171 -31.8618 -31.8546
   -31.8428 -31.8410 -31.7901 -31.7646 -31.7636 -31.7624 -31.7569 -31.7496
   -31.7441 -31.7372 -31.7369 -31.7175 -31.6788 -31.6743 -31.6642 -31.6422
   -31.6197 -31.6164 -31.5760 -31.5737 -31.5593 -31.5526 -31.5247 -31.5201
   -31.5095 -31.4963 -31.4527 -31.4449 -31.4402 -31.4376 -31.4323 -31.4283
   -31.4267 -31.4201 -31.4165 -31.3987 -31.3963 -31.3903 -31.3706 -31.3541
   -31.3045 -31.3040 -31.3005 -31.2906 -31.2760 -31.2675 -31.2652 -31.2582
   -31.2068 -31.1984 -31.1955 -31.1933 -31.1730 -31.1674 -31.1643 -31.1599
   -31.1585 -31.1500 -31.1460 -31.1436 -31.1428 -31.1372 -31.1359 -31.1335
   -31.1321 -31.1245 -31.1233 -31.1162 -31.1117 -31.1112 -31.1086 -31.1085
   -31.0217 -31.0190 -31.0119 -31.0060 -30.9944 -30.9942 -30.9837 -30.9835
     4.1905   5.4038   5.5397   5.5445   5.7849   5.8116   5.8282   5.8368
     5.8393   5.8711   5.9353   6.0204   6.0230   6.2273   6.3753   6.4106
     6.4379   6.6948   6.7302   6.7390   6.7401   6.7507   6.8429   6.8453
     6.8695   6.9282   6.9284   7.0629   7.0638   7.0769   7.0923   7.1273
     7.1343   7.2603   7.3170   7.3970   7.4736   7.4864   7.4896   7.5004
     7.5067   7.5539   7.5860   7.7696   7.8293   7.8512   7.8754   7.9607
     7.9719   7.9815   7.9901   8.0371   8.0941   8.1228   8.1575   8.1973
     8.2887   8.3144   8.4419   8.4902   8.4978   8.5128   8.5270   8.5755
     8.6105   8.6310   8.7099   8.8116   8.8456   8.8918   8.9079   8.9391
     8.9392   8.9625   9.0029   9.0524   9.1155   9.1546   9.2090   9.2219
     9.2344   9.2879   9.3684   9.4522   9.5063   9.5516   9.5533   9.6346
     9.6619   9.7699   9.7973   9.8021   9.8102   9.9474   9.9542   9.9574
    10.0841  10.1054  10.1287  10.1302  10.1303  10.1756  10.1941  10.2077
    10.2124  10.2346  10.2462  10.3085  10.4269  10.4541  10.5107  10.5834
    10.6719  10.7018  10.7226  10.7396  10.8268  10.8863  10.9495  10.9799
    11.0137  11.0154  11.0200  11.0474  11.1175  11.1217  11.1384  11.1561
    11.2177  11.2504  11.2769  11.3958  11.4510  11.4911  11.5452  11.6106
    11.6409  11.6974  11.6992  11.7455  11.7696  11.8090  11.9080  11.9243
    11.9400  11.9422  11.9506  11.9596  11.9675  12.2114  12.2712  12.3192
    12.3206  12.3271  12.3514  12.4535  12.4665  12.5161  12.5507  12.7067
    12.7655  12.7698  12.7751  12.7976  12.8255  12.9592  12.9842  13.0027
    13.1722  13.1842  13.4924  13.5676  13.5869  13.6498  13.7346  14.0156
    14.0387  14.1028  14.5202

          k = 0.0556 0.2778 0.0317 ( 52809 PWs)   bands (ev):

   -61.8180 -61.7757 -61.7434 -61.7293 -61.7261 -61.7169 -61.7138 -61.7030
   -61.6982 -61.6976 -61.6972 -61.6880 -61.6835 -61.6709 -61.6623 -61.6572
   -61.2937 -61.2923 -61.2692 -61.2686 -61.2516 -61.2514 -61.2502 -61.2501
   -61.2463 -61.2463 -61.2434 -61.2433 -61.2251 -61.2250 -61.1991 -61.1990
   -32.1290 -32.1201 -32.1176 -32.1049 -32.0874 -32.0862 -32.0273 -31.9936
   -31.9869 -31.9772 -31.9731 -31.9687 -31.9658 -31.9648 -31.8731 -31.8624
   -31.8293 -31.8159 -31.7627 -31.7624 -31.7489 -31.7441 -31.7437 -31.7374
   -31.7332 -31.7216 -31.7203 -31.7167 -31.7150 -31.7013 -31.6630 -31.6208
   -31.6039 -31.5922 -31.5825 -31.5397 -31.5376 -31.5336 -31.5285 -31.5215
   -31.5171 -31.4932 -31.4641 -31.4571 -31.4537 -31.4505 -31.4406 -31.4325
   -31.4244 -31.4169 -31.4116 -31.4113 -31.3887 -31.3883 -31.3569 -31.3392
   -31.3381 -31.3337 -31.3285 -31.3103 -31.3084 -31.3052 -31.2983 -31.2798
   -31.1743 -31.1724 -31.1611 -31.1594 -31.1593 -31.1521 -31.1490 -31.1467
   -31.1437 -31.1417 -31.1390 -31.1374 -31.1359 -31.1339 -31.1313 -31.1309
   -31.1288 -31.1276 -31.1203 -31.1109 -31.1064 -31.1044 -31.0947 -31.0905
   -31.0387 -31.0361 -31.0189 -31.0170 -31.0138 -31.0127 -30.9963 -30.9955
     4.3497   5.5345   5.5818   5.6431   5.6575   5.8463   5.8934   5.9163
     5.9393   5.9527   6.0042   6.0874   6.0979   6.2061   6.3380   6.3880
     6.4828   6.5066   6.5124   6.6144   6.6486   6.6501   6.8059   6.8354
     6.8467   6.8699   6.8809   6.9657   6.9987   7.0175   7.0697   7.0944
     7.1455   7.1552   7.1675   7.2199   7.4091   7.4448   7.4686   7.4964
     7.4981   7.5378   7.6956   7.7235   7.7688   7.7862   7.8123   7.8149
     7.8224   7.8484   7.9450   8.0577   8.1084   8.2418   8.2976   8.3497
     8.3881   8.4165   8.4211   8.4513   8.5831   8.6069   8.6203   8.6339
     8.6404   8.8126   8.8202   8.8739   8.8744   8.8817   8.9394   8.9935
     9.0217   9.0241   9.0391   9.0594   9.1151   9.1427   9.1926   9.2106
     9.2318   9.2336   9.2463   9.4019   9.4472   9.4750   9.5251   9.5285
     9.5874   9.6132   9.6222   9.6769   9.7471   9.8584   9.8814  10.0398
    10.0429  10.0662  10.1686  10.2048  10.2205  10.2286  10.2462  10.2569
    10.2643  10.3022  10.3340  10.4050  10.5383  10.5620  10.6289  10.7085
    10.7191  10.7308  10.7640  10.7762  10.8203  10.8487  10.8852  10.9134
    10.9560  11.0030  11.0111  11.1200  11.1392  11.2094  11.2172  11.2697
    11.2925  11.3938  11.3948  11.4131  11.5651  11.5820  11.5863  11.6534
    11.7751  11.8073  11.8302  11.8367  11.8403  11.8833  11.8879  11.8923
    11.9242  11.9510  11.9628  11.9828  12.0567  12.0620  12.1292  12.1532
    12.2520  12.2723  12.2755  12.3803  12.3889  12.4399  12.5086  12.5189
    12.7171  12.7294  12.7421  12.8218  12.8464  12.9442  12.9557  12.9706
    13.2198  13.2301  13.3010  13.3457  13.4236  13.4643  13.5537  14.0115
    14.0324  14.4091  14.4309

          k = 0.0556 0.2778 0.0952 ( 52796 PWs)   bands (ev):

   -61.8180 -61.7757 -61.7434 -61.7293 -61.7261 -61.7169 -61.7138 -61.7030
   -61.6982 -61.6976 -61.6972 -61.6880 -61.6835 -61.6709 -61.6623 -61.6572
   -61.2937 -61.2923 -61.2691 -61.2686 -61.2516 -61.2514 -61.2502 -61.2501
   -61.2463 -61.2463 -61.2434 -61.2433 -61.2251 -61.2250 -61.1991 -61.1990
   -32.1290 -32.1201 -32.1176 -32.1049 -32.0874 -32.0862 -32.0273 -31.9936
   -31.9869 -31.9772 -31.9731 -31.9687 -31.9658 -31.9648 -31.8730 -31.8624
   -31.8293 -31.8159 -31.7627 -31.7624 -31.7489 -31.7441 -31.7438 -31.7374
   -31.7331 -31.7216 -31.7203 -31.7167 -31.7150 -31.7013 -31.6630 -31.6208
   -31.6039 -31.5923 -31.5825 -31.5397 -31.5376 -31.5335 -31.5285 -31.5215
   -31.5171 -31.4932 -31.4641 -31.4571 -31.4537 -31.4505 -31.4406 -31.4325
   -31.4244 -31.4169 -31.4116 -31.4113 -31.3887 -31.3883 -31.3569 -31.3392
   -31.3382 -31.3337 -31.3285 -31.3103 -31.3084 -31.3052 -31.2983 -31.2798
   -31.1743 -31.1724 -31.1610 -31.1594 -31.1593 -31.1521 -31.1490 -31.1467
   -31.1437 -31.1417 -31.1390 -31.1373 -31.1359 -31.1339 -31.1313 -31.1309
   -31.1288 -31.1276 -31.1204 -31.1109 -31.1064 -31.1044 -31.0947 -31.0904
   -31.0387 -31.0361 -31.0189 -31.0170 -31.0138 -31.0127 -30.9962 -30.9955
     4.3498   5.5345   5.5818   5.6431   5.6575   5.8463   5.8934   5.9163
     5.9393   5.9527   6.0040   6.0874   6.0979   6.2061   6.3380   6.3880
     6.4828   6.5065   6.5125   6.6144   6.6486   6.6501   6.8059   6.8354
     6.8467   6.8699   6.8809   6.9656   6.9987   7.0175   7.0697   7.0944
     7.1456   7.1552   7.1675   7.2199   7.4092   7.4447   7.4686   7.4964
     7.4981   7.5378   7.6956   7.7235   7.7688   7.7862   7.8123   7.8149
     7.8224   7.8483   7.9450   8.0577   8.1084   8.2418   8.2975   8.3497
     8.3883   8.4166   8.4211   8.4513   8.5831   8.6068   8.6203   8.6339
     8.6404   8.8127   8.8201   8.8739   8.8746   8.8819   8.9394   8.9935
     9.0215   9.0242   9.0391   9.0594   9.1149   9.1427   9.1927   9.2106
     9.2318   9.2337   9.2463   9.4020   9.4471   9.4777   9.5251   9.5290
     9.5874   9.6119   9.6222   9.6769   9.7476   9.8577   9.8818  10.0391
    10.0404  10.0664  10.1686  10.2048  10.2201  10.2286  10.2462  10.2569
    10.2643  10.3022  10.3335  10.4057  10.5384  10.5620  10.6324  10.7087
    10.7186  10.7248  10.7641  10.7753  10.8204  10.8508  10.8878  10.9134
    10.9560  11.0025  11.0109  11.1200  11.1389  11.2094  11.2171  11.2717
    11.2911  11.3948  11.3950  11.4148  11.5670  11.5794  11.5863  11.6605
    11.7756  11.8073  11.8302  11.8373  11.8397  11.8832  11.8879  11.8927
    11.9214  11.9512  11.9628  11.9828  12.0551  12.0567  12.1292  12.1528
    12.2513  12.2738  12.2755  12.3805  12.3893  12.4432  12.5069  12.5189
    12.7171  12.7294  12.7370  12.8217  12.8464  12.9443  12.9557  12.9704
    13.2198  13.2251  13.2642  13.3457  13.4241  13.4811  13.5534  14.0114
    14.0391  14.4037  14.4396

          k = 0.0556 0.2778 0.1587 ( 52814 PWs)   bands (ev):

   -61.8180 -61.7757 -61.7434 -61.7293 -61.7261 -61.7169 -61.7138 -61.7030
   -61.6982 -61.6976 -61.6972 -61.6880 -61.6835 -61.6709 -61.6623 -61.6572
   -61.2937 -61.2923 -61.2691 -61.2686 -61.2516 -61.2514 -61.2502 -61.2501
   -61.2463 -61.2463 -61.2434 -61.2433 -61.2251 -61.2250 -61.1991 -61.1990
   -32.1290 -32.1201 -32.1176 -32.1049 -32.0873 -32.0862 -32.0273 -31.9936
   -31.9869 -31.9772 -31.9731 -31.9687 -31.9658 -31.9648 -31.8730 -31.8624
   -31.8292 -31.8159 -31.7627 -31.7624 -31.7489 -31.7441 -31.7438 -31.7374
   -31.7331 -31.7216 -31.7203 -31.7167 -31.7150 -31.7013 -31.6630 -31.6208
   -31.6039 -31.5923 -31.5825 -31.5397 -31.5376 -31.5335 -31.5285 -31.5215
   -31.5171 -31.4932 -31.4641 -31.4571 -31.4537 -31.4505 -31.4406 -31.4325
   -31.4244 -31.4169 -31.4116 -31.4113 -31.3887 -31.3883 -31.3569 -31.3392
   -31.3382 -31.3337 -31.3285 -31.3103 -31.3084 -31.3052 -31.2983 -31.2798
   -31.1743 -31.1724 -31.1611 -31.1594 -31.1593 -31.1521 -31.1490 -31.1467
   -31.1437 -31.1417 -31.1391 -31.1374 -31.1359 -31.1339 -31.1313 -31.1310
   -31.1288 -31.1276 -31.1204 -31.1110 -31.1064 -31.1044 -31.0947 -31.0905
   -31.0387 -31.0361 -31.0189 -31.0170 -31.0138 -31.0127 -30.9962 -30.9955
     4.3498   5.5344   5.5818   5.6431   5.6575   5.8463   5.8934   5.9163
     5.9393   5.9527   6.0037   6.0874   6.0979   6.2061   6.3380   6.3880
     6.4828   6.5065   6.5126   6.6144   6.6486   6.6501   6.8059   6.8354
     6.8466   6.8699   6.8808   6.9655   6.9987   7.0175   7.0696   7.0944
     7.1456   7.1552   7.1675   7.2200   7.4092   7.4447   7.4685   7.4964
     7.4980   7.5378   7.6956   7.7235   7.7688   7.7862   7.8122   7.8148
     7.8224   7.8483   7.9450   8.0577   8.1083   8.2419   8.2975   8.3497
     8.3887   8.4167   8.4210   8.4513   8.5831   8.6067   8.6203   8.6339
     8.6404   8.8129   8.8199   8.8739   8.8749   8.8821   8.9394   8.9934
     9.0212   9.0243   9.0391   9.0594   9.1147   9.1426   9.1927   9.2107
     9.2320   9.2337   9.2464   9.4020   9.4469   9.4819   9.5252   9.5297
     9.5874   9.6100   9.6221   9.6769   9.7483   9.8566   9.8824  10.0366
    10.0380  10.0668  10.1686  10.2048  10.2195  10.2286  10.2461  10.2569
    10.2643  10.3021  10.3327  10.4067  10.5385  10.5620  10.6386  10.7090
    10.7151  10.7177  10.7643  10.7741  10.8206  10.8536  10.8918  10.9134
    10.9559  11.0017  11.0108  11.1199  11.1385  11.2095  11.2170  11.2747
    11.2889  11.3948  11.3968  11.4174  11.5700  11.5762  11.5863  11.6713
    11.7765  11.8072  11.8301  11.8382  11.8390  11.8830  11.8879  11.8934
    11.9167  11.9514  11.9628  11.9827  12.0446  12.0568  12.1292  12.1521
    12.2502  12.2755  12.2761  12.3807  12.3899  12.4491  12.5035  12.5190
    12.7171  12.7291  12.7294  12.8217  12.8465  12.9444  12.9557  12.9701
    13.2123  13.2176  13.2198  13.3457  13.4249  13.5076  13.5529  14.0113
    14.0496  14.3955  14.4668

          k = 0.0556 0.2778 0.2222 ( 52794 PWs)   bands (ev):

   -61.8180 -61.7757 -61.7434 -61.7293 -61.7261 -61.7169 -61.7138 -61.7030
   -61.6982 -61.6976 -61.6972 -61.6880 -61.6835 -61.6709 -61.6623 -61.6572
   -61.2937 -61.2923 -61.2691 -61.2686 -61.2516 -61.2514 -61.2502 -61.2501
   -61.2463 -61.2463 -61.2434 -61.2433 -61.2251 -61.2250 -61.1991 -61.1990
   -32.1290 -32.1201 -32.1176 -32.1048 -32.0873 -32.0862 -32.0273 -31.9936
   -31.9869 -31.9772 -31.9731 -31.9686 -31.9658 -31.9648 -31.8730 -31.8624
   -31.8292 -31.8159 -31.7627 -31.7624 -31.7489 -31.7442 -31.7438 -31.7373
   -31.7331 -31.7216 -31.7203 -31.7167 -31.7150 -31.7013 -31.6630 -31.6208
   -31.6039 -31.5923 -31.5825 -31.5397 -31.5376 -31.5335 -31.5285 -31.5215
   -31.5171 -31.4932 -31.4641 -31.4571 -31.4537 -31.4505 -31.4406 -31.4325
   -31.4244 -31.4169 -31.4116 -31.4113 -31.3886 -31.3883 -31.3569 -31.3392
   -31.3382 -31.3337 -31.3285 -31.3103 -31.3084 -31.3052 -31.2983 -31.2798
   -31.1743 -31.1723 -31.1611 -31.1594 -31.1593 -31.1521 -31.1490 -31.1467
   -31.1437 -31.1418 -31.1390 -31.1374 -31.1359 -31.1339 -31.1313 -31.1310
   -31.1288 -31.1276 -31.1204 -31.1110 -31.1064 -31.1044 -31.0947 -31.0904
   -31.0387 -31.0361 -31.0189 -31.0170 -31.0138 -31.0127 -30.9962 -30.9955
     4.3499   5.5344   5.5819   5.6431   5.6575   5.8463   5.8934   5.9163
     5.9393   5.9527   6.0034   6.0874   6.0979   6.2061   6.3380   6.3880
     6.4828   6.5065   6.5127   6.6143   6.6486   6.6501   6.8059   6.8354
     6.8466   6.8699   6.8807   6.9655   6.9987   7.0174   7.0696   7.0944
     7.1456   7.1552   7.1674   7.2201   7.4093   7.4447   7.4685   7.4964
     7.4980   7.5378   7.6957   7.7235   7.7688   7.7862   7.8122   7.8148
     7.8224   7.8482   7.9451   8.0577   8.1083   8.2420   8.2974   8.3497
     8.3890   8.4168   8.4210   8.4513   8.5831   8.6066   8.6203   8.6339
     8.6404   8.8131   8.8197   8.8739   8.8752   8.8822   8.9394   8.9933
     9.0209   9.0244   9.0391   9.0595   9.1146   9.1425   9.1928   9.2107
     9.2321   9.2338   9.2464   9.4021   9.4467   9.4857   9.5252   9.5304
     9.5875   9.6083   9.6221   9.6769   9.7489   9.8556   9.8829  10.0332
    10.0370  10.0671  10.1686  10.2048  10.2190  10.2286  10.2461  10.2569
    10.2643  10.3021  10.3320  10.4076  10.5386  10.5621  10.6454  10.7053
    10.7092  10.7170  10.7644  10.7729  10.8207  10.8559  10.8955  10.9134
    10.9558  11.0010  11.0106  11.1198  11.1381  11.2095  11.2169  11.2774
    11.2870  11.3948  11.3983  11.4197  11.5726  11.5737  11.5863  11.6808
    11.7773  11.8071  11.8300  11.8383  11.8390  11.8828  11.8879  11.8940
    11.9122  11.9516  11.9628  11.9826  12.0355  12.0569  12.1291  12.1516
    12.2493  12.2755  12.2781  12.3810  12.3904  12.4554  12.4995  12.5190
    12.7172  12.7223  12.7295  12.8217  12.8465  12.9446  12.9557  12.9699
    13.1700  13.2110  13.2198  13.3457  13.4256  13.5318  13.5525  14.0112
    14.0590  14.3883  14.4917

          k = 0.0556 0.2778-0.2857 ( 52794 PWs)   bands (ev):

   -61.8180 -61.7757 -61.7434 -61.7293 -61.7261 -61.7169 -61.7138 -61.7030
   -61.6982 -61.6976 -61.6972 -61.6880 -61.6835 -61.6709 -61.6623 -61.6572
   -61.2937 -61.2923 -61.2691 -61.2686 -61.2516 -61.2514 -61.2502 -61.2501
   -61.2463 -61.2463 -61.2434 -61.2433 -61.2251 -61.2250 -61.1991 -61.1990
   -32.1290 -32.1201 -32.1176 -32.1048 -32.0873 -32.0862 -32.0273 -31.9936
   -31.9869 -31.9772 -31.9731 -31.9687 -31.9658 -31.9648 -31.8730 -31.8624
   -31.8292 -31.8159 -31.7627 -31.7625 -31.7489 -31.7442 -31.7438 -31.7373
   -31.7332 -31.7216 -31.7203 -31.7167 -31.7150 -31.7013 -31.6631 -31.6208
   -31.6039 -31.5923 -31.5825 -31.5397 -31.5376 -31.5335 -31.5285 -31.5215
   -31.5171 -31.4932 -31.4641 -31.4571 -31.4537 -31.4505 -31.4406 -31.4325
   -31.4244 -31.4169 -31.4116 -31.4113 -31.3886 -31.3883 -31.3569 -31.3392
   -31.3381 -31.3337 -31.3285 -31.3103 -31.3084 -31.3052 -31.2983 -31.2798
   -31.1743 -31.1723 -31.1611 -31.1594 -31.1593 -31.1521 -31.1490 -31.1467
   -31.1437 -31.1418 -31.1391 -31.1374 -31.1359 -31.1339 -31.1313 -31.1310
   -31.1287 -31.1276 -31.1204 -31.1110 -31.1064 -31.1044 -31.0947 -31.0904
   -31.0387 -31.0361 -31.0189 -31.0170 -31.0138 -31.0127 -30.9962 -30.9955
     4.3499   5.5344   5.5819   5.6431   5.6575   5.8463   5.8934   5.9163
     5.9393   5.9527   6.0033   6.0874   6.0979   6.2061   6.3380   6.3880
     6.4828   6.5065   6.5128   6.6143   6.6485   6.6501   6.8059   6.8354
     6.8466   6.8699   6.8807   6.9655   6.9987   7.0174   7.0696   7.0944
     7.1456   7.1552   7.1674   7.2201   7.4093   7.4447   7.4685   7.4964
     7.4980   7.5378   7.6957   7.7235   7.7688   7.7862   7.8122   7.8148
     7.8224   7.8482   7.9451   8.0577   8.1083   8.2420   8.2974   8.3497
     8.3892   8.4169   8.4210   8.4513   8.5831   8.6066   8.6202   8.6339
     8.6404   8.8131   8.8197   8.8739   8.8753   8.8823   8.9394   8.9933
     9.0208   9.0244   9.0391   9.0595   9.1145   9.1425   9.1928   9.2108
     9.2321   9.2338   9.2465   9.4021   9.4467   9.4871   9.5252   9.5307
     9.5875   9.6076   9.6221   9.6769   9.7491   9.8553   9.8831  10.0319
    10.0366  10.0672  10.1686  10.2048  10.2188  10.2286  10.2461  10.2569
    10.2643  10.3021  10.3317  10.4080  10.5386  10.5621  10.6487  10.7009
    10.7093  10.7167  10.7645  10.7725  10.8208  10.8567  10.8969  10.9134
    10.9557  11.0007  11.0106  11.1197  11.1380  11.2095  11.2168  11.2784
    11.2862  11.3948  11.3989  11.4206  11.5728  11.5736  11.5863  11.6846
    11.7776  11.8070  11.8300  11.8380  11.8394  11.8827  11.8879  11.8942
    11.9103  11.9517  11.9629  11.9825  12.0318  12.0569  12.1291  12.1513
    12.2490  12.2755  12.2789  12.3810  12.3906  12.4584  12.4975  12.5190
    12.7174  12.7194  12.7295  12.8217  12.8465  12.9446  12.9557  12.9698
    13.1540  13.2084  13.2198  13.3457  13.4258  13.5417  13.5523  14.0111
    14.0627  14.3855  14.4543

          k = 0.0556 0.3889 0.0317 ( 52782 PWs)   bands (ev):

   -61.8104 -61.7889 -61.7402 -61.7314 -61.7270 -61.7207 -61.7107 -61.7023
   -61.6945 -61.6935 -61.6902 -61.6897 -61.6861 -61.6695 -61.6665 -61.6596
   -61.2893 -61.2881 -61.2769 -61.2761 -61.2514 -61.2513 -61.2507 -61.2506
   -61.2455 -61.2454 -61.2439 -61.2439 -61.2170 -61.2170 -61.2038 -61.2037
   -32.1068 -32.0932 -32.0914 -32.0764 -32.0649 -32.0632 -32.0380 -32.0230
   -32.0163 -32.0152 -32.0091 -32.0036 -32.0023 -31.9832 -31.8770 -31.8702
   -31.8095 -31.7890 -31.7597 -31.7587 -31.7553 -31.7500 -31.7448 -31.7308
   -31.7255 -31.7246 -31.7232 -31.7030 -31.6932 -31.6861 -31.6818 -31.6159
   -31.5856 -31.5756 -31.5518 -31.5462 -31.5288 -31.5171 -31.5162 -31.5059
   -31.4954 -31.4907 -31.4884 -31.4868 -31.4806 -31.4804 -31.4518 -31.4308
   -31.4229 -31.4035 -31.3984 -31.3873 -31.3833 -31.3779 -31.3715 -31.3568
   -31.3556 -31.3446 -31.3411 -31.3395 -31.3293 -31.3238 -31.3219 -31.2965
   -31.1580 -31.1518 -31.1500 -31.1486 -31.1463 -31.1454 -31.1430 -31.1417
   -31.1405 -31.1387 -31.1383 -31.1370 -31.1322 -31.1317 -31.1279 -31.1268
   -31.1148 -31.1092 -31.1069 -31.0940 -31.0847 -31.0747 -31.0678 -31.0678
   -31.0645 -31.0560 -31.0401 -31.0372 -31.0346 -31.0307 -31.0164 -31.0144
     4.5815   5.2169   5.7228   5.7904   5.8197   5.9384   6.0175   6.0368
     6.0763   6.1250   6.1445   6.1645   6.1864   6.1921   6.2137   6.2281
     6.2492   6.3061   6.3820   6.4396   6.4712   6.5696   6.6210   6.6745
     6.7080   6.9775   7.0146   7.0539   7.0762   7.0899   7.0932   7.1031
     7.1233   7.1511   7.1681   7.1873   7.2233   7.3731   7.4124   7.4179
     7.4416   7.5182   7.5241   7.5804   7.5904   7.6345   7.6429   7.7217
     7.8505   7.8785   8.0430   8.1507   8.2757   8.2811   8.3427   8.3480
     8.3805   8.4575   8.4803   8.6089   8.6122   8.6237   8.6718   8.7073
     8.7308   8.8377   8.8446   8.9277   8.9342   8.9343   8.9797   8.9920
     9.0470   9.0489   9.0603   9.0906   9.1239   9.1305   9.1613   9.1844
     9.2048   9.2054   9.2692   9.3228   9.3232   9.3471   9.4502   9.4663
     9.5093   9.5386   9.6791   9.7610   9.8438   9.9270   9.9360  10.0685
    10.0808  10.1133  10.1514  10.1814  10.1868  10.2221  10.2384  10.2400
    10.2536  10.2681  10.3877  10.4064  10.4716  10.4857  10.5643  10.6439
    10.7312  10.8081  10.8091  10.8389  10.9370  10.9387  10.9440  10.9725
    10.9992  11.0085  11.1284  11.1721  11.2049  11.2080  11.3508  11.3782
    11.4665  11.4701  11.4864  11.5439  11.5553  11.5570  11.6340  11.6444
    11.6648  11.7060  11.7292  11.7320  11.7639  11.7714  11.8549  11.8675
    11.8947  12.0248  12.0483  12.0544  12.1181  12.1475  12.1687  12.1957
    12.2476  12.2869  12.2909  12.4475  12.4480  12.4561  12.4684  12.6449
    12.6779  12.7352  12.7770  12.7812  12.8623  12.9065  12.9241  12.9260
    12.9671  13.0097  13.0300  13.1174  13.2779  13.4676  13.5486  13.8393
    14.1564  14.3605  14.4113

          k = 0.0556 0.3889 0.0952 ( 52788 PWs)   bands (ev):

   -61.8104 -61.7889 -61.7402 -61.7314 -61.7270 -61.7207 -61.7107 -61.7023
   -61.6945 -61.6935 -61.6902 -61.6897 -61.6861 -61.6696 -61.6665 -61.6596
   -61.2893 -61.2881 -61.2769 -61.2761 -61.2514 -61.2513 -61.2507 -61.2506
   -61.2455 -61.2454 -61.2439 -61.2439 -61.2170 -61.2170 -61.2038 -61.2037
   -32.1068 -32.0932 -32.0914 -32.0764 -32.0650 -32.0632 -32.0380 -32.0231
   -32.0163 -32.0152 -32.0091 -32.0036 -32.0023 -31.9832 -31.8770 -31.8702
   -31.8095 -31.7890 -31.7597 -31.7587 -31.7553 -31.7501 -31.7448 -31.7308
   -31.7255 -31.7246 -31.7232 -31.7030 -31.6932 -31.6861 -31.6818 -31.6159
   -31.5856 -31.5756 -31.5518 -31.5462 -31.5288 -31.5171 -31.5162 -31.5059
   -31.4954 -31.4907 -31.4884 -31.4868 -31.4806 -31.4805 -31.4518 -31.4308
   -31.4229 -31.4035 -31.3984 -31.3873 -31.3833 -31.3779 -31.3715 -31.3568
   -31.3556 -31.3446 -31.3411 -31.3395 -31.3293 -31.3238 -31.3219 -31.2965
   -31.1580 -31.1518 -31.1500 -31.1487 -31.1463 -31.1453 -31.1430 -31.1417
   -31.1405 -31.1388 -31.1383 -31.1370 -31.1322 -31.1317 -31.1279 -31.1268
   -31.1148 -31.1092 -31.1069 -31.0940 -31.0847 -31.0747 -31.0678 -31.0678
   -31.0645 -31.0559 -31.0401 -31.0372 -31.0346 -31.0307 -31.0164 -31.0144
     4.5815   5.2170   5.7228   5.7904   5.8197   5.9384   6.0175   6.0368
     6.0763   6.1250   6.1445   6.1645   6.1864   6.1919   6.2137   6.2281
     6.2492   6.3061   6.3819   6.4396   6.4712   6.5696   6.6210   6.6743
     6.7080   6.9775   7.0146   7.0539   7.0762   7.0898   7.0932   7.1031
     7.1234   7.1510   7.1681   7.1873   7.2233   7.3731   7.4124   7.4179
     7.4416   7.5181   7.5241   7.5804   7.5904   7.6345   7.6429   7.7217
     7.8505   7.8784   8.0431   8.1507   8.2757   8.2812   8.3427   8.3480
     8.3805   8.4575   8.4804   8.6089   8.6123   8.6237   8.6723   8.7073
     8.7308   8.8378   8.8448   8.9277   8.9342   8.9342   8.9797   8.9921
     9.0470   9.0489   9.0603   9.0906   9.1237   9.1305   9.1613   9.1844
     9.2048   9.2072   9.2693   9.3229   9.3232   9.3470   9.4502   9.4663
     9.5093   9.5386   9.6774   9.7613   9.8440   9.9275   9.9351  10.0686
    10.0806  10.1126  10.1514  10.1814  10.1868  10.2221  10.2384  10.2398
    10.2536  10.2668  10.3807  10.4055  10.4711  10.4862  10.5639  10.6450
    10.7332  10.8083  10.8092  10.8389  10.9370  10.9387  10.9496  10.9724
    10.9991  11.0085  11.1285  11.1797  11.2045  11.2079  11.3505  11.3805
    11.4657  11.4689  11.4864  11.5406  11.5576  11.5589  11.6339  11.6444
    11.6659  11.7071  11.7281  11.7320  11.7639  11.7715  11.8549  11.8638
    11.8895  12.0242  12.0470  12.0544  12.1182  12.1476  12.1685  12.1957
    12.2476  12.2858  12.2901  12.4475  12.4483  12.4634  12.4685  12.6450
    12.6779  12.7353  12.7733  12.7818  12.8630  12.9065  12.9243  12.9251
    12.9676  13.0098  13.0440  13.1174  13.2740  13.4664  13.5485  13.7895
    14.1661  14.3755  14.4121

          k = 0.0556 0.3889 0.1587 ( 52805 PWs)   bands (ev):

   -61.8104 -61.7889 -61.7402 -61.7314 -61.7270 -61.7207 -61.7107 -61.7023
   -61.6945 -61.6935 -61.6902 -61.6897 -61.6861 -61.6695 -61.6665 -61.6596
   -61.2893 -61.2881 -61.2769 -61.2761 -61.2514 -61.2513 -61.2507 -61.2506
   -61.2455 -61.2454 -61.2440 -61.2439 -61.2170 -61.2170 -61.2038 -61.2037
   -32.1068 -32.0932 -32.0914 -32.0764 -32.0650 -32.0632 -32.0380 -32.0231
   -32.0163 -32.0151 -32.0091 -32.0036 -32.0023 -31.9832 -31.8770 -31.8702
   -31.8095 -31.7890 -31.7597 -31.7587 -31.7553 -31.7501 -31.7448 -31.7308
   -31.7255 -31.7246 -31.7232 -31.7030 -31.6932 -31.6861 -31.6818 -31.6159
   -31.5856 -31.5756 -31.5518 -31.5462 -31.5289 -31.5171 -31.5162 -31.5059
   -31.4954 -31.4907 -31.4884 -31.4868 -31.4806 -31.4805 -31.4518 -31.4308
   -31.4229 -31.4035 -31.3984 -31.3873 -31.3833 -31.3778 -31.3715 -31.3568
   -31.3556 -31.3446 -31.3411 -31.3395 -31.3293 -31.3238 -31.3219 -31.2965
   -31.1580 -31.1518 -31.1500 -31.1487 -31.1463 -31.1453 -31.1430 -31.1416
   -31.1405 -31.1388 -31.1383 -31.1370 -31.1322 -31.1317 -31.1279 -31.1268
   -31.1148 -31.1092 -31.1069 -31.0940 -31.0847 -31.0747 -31.0678 -31.0678
   -31.0645 -31.0559 -31.0401 -31.0372 -31.0346 -31.0307 -31.0164 -31.0144
     4.5815   5.2170   5.7227   5.7904   5.8197   5.9384   6.0175   6.0368
     6.0763   6.1250   6.1445   6.1645   6.1864   6.1916   6.2137   6.2281
     6.2492   6.3061   6.3819   6.4395   6.4712   6.5696   6.6210   6.6741
     6.7082   6.9775   7.0146   7.0539   7.0762   7.0898   7.0932   7.1032
     7.1234   7.1510   7.1681   7.1874   7.2232   7.3730   7.4125   7.4179
     7.4415   7.5181   7.5241   7.5804   7.5904   7.6345   7.6428   7.7217
     7.8505   7.8784   8.0431   8.1506   8.2758   8.2812   8.3427   8.3480
     8.3806   8.4574   8.4806   8.6089   8.6124   8.6238   8.6732   8.7073
     8.7307   8.8380   8.8450   8.9277   8.9341   8.9342   8.9796   8.9922
     9.0470   9.0489   9.0603   9.0907   9.1235   9.1304   9.1613   9.1845
     9.2048   9.2099   9.2694   9.3229   9.3233   9.3469   9.4502   9.4664
     9.5094   9.5386   9.6749   9.7618   9.8444   9.9282   9.9339  10.0689
    10.0803  10.1116  10.1514  10.1814  10.1868  10.2221  10.2384  10.2396
    10.2536  10.2649  10.3702  10.4041  10.4703  10.4869  10.5633  10.6464
    10.7361  10.8085  10.8094  10.8389  10.9370  10.9387  10.9584  10.9721
    10.9991  11.0085  11.1286  11.1916  11.2039  11.2078  11.3502  11.3840
    11.4635  11.4681  11.4863  11.5364  11.5601  11.5617  11.6338  11.6443
    11.6676  11.7089  11.7265  11.7321  11.7639  11.7716  11.8549  11.8581
    11.8817  12.0234  12.0449  12.0544  12.1183  12.1478  12.1680  12.1957
    12.2476  12.2842  12.2889  12.4475  12.4487  12.4687  12.4746  12.6452
    12.6779  12.7353  12.7676  12.7826  12.8639  12.9065  12.9238  12.9245
    12.9685  13.0099  13.0660  13.1174  13.2682  13.4644  13.5484  13.7208
    14.1814  14.3992  14.4134

          k = 0.0556 0.3889 0.2222 ( 52808 PWs)   bands (ev):

   -61.8104 -61.7889 -61.7402 -61.7314 -61.7270 -61.7207 -61.7107 -61.7023
   -61.6945 -61.6935 -61.6902 -61.6897 -61.6861 -61.6696 -61.6665 -61.6596
   -61.2893 -61.2881 -61.2768 -61.2761 -61.2514 -61.2513 -61.2507 -61.2506
   -61.2455 -61.2454 -61.2440 -61.2439 -61.2170 -61.2170 -61.2038 -61.2037
   -32.1068 -32.0932 -32.0914 -32.0764 -32.0650 -32.0633 -32.0380 -32.0231
   -32.0163 -32.0151 -32.0091 -32.0036 -32.0023 -31.9832 -31.8770 -31.8702
   -31.8095 -31.7890 -31.7597 -31.7587 -31.7553 -31.7501 -31.7448 -31.7308
   -31.7255 -31.7246 -31.7232 -31.7030 -31.6932 -31.6861 -31.6818 -31.6159
   -31.5856 -31.5756 -31.5518 -31.5462 -31.5289 -31.5171 -31.5162 -31.5059
   -31.4954 -31.4907 -31.4884 -31.4868 -31.4806 -31.4805 -31.4518 -31.4308
   -31.4228 -31.4035 -31.3984 -31.3873 -31.3833 -31.3778 -31.3715 -31.3568
   -31.3556 -31.3446 -31.3411 -31.3395 -31.3294 -31.3238 -31.3219 -31.2965
   -31.1580 -31.1518 -31.1500 -31.1487 -31.1464 -31.1453 -31.1430 -31.1416
   -31.1405 -31.1388 -31.1383 -31.1370 -31.1322 -31.1318 -31.1279 -31.1268
   -31.1148 -31.1092 -31.1069 -31.0940 -31.0847 -31.0747 -31.0678 -31.0678
   -31.0645 -31.0559 -31.0401 -31.0372 -31.0346 -31.0307 -31.0164 -31.0144
     4.5816   5.2170   5.7227   5.7904   5.8197   5.9384   6.0175   6.0368
     6.0763   6.1250   6.1445   6.1645   6.1864   6.1914   6.2137   6.2281
     6.2492   6.3061   6.3819   6.4395   6.4712   6.5696   6.6210   6.6739
     6.7083   6.9775   7.0146   7.0539   7.0762   7.0898   7.0932   7.1032
     7.1235   7.1510   7.1681   7.1875   7.2232   7.3730   7.4125   7.4178
     7.4414   7.5181   7.5241   7.5804   7.5904   7.6344   7.6427   7.7217
     7.8505   7.8784   8.0432   8.1506   8.2759   8.2813   8.3427   8.3480
     8.3806   8.4574   8.4808   8.6089   8.6125   8.6238   8.6740   8.7073
     8.7307   8.8381   8.8453   8.9277   8.9341   8.9342   8.9796   8.9923
     9.0470   9.0489   9.0603   9.0907   9.1233   9.1304   9.1613   9.1845
     9.2048   9.2123   9.2694   9.3229   9.3233   9.3469   9.4502   9.4664
     9.5094   9.5386   9.6726   9.7623   9.8447   9.9288   9.9328  10.0692
    10.0801  10.1106  10.1514  10.1813  10.1868  10.2221  10.2384  10.2394
    10.2535  10.2632  10.3614  10.4029  10.4697  10.4874  10.5628  10.6475
[...]
   -31.3586 -31.3586 -31.3586 -31.3586 -31.3586 -31.3586 -31.3586 -31.3586
   -31.2957 -31.2957 -31.2957 -31.2957 -31.2957 -31.2957 -31.2957 -31.2957
   -31.2777 -31.2777 -31.2777 -31.2777 -31.2473 -31.2473 -31.2473 -31.2473
   -31.1943 -31.1943 -31.1943 -31.1943 -31.1943 -31.1943 -31.1943 -31.1943
   -31.1458 -31.1458 -31.1458 -31.1458 -31.1316 -31.1316 -31.1316 -31.1316
   -31.0411 -31.0411 -31.0411 -31.0411 -31.0358 -31.0358 -31.0358 -31.0358
     5.2743   5.2743   5.2743   5.2743   5.9416   5.9416   5.9416   5.9416
     6.2027   6.2027   6.2027   6.2027   6.2027   6.2027   6.2027   6.2027
     6.2176   6.2176   6.2176   6.2176   6.3412   6.3412   6.3412   6.3412
     6.5701   6.5701   6.5701   6.5701   6.5701   6.5701   6.5701   6.5701
     6.9575   6.9575   6.9576   6.9576   7.1146   7.1146   7.1146   7.1146
     7.1146   7.1146   7.1146   7.1146   7.5465   7.5465   7.5465   7.5465
     7.5465   7.5465   7.5465   7.5465   7.7806   7.7806   7.7806   7.7806
     8.4928   8.4928   8.4928   8.4928   8.6751   8.6751   8.6751   8.6751
     9.0614   9.0614   9.0614   9.0614   9.1448   9.1448   9.1448   9.1448
     9.1759   9.1759   9.1759   9.1759   9.2825   9.2825   9.2825   9.2825
     9.2825   9.2825   9.2825   9.2825   9.3190   9.3190   9.3190   9.3190
     9.7761   9.7761   9.7761   9.7761   9.9569   9.9569   9.9569   9.9569
    10.0289  10.0289  10.0289  10.0289  10.0290  10.0290  10.0290  10.0290
    10.1105  10.1105  10.1105  10.1105  10.3335  10.3335  10.3335  10.3335
    10.3698  10.3698  10.3698  10.3698  10.3698  10.3698  10.3698  10.3698
    11.0603  11.0603  11.0603  11.0603  11.1873  11.1873  11.1873  11.1873
    11.1873  11.1873  11.1873  11.1873  11.2806  11.2806  11.2806  11.2806
    11.7848  11.7848  11.7848  11.7848  12.0153  12.0153  12.0153  12.0154
    12.0154  12.0154  12.0154  12.0154  12.1585  12.1585  12.1585  12.1585
    12.3633  12.3633  12.3633  12.3633  12.8606  12.8606  12.8606  12.8606
    12.8937  12.8937  12.8937  12.8937  12.8937  12.8937  12.8937  12.8937
    13.0387  13.0387  13.0387  13.0387  15.0293  15.0293  15.0293  15.0293
    15.9051  15.9051  15.9051

          k =-0.5000-0.5000 0.1587 ( 52768 PWs)   bands (ev):

   -61.7857 -61.7857 -61.7857 -61.7857 -61.7352 -61.7352 -61.7352 -61.7352
   -61.6944 -61.6944 -61.6944 -61.6944 -61.6944 -61.6944 -61.6944 -61.6944
   -61.3345 -61.3345 -61.3345 -61.3345 -61.3333 -61.3333 -61.3333 -61.3333
   -61.2884 -61.2884 -61.2884 -61.2884 -61.2884 -61.2884 -61.2884 -61.2884
   -32.1205 -32.1205 -32.1205 -32.1205 -32.1205 -32.1205 -32.1205 -32.1205
   -32.0123 -32.0123 -32.0123 -32.0123 -31.9788 -31.9788 -31.9788 -31.9788
   -31.9131 -31.9131 -31.9131 -31.9131 -31.9131 -31.9131 -31.9131 -31.9131
   -31.8259 -31.8259 -31.8259 -31.8259 -31.7267 -31.7267 -31.7267 -31.7267
   -31.6617 -31.6617 -31.6617 -31.6617 -31.6617 -31.6617 -31.6617 -31.6617
   -31.5320 -31.5320 -31.5320 -31.5320 -31.4523 -31.4523 -31.4523 -31.4523
   -31.3586 -31.3586 -31.3586 -31.3586 -31.3586 -31.3586 -31.3586 -31.3586
   -31.2957 -31.2957 -31.2957 -31.2957 -31.2957 -31.2957 -31.2957 -31.2957
   -31.2777 -31.2777 -31.2777 -31.2777 -31.2472 -31.2472 -31.2472 -31.2472
   -31.1943 -31.1943 -31.1943 -31.1943 -31.1943 -31.1943 -31.1943 -31.1943
   -31.1458 -31.1458 -31.1457 -31.1457 -31.1316 -31.1316 -31.1316 -31.1316
   -31.0411 -31.0411 -31.0411 -31.0411 -31.0358 -31.0358 -31.0358 -31.0358
     5.2743   5.2743   5.2743   5.2743   5.9416   5.9416   5.9416   5.9416
     6.2027   6.2027   6.2027   6.2027   6.2027   6.2027   6.2027   6.2027
     6.2175   6.2175   6.2176   6.2176   6.3413   6.3413   6.3413   6.3413
     6.5701   6.5701   6.5701   6.5701   6.5701   6.5701   6.5701   6.5701
     6.9575   6.9575   6.9575   6.9575   7.1146   7.1146   7.1146   7.1146
     7.1146   7.1146   7.1146   7.1146   7.5465   7.5465   7.5465   7.5465
     7.5465   7.5465   7.5465   7.5465   7.7806   7.7806   7.7806   7.7806
     8.4927   8.4927   8.4927   8.4927   8.6753   8.6753   8.6753   8.6753
     9.0623   9.0623   9.0623   9.0623   9.1440   9.1440   9.1440   9.1440
     9.1759   9.1759   9.1759   9.1759   9.2825   9.2825   9.2825   9.2825
     9.2825   9.2825   9.2825   9.2825   9.3190   9.3190   9.3190   9.3190
     9.7757   9.7757   9.7757   9.7757   9.9569   9.9569   9.9569   9.9569
    10.0289  10.0289  10.0289  10.0289  10.0290  10.0290  10.0290  10.0290
    10.1108  10.1108  10.1108  10.1108  10.3335  10.3335  10.3335  10.3335
    10.3698  10.3698  10.3698  10.3698  10.3698  10.3698  10.3699  10.3699
    11.0528  11.0528  11.0529  11.0529  11.1870  11.1870  11.1870  11.1870
    11.1870  11.1870  11.1870  11.1870  11.2836  11.2836  11.2836  11.2836
    11.7848  11.7848  11.7848  11.7848  12.0157  12.0157  12.0157  12.0157
    12.0157  12.0157  12.0157  12.0157  12.1585  12.1585  12.1585  12.1585
    12.3819  12.3819  12.3819  12.3819  12.8606  12.8606  12.8606  12.8606
    12.8938  12.8938  12.8938  12.8938  12.8938  12.8938  12.8938  12.8938
    13.0387  13.0387  13.0387  13.0387  14.9194  14.9194  14.9194  14.9194
    15.9059  15.9059  15.9059

          k =-0.5000-0.5000 0.2222 ( 52768 PWs)   bands (ev):

   -61.7857 -61.7857 -61.7857 -61.7857 -61.7352 -61.7352 -61.7352 -61.7352
   -61.6944 -61.6944 -61.6944 -61.6944 -61.6944 -61.6944 -61.6944 -61.6944
   -61.3345 -61.3345 -61.3345 -61.3345 -61.3333 -61.3333 -61.3333 -61.3333
   -61.2884 -61.2884 -61.2884 -61.2884 -61.2884 -61.2884 -61.2884 -61.2884
   -32.1206 -32.1206 -32.1206 -32.1206 -32.1205 -32.1205 -32.1205 -32.1205
   -32.0123 -32.0123 -32.0123 -32.0123 -31.9788 -31.9788 -31.9788 -31.9788
   -31.9131 -31.9131 -31.9131 -31.9131 -31.9131 -31.9131 -31.9131 -31.9131
   -31.8259 -31.8259 -31.8259 -31.8259 -31.7267 -31.7267 -31.7267 -31.7267
   -31.6617 -31.6617 -31.6617 -31.6617 -31.6617 -31.6617 -31.6617 -31.6617
   -31.5320 -31.5320 -31.5320 -31.5320 -31.4523 -31.4523 -31.4523 -31.4523
   -31.3587 -31.3587 -31.3587 -31.3587 -31.3587 -31.3587 -31.3587 -31.3587
   -31.2957 -31.2957 -31.2957 -31.2957 -31.2957 -31.2957 -31.2957 -31.2957
   -31.2777 -31.2777 -31.2777 -31.2777 -31.2472 -31.2472 -31.2472 -31.2472
   -31.1943 -31.1943 -31.1943 -31.1943 -31.1943 -31.1943 -31.1943 -31.1943
   -31.1457 -31.1457 -31.1457 -31.1457 -31.1316 -31.1315 -31.1315 -31.1315
   -31.0411 -31.0411 -31.0411 -31.0411 -31.0358 -31.0358 -31.0358 -31.0358
     5.2743   5.2743   5.2743   5.2743   5.9416   5.9416   5.9416   5.9416
     6.2027   6.2027   6.2027   6.2027   6.2027   6.2027   6.2027   6.2027
     6.2175   6.2175   6.2175   6.2175   6.3414   6.3414   6.3414   6.3414
     6.5701   6.5701   6.5701   6.5701   6.5701   6.5701   6.5701   6.5701
     6.9575   6.9575   6.9575   6.9575   7.1146   7.1146   7.1146   7.1146
     7.1146   7.1146   7.1146   7.1146   7.5465   7.5465   7.5465   7.5465
     7.5465   7.5465   7.5465   7.5465   7.7807   7.7807   7.7807   7.7807
     8.4927   8.4927   8.4927   8.4927   8.6754   8.6754   8.6754   8.6754
     9.0631   9.0631   9.0631   9.0631   9.1432   9.1432   9.1432   9.1432
     9.1759   9.1759   9.1759   9.1759   9.2825   9.2825   9.2825   9.2825
     9.2825   9.2825   9.2825   9.2825   9.3190   9.3190   9.3190   9.3190
     9.7754   9.7754   9.7754   9.7754   9.9569   9.9569   9.9569   9.9569
    10.0289  10.0289  10.0289  10.0290  10.0290  10.0290  10.0290  10.0290
    10.1111  10.1111  10.1111  10.1111  10.3335  10.3335  10.3335  10.3335
    10.3699  10.3699  10.3699  10.3699  10.3699  10.3699  10.3699  10.3699
    11.0466  11.0466  11.0466  11.0466  11.1867  11.1867  11.1867  11.1867
    11.1867  11.1867  11.1867  11.1867  11.2860  11.2860  11.2860  11.2860
    11.7848  11.7848  11.7848  11.7848  12.0160  12.0160  12.0160  12.0160
    12.0160  12.0160  12.0160  12.0160  12.1585  12.1585  12.1585  12.1585
    12.3986  12.3986  12.3986  12.3986  12.8606  12.8606  12.8606  12.8606
    12.8938  12.8938  12.8938  12.8938  12.8938  12.8938  12.8938  12.8938
    13.0387  13.0387  13.0387  13.0387  14.8361  14.8361  14.8361  14.8361
    15.9066  15.9066  15.9066

          k =-0.5000-0.5000-0.2857 ( 52800 PWs)   bands (ev):

   -61.7857 -61.7857 -61.7857 -61.7857 -61.7352 -61.7352 -61.7352 -61.7352
   -61.6944 -61.6944 -61.6944 -61.6944 -61.6944 -61.6944 -61.6944 -61.6944
   -61.3345 -61.3345 -61.3345 -61.3345 -61.3333 -61.3333 -61.3333 -61.3333
   -61.2884 -61.2884 -61.2884 -61.2884 -61.2884 -61.2884 -61.2884 -61.2884
   -32.1206 -32.1206 -32.1206 -32.1206 -32.1205 -32.1205 -32.1205 -32.1205
   -32.0123 -32.0123 -32.0123 -32.0123 -31.9788 -31.9788 -31.9788 -31.9788
   -31.9131 -31.9131 -31.9131 -31.9131 -31.9131 -31.9131 -31.9131 -31.9131
   -31.8260 -31.8260 -31.8259 -31.8259 -31.7267 -31.7267 -31.7267 -31.7267
   -31.6617 -31.6617 -31.6617 -31.6617 -31.6617 -31.6617 -31.6617 -31.6617
   -31.5320 -31.5320 -31.5320 -31.5320 -31.4524 -31.4524 -31.4524 -31.4524
   -31.3587 -31.3587 -31.3587 -31.3587 -31.3587 -31.3587 -31.3587 -31.3587
   -31.2957 -31.2957 -31.2957 -31.2957 -31.2957 -31.2957 -31.2957 -31.2957
   -31.2778 -31.2778 -31.2778 -31.2778 -31.2472 -31.2472 -31.2472 -31.2472
   -31.1943 -31.1943 -31.1943 -31.1943 -31.1943 -31.1943 -31.1943 -31.1943
   -31.1457 -31.1457 -31.1457 -31.1457 -31.1316 -31.1316 -31.1316 -31.1316
   -31.0411 -31.0411 -31.0411 -31.0411 -31.0359 -31.0359 -31.0359 -31.0359
     5.2743   5.2743   5.2743   5.2743   5.9416   5.9416   5.9416   5.9416
     6.2027   6.2027   6.2027   6.2027   6.2027   6.2027   6.2027   6.2027
     6.2174   6.2174   6.2175   6.2175   6.3414   6.3414   6.3414   6.3414
     6.5701   6.5701   6.5701   6.5701   6.5701   6.5701   6.5701   6.5701
     6.9575   6.9575   6.9575   6.9575   7.1146   7.1146   7.1146   7.1146
     7.1146   7.1146   7.1146   7.1146   7.5465   7.5465   7.5465   7.5465
     7.5465   7.5465   7.5465   7.5465   7.7807   7.7807   7.7807   7.7807
     8.4927   8.4927   8.4927   8.4927   8.6755   8.6755   8.6755   8.6755
     9.0634   9.0634   9.0634   9.0634   9.1429   9.1429   9.1429   9.1429
     9.1759   9.1759   9.1759   9.1759   9.2825   9.2825   9.2825   9.2825
     9.2825   9.2825   9.2825   9.2825   9.3190   9.3190   9.3190   9.3190
     9.7752   9.7752   9.7752   9.7752   9.9569   9.9569   9.9569   9.9569
    10.0289  10.0289  10.0289  10.0290  10.0290  10.0290  10.0290  10.0290
    10.1112  10.1112  10.1112  10.1112  10.3335  10.3335  10.3335  10.3335
    10.3699  10.3699  10.3699  10.3699  10.3699  10.3699  10.3699  10.3699
    11.0441  11.0441  11.0442  11.0442  11.1866  11.1866  11.1866  11.1866
    11.1866  11.1866  11.1866  11.1866  11.2869  11.2869  11.2869  11.2869
    11.7848  11.7848  11.7848  11.7848  12.0161  12.0161  12.0161  12.0161
    12.0161  12.0161  12.0161  12.0161  12.1585  12.1585  12.1585  12.1585
    12.4052  12.4052  12.4052  12.4052  12.8606  12.8606  12.8606  12.8606
    12.8938  12.8938  12.8938  12.8938  12.8938  12.8938  12.8938  12.8938
    13.0387  13.0387  13.0387  13.0387  14.8057  14.8057  14.8057  14.8057
    15.9069  15.9069  15.9069

     the Fermi energy is    11.2769 ev

!    total energy              =  -13811.74543460 Ry

     total all-electron energy =   -289988.135774 Ry
     estimated scf accuracy    <          8.3E-09 Ry
     smearing contrib. (-TS)   =      -0.00893540 Ry
     internal energy E=F+TS    =  -13811.73649920 Ry

     The total energy is F=E-TS. E is the sum of the following terms:
     one-electron contribution =  -14612.96585132 Ry
     hartree contribution      =    7503.17764945 Ry
     xc contribution           =    -926.71245003 Ry
     ewald contribution        =    1814.14622323 Ry
     one-center paw contrib.   =   -7589.38207054 Ry

     convergence has been achieved in  10 iterations

     negative rho (up, down):  4.098E-07 0.000E+00

     Forces acting on atoms (cartesian axes, Ry/au):

     atom    1 type  1   force =     0.00000000    0.00000000   -0.00003006
     atom    2 type  1   force =    -0.00000217   -0.00000217   -0.00003190
     atom    3 type  1   force =    -0.00000144    0.00000000    0.00008565
     atom    4 type  1   force =     0.00000000   -0.00000144    0.00008565
     atom    5 type  1   force =     0.00000000    0.00000000   -0.00008740
     atom    6 type  1   force =    -0.00000132   -0.00000132   -0.00008829
     atom    7 type  1   force =    -0.00000067    0.00000000    0.00003386
     atom    8 type  1   force =     0.00000000   -0.00000067    0.00003386
     atom    9 type  1   force =     0.00000000    0.00000000   -0.00003322
     atom   10 type  1   force =    -0.00000217    0.00000217   -0.00003190
     atom   11 type  1   force =    -0.00000163    0.00000000    0.00008757
     atom   12 type  1   force =     0.00000000    0.00000144    0.00008565
     atom   13 type  1   force =     0.00000000    0.00000000   -0.00008717
     atom   14 type  1   force =    -0.00000132    0.00000132   -0.00008829
     atom   15 type  1   force =    -0.00000249    0.00000000    0.00003283
     atom   16 type  1   force =     0.00000000    0.00000067    0.00003386
     atom   17 type  1   force =     0.00000000    0.00000000   -0.00003322
     atom   18 type  1   force =     0.00000217   -0.00000217   -0.00003190
     atom   19 type  1   force =     0.00000144    0.00000000    0.00008565
     atom   20 type  1   force =     0.00000000   -0.00000163    0.00008757
     atom   21 type  1   force =     0.00000000    0.00000000   -0.00008717
     atom   22 type  1   force =     0.00000132   -0.00000132   -0.00008829
     atom   23 type  1   force =     0.00000067    0.00000000    0.00003386
     atom   24 type  1   force =     0.00000000   -0.00000249    0.00003283
     atom   25 type  1   force =     0.00000000    0.00000000   -0.00003033
     atom   26 type  1   force =     0.00000217    0.00000217   -0.00003190
     atom   27 type  1   force =     0.00000163    0.00000000    0.00008757
     atom   28 type  1   force =     0.00000000    0.00000163    0.00008757
     atom   29 type  1   force =     0.00000000    0.00000000   -0.00009026
     atom   30 type  1   force =     0.00000132    0.00000132   -0.00008829
     atom   31 type  1   force =     0.00000249    0.00000000    0.00003283
     atom   32 type  1   force =     0.00000000    0.00000249    0.00003283

     Total force =     0.000373     Total SCF correction =     0.000479
     SCF correction compared to forces is large: reduce conv_thr to get better values


     Computing stress (Cartesian axis) and pressure


     negative rho (up, down):  4.098E-07 0.000E+00
          total   stress  (Ry/bohr**3)                   (kbar)     P=      -20.69
  -0.00019590   0.00000000   0.00000000          -28.82        0.00        0.00
   0.00000000  -0.00019590   0.00000000            0.00      -28.82        0.00
   0.00000000   0.00000000  -0.00003014            0.00        0.00       -4.43

     Energy error            =      7.8E-06
     Gradient error          =      9.0E-05

     bfgs converged in   9 scf cycles and   8 bfgs steps
     (criteria: energy <  1.0E-04 Ry, force <  1.0E-03 Ry/Bohr)

     End of BFGS Geometry Optimization

     Final energy   =  -13811.7454345963 Ry

     File /scratch/saKqbDdsUqqdudmK.bfgs deleted, as requested
Begin final coordinates

ATOMIC_POSITIONS (crystal)
Ru            0.0000000000        0.0000000000        0.0047171912
Ru            0.2499999628        0.2499999628        0.0047179971
Ru            0.2499996440        0.0000000000        0.1356140903
Ru            0.0000000000        0.2499996440        0.1356140903
Ru            0.0000000000        0.0000000000        0.7215293246
Ru            0.2500001565        0.2500001565        0.7215293284
Ru            0.2499996406        0.0000000000        0.8524243152
Ru            0.0000000000        0.2499996406        0.8524243152
Ru            0.0000000000        0.5000000000        0.0047183662
Ru            0.2499999628        0.7500000372        0.0047179971
Ru            0.2500002908        0.5000000000        0.1356141390
Ru            0.0000000000        0.7500003560        0.1356140903
Ru            0.0000000000        0.5000000000        0.7215291752
Ru            0.2500001565        0.7499998435        0.7215293284
Ru            0.2500000006        0.5000000000        0.8524243270
Ru            0.0000000000        0.7500003594        0.8524243152
Ru            0.5000000000        0.0000000000        0.0047183662
Ru            0.7500000372        0.2499999628        0.0047179971
Ru            0.7500003560       -0.0000000000        0.1356140903
Ru            0.5000000000        0.2500002908        0.1356141390
Ru            0.5000000000        0.0000000000        0.7215291752
Ru            0.7499998435        0.2500001565        0.7215293284
Ru            0.7500003594        0.0000000000        0.8524243152
Ru            0.5000000000        0.2500000006        0.8524243270
Ru            0.5000000000        0.5000000000        0.0047178765
Ru            0.7500000372        0.7500000372        0.0047179971
Ru            0.7499997092        0.5000000000        0.1356141390
Ru            0.5000000000        0.7499997092        0.1356141390
Ru            0.5000000000        0.5000000000        0.7215294515
Ru            0.7499998435        0.7499998435        0.7215293284
Ru            0.7499999994        0.5000000000        0.8524243270
Ru            0.5000000000        0.7499999994        0.8524243270
End final coordinates



     Writing output data file /scratch/saKqbDdsUqqdudmK.save/
 
     init_run     :     36.44s CPU     37.43s WALL (       1 calls)
     electrons    :  13364.27s CPU  13569.66s WALL (       9 calls)
     update_pot   :      2.59s CPU      2.71s WALL (       8 calls)
     forces       :    139.79s CPU    140.86s WALL (       9 calls)
     stress       :   1267.01s CPU   1275.21s WALL (       9 calls)

     Called by init_run:
     wfcinit      :     35.53s CPU     36.43s WALL (       1 calls)
     potinit      :      0.18s CPU      0.20s WALL (       1 calls)
     hinit0       :      0.14s CPU      0.14s WALL (       1 calls)

     Called by electrons:
     c_bands      :  11921.17s CPU  12102.17s WALL (     143 calls)
     sum_band     :   1418.48s CPU   1439.10s WALL (     143 calls)
     v_of_rho     :      3.73s CPU      3.89s WALL (     151 calls)
     newd         :      5.86s CPU      8.24s WALL (     151 calls)
     PAW_pot      :     13.84s CPU     14.52s WALL (     159 calls)
     mix_rho      :      1.69s CPU      1.83s WALL (     143 calls)

     Called by c_bands:
     init_us_2    :     78.54s CPU     79.37s WALL (   23475 calls)
     cegterg      :  11636.79s CPU  11766.21s WALL (   10725 calls)

     Called by *egterg:
     cdiaghg      :    995.57s CPU   1002.88s WALL (   36047 calls)
     h_psi        :   5811.36s CPU   5893.60s WALL (   36797 calls)
     s_psi        :    602.99s CPU    606.84s WALL (   36797 calls)
     g_psi        :     20.17s CPU     20.51s WALL (   25997 calls)

     Called by h_psi:
     h_psi:calbec :    945.46s CPU    952.07s WALL (   36797 calls)
     vloc_psi     :   4215.75s CPU   4284.96s WALL (   36797 calls)
     add_vuspsi   :    603.16s CPU    609.18s WALL (   36797 calls)

     General routines
     calbec       :   1563.39s CPU   1574.10s WALL (   51497 calls)
     fft          :      4.71s CPU      4.88s WALL (    2179 calls)
     ffts         :      0.27s CPU      0.29s WALL (     294 calls)
     fftw         :   4973.87s CPU   5054.65s WALL (18938261 calls)
     interpolate  :      0.75s CPU      0.83s WALL (     151 calls)
 
     Parallel routines
     fft_scatt_xy :    330.54s CPU    335.87s WALL (18940734 calls)
     fft_scatt_yz :   3971.86s CPU   4037.86s WALL (18940734 calls)
 
     PWSCF        :      4h 7m CPU      4h11m WALL

 
   This run was terminated on:  11:42:36   3Dec2021            

=------------------------------------------------------------------------------=
   JOB DONE.
=------------------------------------------------------------------------------=
