
     Program PWSCF v.6.7MaX starts on  1Dec2021 at 23:51:17 

     This program is part of the open-source Quantum ESPRESSO suite
     for quantum simulation of materials; please cite
         "P. Giannozzi et al., J. Phys.:Condens. Matter 21 395502 (2009);
         "P. Giannozzi et al., J. Phys.:Condens. Matter 29 465901 (2017);
          URL http://www.quantum-espresso.org", 
     in publications or presentations arising from this work. More details at
     http://www.quantum-espresso.org/quote

     Parallel version (MPI & OpenMP), running on      72 processor cores
     Number of MPI processes:                72
     Threads/MPI process:                     1

     MPI processes distributed on     1 nodes
     R & G space division:  proc/nbgrp/npool/nimage =      72
     Reading input from relax_7.in
Warning: card &CELL ignored
Warning: card CELL_DYNAMICS = 'BFGS', ignored
Warning: card CELL_FACTOR = 2.0, ignored
Warning: card PRESS = 0.0, ignored
Warning: card / ignored

     Current dimensions of program PWSCF are:
     Max number of different atomic species (ntypx) = 10
     Max number of k-points (npk) =  40000
     Max angular momentum in pseudopotentials (lmaxx) =  3
     file Ru.pbe-spn-kjpaw_psl.1.0.0.UPF: wavefunction(s)  4D renormalized

     Subspace diagonalization in iterative solution of the eigenvalue problem:
     one sub-group per band group will be used
     ELPA distributed-memory algorithm (size of sub-group:  8*  8 procs)

     Found symmetry operation: I + (  0.2500  0.2500  0.0000)
     This is a supercell, fractional translations are disabled
     Message from routine setup:
     using ibrav=0 with symmetry is DISCOURAGED, use correct ibrav instead
 
     Parallelization info
     --------------------
     sticks:   dense  smooth     PW     G-vecs:    dense   smooth      PW
     Min          98      65     17                 8118     4354     611
     Max          99      67     18                 8123     4359     618
     Sum        7113    4693   1273               584659   313689   44189
 


     bravais-lattice index     =            0
     lattice parameter (alat)  =      14.4007  a.u.
     unit-cell volume          =    3882.3790 (a.u.)^3
     number of atoms/cell      =           32
     number of atomic types    =            1
     number of electrons       =       512.00
     number of Kohn-Sham states=          307
     kinetic-energy cutoff     =      71.0000  Ry
     charge density cutoff     =     430.0000  Ry
     scf convergence threshold =      1.0E-06
     mixing beta               =       0.1000
     number of iterations used =           10  TF        mixing
     energy convergence thresh.=      1.0E-04
     force convergence thresh. =      1.0E-03
     Exchange-correlation= SLA  PW   PBX  PBC
                           (   1   4   3   4   0   0   0)
     nstep                     =           40


     celldm(1)=  14.400742  celldm(2)=   0.000000  celldm(3)=   0.000000
     celldm(4)=   0.000000  celldm(5)=   0.000000  celldm(6)=   0.000000

     crystal axes: (cart. coord. in units of alat)
               a(1) = (   1.000000   0.000000   0.000000 )  
               a(2) = (   0.000000   1.000000   0.000000 )  
               a(3) = (   0.000000   0.000000   1.300000 )  

     reciprocal axes: (cart. coord. in units 2 pi/alat)
               b(1) = (  1.000000  0.000000  0.000000 )  
               b(2) = (  0.000000  1.000000  0.000000 )  
               b(3) = (  0.000000  0.000000  0.769231 )  


     PseudoPot. # 1 for Ru read from file:
     /rds/homes/b/bxp912/pp/Ru.pbe-spn-kjpaw_psl.1.0.0.UPF
     MD5 check sum: 0ae1f594dea09af7be8575c3a481d1ae
     Pseudo is Projector augmented-wave + core cor, Zval = 16.0
     Generated using "atomic" code by A. Dal Corso  v.5.1
     Shape of augmentation charge: PSQ
     Using radial grid of 1233 points,  6 beta functions with: 
                l(1) =   0
                l(2) =   0
                l(3) =   1
                l(4) =   1
                l(5) =   2
                l(6) =   2
     Q(r) pseudized with 0 coefficients 


     atomic species   valence    mass     pseudopotential
        Ru            16.00   101.07000     Ru( 1.00)

      8 Sym. Ops. (no inversion) found



   Cartesian axes

     site n.     atom                  positions (alat units)
         1           Ru  tau(   1) = (   0.0000000   0.0000000   0.0000000  )
         2           Ru  tau(   2) = (   0.2500000   0.2500000   0.0000000  )
         3           Ru  tau(   3) = (   0.2500000   0.0000000   0.2500000  )
         4           Ru  tau(   4) = (   0.0000000   0.2500000   0.2500000  )
         5           Ru  tau(   5) = (   0.0000000   0.0000000   0.8000000  )
         6           Ru  tau(   6) = (   0.2500000   0.2500000   0.8000000  )
         7           Ru  tau(   7) = (   0.2500000   0.0000000   1.0500000  )
         8           Ru  tau(   8) = (   0.0000000   0.2500000   1.0500000  )
         9           Ru  tau(   9) = (   0.0000000   0.5000000   0.0000000  )
        10           Ru  tau(  10) = (   0.2500000   0.7500000   0.0000000  )
        11           Ru  tau(  11) = (   0.2500000   0.5000000   0.2500000  )
        12           Ru  tau(  12) = (   0.0000000   0.7500000   0.2500000  )
        13           Ru  tau(  13) = (   0.0000000   0.5000000   0.8000000  )
        14           Ru  tau(  14) = (   0.2500000   0.7500000   0.8000000  )
        15           Ru  tau(  15) = (   0.2500000   0.5000000   1.0500000  )
        16           Ru  tau(  16) = (   0.0000000   0.7500000   1.0500000  )
        17           Ru  tau(  17) = (   0.5000000   0.0000000   0.0000000  )
        18           Ru  tau(  18) = (   0.7500000   0.2500000   0.0000000  )
        19           Ru  tau(  19) = (   0.7500000   0.0000000   0.2500000  )
        20           Ru  tau(  20) = (   0.5000000   0.2500000   0.2500000  )
        21           Ru  tau(  21) = (   0.5000000   0.0000000   0.8000000  )
        22           Ru  tau(  22) = (   0.7500000   0.2500000   0.8000000  )
        23           Ru  tau(  23) = (   0.7500000   0.0000000   1.0500000  )
        24           Ru  tau(  24) = (   0.5000000   0.2500000   1.0500000  )
        25           Ru  tau(  25) = (   0.5000000   0.5000000   0.0000000  )
        26           Ru  tau(  26) = (   0.7500000   0.7500000   0.0000000  )
        27           Ru  tau(  27) = (   0.7500000   0.5000000   0.2500000  )
        28           Ru  tau(  28) = (   0.5000000   0.7500000   0.2500000  )
        29           Ru  tau(  29) = (   0.5000000   0.5000000   0.8000000  )
        30           Ru  tau(  30) = (   0.7500000   0.7500000   0.8000000  )
        31           Ru  tau(  31) = (   0.7500000   0.5000000   1.0500000  )
        32           Ru  tau(  32) = (   0.5000000   0.7500000   1.0500000  )

     number of k points=    75  Marzari-Vanderbilt smearing, width (Ry)=  0.0400
                       cart. coord. in units 2pi/alat
        k(    1) = (   0.0555556   0.0555556   0.0427350), wk =   0.0219479
        k(    2) = (   0.0555556   0.0555556   0.1282051), wk =   0.0219479
        k(    3) = (   0.0555556   0.0555556   0.2136752), wk =   0.0219479
        k(    4) = (   0.0555556   0.0555556   0.2991453), wk =   0.0219479
        k(    5) = (   0.0555556   0.0555556  -0.3846154), wk =   0.0109739
        k(    6) = (   0.0555556   0.1666667   0.0427350), wk =   0.0438957
        k(    7) = (   0.0555556   0.1666667   0.1282051), wk =   0.0438957
        k(    8) = (   0.0555556   0.1666667   0.2136752), wk =   0.0438957
        k(    9) = (   0.0555556   0.1666667   0.2991453), wk =   0.0438957
        k(   10) = (   0.0555556   0.1666667  -0.3846154), wk =   0.0219479
        k(   11) = (   0.0555556   0.2777778   0.0427350), wk =   0.0438957
        k(   12) = (   0.0555556   0.2777778   0.1282051), wk =   0.0438957
        k(   13) = (   0.0555556   0.2777778   0.2136752), wk =   0.0438957
        k(   14) = (   0.0555556   0.2777778   0.2991453), wk =   0.0438957
        k(   15) = (   0.0555556   0.2777778  -0.3846154), wk =   0.0219479
        k(   16) = (   0.0555556   0.3888889   0.0427350), wk =   0.0438957
        k(   17) = (   0.0555556   0.3888889   0.1282051), wk =   0.0438957
        k(   18) = (   0.0555556   0.3888889   0.2136752), wk =   0.0438957
        k(   19) = (   0.0555556   0.3888889   0.2991453), wk =   0.0438957
        k(   20) = (   0.0555556   0.3888889  -0.3846154), wk =   0.0219479
        k(   21) = (   0.0555556  -0.5000000   0.0427350), wk =   0.0219479
        k(   22) = (   0.0555556  -0.5000000   0.1282051), wk =   0.0219479
        k(   23) = (   0.0555556  -0.5000000   0.2136752), wk =   0.0219479
        k(   24) = (   0.0555556  -0.5000000   0.2991453), wk =   0.0219479
        k(   25) = (   0.0555556  -0.5000000  -0.3846154), wk =   0.0109739
        k(   26) = (   0.1666667   0.1666667   0.0427350), wk =   0.0219479
        k(   27) = (   0.1666667   0.1666667   0.1282051), wk =   0.0219479
        k(   28) = (   0.1666667   0.1666667   0.2136752), wk =   0.0219479
        k(   29) = (   0.1666667   0.1666667   0.2991453), wk =   0.0219479
        k(   30) = (   0.1666667   0.1666667  -0.3846154), wk =   0.0109739
        k(   31) = (   0.1666667   0.2777778   0.0427350), wk =   0.0438957
        k(   32) = (   0.1666667   0.2777778   0.1282051), wk =   0.0438957
        k(   33) = (   0.1666667   0.2777778   0.2136752), wk =   0.0438957
        k(   34) = (   0.1666667   0.2777778   0.2991453), wk =   0.0438957
        k(   35) = (   0.1666667   0.2777778  -0.3846154), wk =   0.0219479
        k(   36) = (   0.1666667   0.3888889   0.0427350), wk =   0.0438957
        k(   37) = (   0.1666667   0.3888889   0.1282051), wk =   0.0438957
        k(   38) = (   0.1666667   0.3888889   0.2136752), wk =   0.0438957
        k(   39) = (   0.1666667   0.3888889   0.2991453), wk =   0.0438957
        k(   40) = (   0.1666667   0.3888889  -0.3846154), wk =   0.0219479
        k(   41) = (   0.1666667  -0.5000000   0.0427350), wk =   0.0219479
        k(   42) = (   0.1666667  -0.5000000   0.1282051), wk =   0.0219479
        k(   43) = (   0.1666667  -0.5000000   0.2136752), wk =   0.0219479
        k(   44) = (   0.1666667  -0.5000000   0.2991453), wk =   0.0219479
        k(   45) = (   0.1666667  -0.5000000  -0.3846154), wk =   0.0109739
        k(   46) = (   0.2777778   0.2777778   0.0427350), wk =   0.0219479
        k(   47) = (   0.2777778   0.2777778   0.1282051), wk =   0.0219479
        k(   48) = (   0.2777778   0.2777778   0.2136752), wk =   0.0219479
        k(   49) = (   0.2777778   0.2777778   0.2991453), wk =   0.0219479
        k(   50) = (   0.2777778   0.2777778  -0.3846154), wk =   0.0109739
        k(   51) = (   0.2777778   0.3888889   0.0427350), wk =   0.0438957
        k(   52) = (   0.2777778   0.3888889   0.1282051), wk =   0.0438957
        k(   53) = (   0.2777778   0.3888889   0.2136752), wk =   0.0438957
        k(   54) = (   0.2777778   0.3888889   0.2991453), wk =   0.0438957
        k(   55) = (   0.2777778   0.3888889  -0.3846154), wk =   0.0219479
        k(   56) = (   0.2777778  -0.5000000   0.0427350), wk =   0.0219479
        k(   57) = (   0.2777778  -0.5000000   0.1282051), wk =   0.0219479
        k(   58) = (   0.2777778  -0.5000000   0.2136752), wk =   0.0219479
        k(   59) = (   0.2777778  -0.5000000   0.2991453), wk =   0.0219479
        k(   60) = (   0.2777778  -0.5000000  -0.3846154), wk =   0.0109739
        k(   61) = (   0.3888889   0.3888889   0.0427350), wk =   0.0219479
        k(   62) = (   0.3888889   0.3888889   0.1282051), wk =   0.0219479
        k(   63) = (   0.3888889   0.3888889   0.2136752), wk =   0.0219479
        k(   64) = (   0.3888889   0.3888889   0.2991453), wk =   0.0219479
        k(   65) = (   0.3888889   0.3888889  -0.3846154), wk =   0.0109739
        k(   66) = (   0.3888889  -0.5000000   0.0427350), wk =   0.0219479
        k(   67) = (   0.3888889  -0.5000000   0.1282051), wk =   0.0219479
        k(   68) = (   0.3888889  -0.5000000   0.2136752), wk =   0.0219479
        k(   69) = (   0.3888889  -0.5000000   0.2991453), wk =   0.0219479
        k(   70) = (   0.3888889  -0.5000000  -0.3846154), wk =   0.0109739
        k(   71) = (  -0.5000000  -0.5000000   0.0427350), wk =   0.0054870
        k(   72) = (  -0.5000000  -0.5000000   0.1282051), wk =   0.0054870
        k(   73) = (  -0.5000000  -0.5000000   0.2136752), wk =   0.0054870
        k(   74) = (  -0.5000000  -0.5000000   0.2991453), wk =   0.0054870
        k(   75) = (  -0.5000000  -0.5000000  -0.3846154), wk =   0.0027435

     Dense  grid:   584659 G-vectors     FFT dimensions: (  96,  96, 125)

     Smooth grid:   313689 G-vectors     FFT dimensions: (  80,  80, 108)

     Estimated max dynamical RAM per process >     240.11 MB

     Estimated total dynamical RAM >      16.88 GB

     Check: negative core charge=   -0.000002

     Initial potential from superposition of free atoms

     starting charge  511.97959, renormalised to  512.00000
     Starting wfcs are  320 randomized atomic wfcs
     Checking if some PAW data can be deallocated... 

     total cpu time spent up to now is       35.6 secs

     Self-consistent Calculation

     iteration #  1     ecut=    71.00 Ry     beta= 0.10
     Davidson diagonalization with overlap
     ethr =  1.00E-02,  avg # of iterations =  3.5

     total cpu time spent up to now is      142.7 secs

     total energy              =  -13812.49328911 Ry
     estimated scf accuracy    <      10.83653834 Ry

     iteration #  2     ecut=    71.00 Ry     beta= 0.10
     Davidson diagonalization with overlap
     ethr =  2.12E-03,  avg # of iterations =  1.5

     total cpu time spent up to now is      224.9 secs

     total energy              =  -13812.19263615 Ry
     estimated scf accuracy    <       7.76987636 Ry

     iteration #  3     ecut=    71.00 Ry     beta= 0.10
     Davidson diagonalization with overlap
     ethr =  1.52E-03,  avg # of iterations =  1.4

     total cpu time spent up to now is      299.7 secs

     total energy              =  -13811.92578295 Ry
     estimated scf accuracy    <       2.66901439 Ry

     iteration #  4     ecut=    71.00 Ry     beta= 0.10
     Davidson diagonalization with overlap
     ethr =  5.21E-04,  avg # of iterations =  2.6

     total cpu time spent up to now is      385.3 secs

     total energy              =  -13811.60913675 Ry
     estimated scf accuracy    <       1.35710346 Ry

     iteration #  5     ecut=    71.00 Ry     beta= 0.10
     Davidson diagonalization with overlap
     ethr =  2.65E-04,  avg # of iterations =  3.8

     total cpu time spent up to now is      508.1 secs

     total energy              =  -13811.74204397 Ry
     estimated scf accuracy    <       0.31406027 Ry

     iteration #  6     ecut=    71.00 Ry     beta= 0.10
     Davidson diagonalization with overlap
     c_bands:  1 eigenvalues not converged
     ethr =  6.13E-05,  avg # of iterations =  4.2

     total cpu time spent up to now is      626.7 secs

     total energy              =  -13811.79216761 Ry
     estimated scf accuracy    <       0.07534995 Ry

     iteration #  7     ecut=    71.00 Ry     beta= 0.10
     Davidson diagonalization with overlap
     ethr =  1.47E-05,  avg # of iterations =  5.0

     total cpu time spent up to now is      735.2 secs

     total energy              =  -13811.78226683 Ry
     estimated scf accuracy    <       0.09641730 Ry

     iteration #  8     ecut=    71.00 Ry     beta= 0.10
     Davidson diagonalization with overlap
     ethr =  1.47E-05,  avg # of iterations =  2.0

     total cpu time spent up to now is      817.9 secs

     total energy              =  -13811.77338405 Ry
     estimated scf accuracy    <       0.04091482 Ry

     iteration #  9     ecut=    71.00 Ry     beta= 0.10
     Davidson diagonalization with overlap
     ethr =  7.99E-06,  avg # of iterations =  2.1

     total cpu time spent up to now is      920.4 secs

     total energy              =  -13811.77702642 Ry
     estimated scf accuracy    <       0.00954057 Ry

     iteration # 10     ecut=    71.00 Ry     beta= 0.10
     Davidson diagonalization with overlap
     ethr =  1.86E-06,  avg # of iterations =  3.8

     total cpu time spent up to now is     1026.7 secs

     total energy              =  -13811.77863684 Ry
     estimated scf accuracy    <       0.00567117 Ry

     iteration # 11     ecut=    71.00 Ry     beta= 0.10
     Davidson diagonalization with overlap
     ethr =  1.11E-06,  avg # of iterations =  1.0

     total cpu time spent up to now is     1105.1 secs

     total energy              =  -13811.77945999 Ry
     estimated scf accuracy    <       0.00322707 Ry

     iteration # 12     ecut=    71.00 Ry     beta= 0.10
     Davidson diagonalization with overlap
     ethr =  6.30E-07,  avg # of iterations =  2.0

     total cpu time spent up to now is     1195.6 secs

     total energy              =  -13811.77944469 Ry
     estimated scf accuracy    <       0.00108201 Ry

     iteration # 13     ecut=    71.00 Ry     beta= 0.10
     Davidson diagonalization with overlap
     ethr =  2.11E-07,  avg # of iterations =  2.5

     total cpu time spent up to now is     1286.7 secs

     total energy              =  -13811.77970049 Ry
     estimated scf accuracy    <       0.00009529 Ry

     iteration # 14     ecut=    71.00 Ry     beta= 0.10
     Davidson diagonalization with overlap
     ethr =  1.86E-08,  avg # of iterations =  3.1

     total cpu time spent up to now is     1376.1 secs

     total energy              =  -13811.77973194 Ry
     estimated scf accuracy    <       0.00019632 Ry

     iteration # 15     ecut=    71.00 Ry     beta= 0.10
     Davidson diagonalization with overlap
     ethr =  1.86E-08,  avg # of iterations =  2.2

     total cpu time spent up to now is     1495.3 secs

     total energy              =  -13811.77975283 Ry
     estimated scf accuracy    <       0.00004795 Ry

     iteration # 16     ecut=    71.00 Ry     beta= 0.10
     Davidson diagonalization with overlap
     ethr =  9.37E-09,  avg # of iterations =  4.2

     total cpu time spent up to now is     1605.9 secs

     total energy              =  -13811.77976093 Ry
     estimated scf accuracy    <       0.00003702 Ry

     iteration # 17     ecut=    71.00 Ry     beta= 0.10
     Davidson diagonalization with overlap
     ethr =  7.23E-09,  avg # of iterations =  2.6

     total cpu time spent up to now is     1711.6 secs

     total energy              =  -13811.77976800 Ry
     estimated scf accuracy    <       0.00000580 Ry

     iteration # 18     ecut=    71.00 Ry     beta= 0.10
     Davidson diagonalization with overlap
     ethr =  1.13E-09,  avg # of iterations =  2.0

     total cpu time spent up to now is     1802.1 secs

     total energy              =  -13811.77977039 Ry
     estimated scf accuracy    <       0.00000249 Ry

     iteration # 19     ecut=    71.00 Ry     beta= 0.10
     Davidson diagonalization with overlap
     ethr =  4.87E-10,  avg # of iterations =  2.5

     total cpu time spent up to now is     1901.8 secs

     End of self-consistent calculation

          k = 0.0556 0.0556 0.0427 ( 39187 PWs)   bands (ev):

   -56.3108 -56.2313 -56.2312 -56.2162 -56.2162 -56.2021 -56.1991 -56.1933
   -56.1933 -56.1893 -56.1709 -56.1709 -56.1655 -56.1654 -56.1392 -56.1392
   -55.8185 -55.8166 -55.7724 -55.7724 -55.7721 -55.7721 -55.7696 -55.7696
   -55.7688 -55.7688 -55.7634 -55.7634 -55.7632 -55.7632 -55.7149 -55.7149
   -26.6332 -26.6325 -26.6325 -26.6273 -26.5956 -26.5956 -26.5296 -26.4256
   -26.4256 -26.4232 -26.4231 -26.3787 -26.3786 -26.3528 -26.3528 -26.3375
   -26.3375 -26.3265 -26.3265 -26.2908 -26.2908 -26.2606 -26.2565 -26.2564
   -26.2486 -26.2212 -26.2212 -26.1927 -26.1927 -26.1516 -26.1261 -26.1261
   -26.1154 -26.1154 -26.0856 -26.0856 -26.0527 -26.0522 -26.0021 -26.0021
   -25.9921 -25.9921 -25.9702 -25.9702 -25.9422 -25.9422 -25.9082 -25.9062
   -25.9062 -25.9023 -25.8922 -25.8868 -25.8857 -25.8857 -25.8796 -25.8718
   -25.7836 -25.7836 -25.7782 -25.7782 -25.7535 -25.7535 -25.7426 -25.7426
   -25.7422 -25.7422 -25.7419 -25.7419 -25.7105 -25.7105 -25.7059 -25.7059
   -25.7045 -25.6697 -25.6696 -25.6692 -25.6641 -25.6640 -25.6585 -25.6535
   -25.6535 -25.6433 -25.6433 -25.6368 -25.6368 -25.6298 -25.6298 -25.6215
   -25.5259 -25.5228 -25.5187 -25.5144 -25.4966 -25.4966 -25.4930 -25.4930
     9.6012  10.8558  10.9959  10.9959  11.2676  11.2805  11.2859  11.2859
    11.2911  11.3731  11.4942  11.4942  11.7309  11.7309  11.7862  11.9108
    11.9108  12.1844  12.1844  12.2013  12.3568  12.3568  12.3908  12.3908
    12.5506  12.5506  12.6040  12.6174  12.6302  12.6302  12.6681  12.6681
    12.8819  12.8819  12.9209  12.9209  12.9441  12.9441  13.0033  13.0033
    13.1230  13.1230  13.2180  13.2180  13.2400  13.3506  13.3506  13.3604
    13.3604  13.6165  13.6165  13.6432  13.6517  13.6517  13.6589  13.6589
    13.7500  13.7500  13.8908  13.9494  13.9494  13.9659  14.0694  14.0844
    14.0844  14.1138  14.1959  14.1959  14.2334  14.2334  14.3261  14.3261
    14.4545  14.4545  14.4809  14.4891  14.6043  14.6227  14.6717  14.7101
    14.7101  14.7594  14.8846  15.0312  15.0312  15.1244  15.1244  15.1785
    15.1785  15.3840  15.3840  15.4049  15.4049  15.4331  15.4331  15.5359
    15.5400  15.5400  15.5551  15.5826  15.5826  15.6306  15.6306  15.6617
    15.7602  15.7602  15.7803  15.8073  15.8075  15.8075  15.9948  15.9948
    16.0360  16.0360  16.1883  16.1883  16.2057  16.2057  16.2445  16.4147
    16.4147  16.4616  16.4616  16.4833  16.4833  16.7476  16.7476  16.7785
    16.9216  16.9216  16.9717  16.9717  16.9766  17.0386  17.0386  17.0791
    17.1020  17.1020  17.1327  17.1327  17.1543  17.1703  17.1977  17.2863
    17.3464  17.3464  17.4522  17.5599  17.5599  17.8709  17.8709  17.9755
    17.9755  17.9776  18.0530  18.1170  18.1732  18.2824  18.3193  18.3193
    18.3298  18.3298  18.4687  18.4984  18.6535  18.6535  18.7871  18.8067
    18.8067  18.8741  18.8741  19.0772  19.0983  19.0983  19.1973  19.1973
    19.6730  19.7203  19.7203

          k = 0.0556 0.0556 0.1282 ( 39235 PWs)   bands (ev):

   -56.3108 -56.2313 -56.2312 -56.2162 -56.2162 -56.2021 -56.1991 -56.1933
   -56.1933 -56.1893 -56.1710 -56.1709 -56.1655 -56.1654 -56.1392 -56.1392
   -55.8185 -55.8166 -55.7724 -55.7724 -55.7721 -55.7721 -55.7696 -55.7696
   -55.7688 -55.7688 -55.7634 -55.7634 -55.7632 -55.7632 -55.7150 -55.7149
   -26.6332 -26.6325 -26.6325 -26.6273 -26.5957 -26.5957 -26.5296 -26.4256
   -26.4256 -26.4232 -26.4232 -26.3787 -26.3786 -26.3529 -26.3529 -26.3375
   -26.3375 -26.3265 -26.3265 -26.2908 -26.2908 -26.2606 -26.2565 -26.2565
   -26.2486 -26.2212 -26.2212 -26.1927 -26.1927 -26.1517 -26.1261 -26.1261
   -26.1155 -26.1155 -26.0856 -26.0856 -26.0527 -26.0522 -26.0021 -26.0021
   -25.9921 -25.9921 -25.9702 -25.9702 -25.9423 -25.9423 -25.9082 -25.9062
   -25.9062 -25.9022 -25.8922 -25.8868 -25.8857 -25.8857 -25.8796 -25.8718
   -25.7836 -25.7836 -25.7782 -25.7782 -25.7534 -25.7534 -25.7426 -25.7426
   -25.7423 -25.7423 -25.7419 -25.7419 -25.7105 -25.7105 -25.7059 -25.7059
   -25.7043 -25.6697 -25.6697 -25.6692 -25.6641 -25.6640 -25.6585 -25.6535
   -25.6535 -25.6434 -25.6434 -25.6367 -25.6367 -25.6298 -25.6298 -25.6217
   -25.5259 -25.5228 -25.5187 -25.5144 -25.4967 -25.4966 -25.4930 -25.4930
     9.6095  10.8522  10.9971  10.9971  11.2698  11.2826  11.2881  11.2881
    11.2913  11.3401  11.4956  11.4956  11.7343  11.7343  11.8000  11.9139
    11.9139  12.1819  12.1819  12.2006  12.3567  12.3567  12.3910  12.3910
    12.5504  12.5504  12.5942  12.6104  12.6213  12.6213  12.6646  12.6646
    12.8825  12.8825  12.9193  12.9193  12.9430  12.9430  12.9964  12.9964
    13.1279  13.1279  13.2169  13.2169  13.2412  13.3498  13.3498  13.3599
    13.3599  13.6150  13.6150  13.6372  13.6507  13.6507  13.6568  13.6568
    13.7463  13.7463  13.8898  13.9255  13.9255  13.9652  14.0651  14.0824
    14.0824  14.1123  14.1554  14.1554  14.2655  14.2655  14.3711  14.3711
    14.4593  14.4593  14.4811  14.4893  14.6021  14.6232  14.7156  14.7421
    14.7421  14.7930  14.9167  15.0488  15.0488  15.1246  15.1246  15.1749
    15.1749  15.2903  15.2903  15.3959  15.3959  15.4338  15.4338  15.4475
    15.4475  15.5353  15.5545  15.5830  15.5830  15.6859  15.7178  15.7178
    15.7781  15.8174  15.8174  15.8495  15.8495  15.8708  16.0029  16.0029
    16.0525  16.0525  16.1889  16.1889  16.2033  16.2033  16.2435  16.3748
    16.3748  16.4368  16.4368  16.5173  16.5173  16.7578  16.7578  16.7785
    16.8609  16.8609  16.9091  17.0326  17.0326  17.0457  17.0457  17.0537
    17.0806  17.1078  17.1078  17.1576  17.1900  17.1957  17.1957  17.2872
    17.3234  17.3234  17.4533  17.5319  17.5319  17.8605  17.8605  17.9775
    17.9888  17.9888  18.0520  18.0713  18.1164  18.2824  18.3128  18.3128
    18.3233  18.3233  18.4659  18.4761  18.4761  18.5757  18.6664  18.8073
    18.8073  18.9204  18.9204  18.9383  18.9666  18.9666  19.1979  19.1979
    19.9307  19.9307  20.0186

          k = 0.0556 0.0556 0.2137 ( 39248 PWs)   bands (ev):

   -56.3108 -56.2313 -56.2312 -56.2162 -56.2162 -56.2021 -56.1991 -56.1933
   -56.1933 -56.1893 -56.1710 -56.1709 -56.1655 -56.1654 -56.1392 -56.1392
   -55.8184 -55.8166 -55.7724 -55.7724 -55.7722 -55.7722 -55.7696 -55.7695
   -55.7688 -55.7688 -55.7634 -55.7634 -55.7632 -55.7632 -55.7150 -55.7149
   -26.6332 -26.6325 -26.6325 -26.6273 -26.5957 -26.5957 -26.5296 -26.4257
   -26.4256 -26.4232 -26.4232 -26.3787 -26.3786 -26.3529 -26.3529 -26.3376
   -26.3376 -26.3266 -26.3265 -26.2908 -26.2908 -26.2605 -26.2565 -26.2565
   -26.2486 -26.2212 -26.2212 -26.1927 -26.1927 -26.1518 -26.1261 -26.1261
   -26.1155 -26.1155 -26.0856 -26.0856 -26.0527 -26.0522 -26.0022 -26.0021
   -25.9921 -25.9921 -25.9702 -25.9702 -25.9423 -25.9423 -25.9082 -25.9062
   -25.9062 -25.9022 -25.8922 -25.8867 -25.8857 -25.8857 -25.8795 -25.8718
   -25.7835 -25.7835 -25.7782 -25.7782 -25.7534 -25.7534 -25.7427 -25.7427
   -25.7423 -25.7423 -25.7419 -25.7419 -25.7106 -25.7106 -25.7059 -25.7059
   -25.7041 -25.6697 -25.6697 -25.6692 -25.6641 -25.6640 -25.6585 -25.6535
   -25.6535 -25.6434 -25.6434 -25.6367 -25.6367 -25.6297 -25.6297 -25.6219
   -25.5259 -25.5228 -25.5187 -25.5144 -25.4966 -25.4966 -25.4930 -25.4930
     9.6225  10.8459  10.9988  10.9988  11.2731  11.2858  11.2910  11.2914
    11.2914  11.2949  11.4978  11.4978  11.7396  11.7396  11.8172  11.9186
    11.9186  12.1782  12.1782  12.1997  12.3566  12.3566  12.3912  12.3912
    12.5501  12.5501  12.5800  12.5990  12.6077  12.6077  12.6591  12.6591
    12.8835  12.8835  12.9169  12.9170  12.9411  12.9411  12.9859  12.9859
    13.1354  13.1354  13.2149  13.2149  13.2430  13.3486  13.3486  13.3592
    13.3592  13.6126  13.6126  13.6287  13.6491  13.6491  13.6536  13.6536
    13.7410  13.7410  13.8881  13.8951  13.8951  13.9640  14.0592  14.0797
    14.0797  14.1105  14.1135  14.1135  14.3100  14.3100  14.4216  14.4216
    14.4648  14.4648  14.4813  14.4896  14.5998  14.6240  14.7853  14.7941
    14.7941  14.8454  14.9591  15.0760  15.0760  15.1233  15.1233  15.1622
    15.1622  15.2054  15.2054  15.3359  15.3359  15.3886  15.3886  15.4500
    15.4500  15.5344  15.5536  15.5841  15.5841  15.6987  15.7747  15.7872
    15.7872  15.8351  15.8351  15.9344  15.9344  16.0156  16.0156  16.0411
    16.0906  16.0906  16.1919  16.1919  16.1994  16.1994  16.2419  16.3356
    16.3356  16.3949  16.3949  16.5428  16.5428  16.7639  16.7639  16.7737
    16.7737  16.7785  16.8115  16.8931  17.0564  17.0564  17.0828  17.1169
    17.1169  17.1446  17.1446  17.1516  17.1626  17.2886  17.3017  17.3017
    17.3118  17.3118  17.4549  17.4893  17.4893  17.7930  17.8440  17.8440
    17.9772  18.0024  18.0024  18.0505  18.1154  18.2341  18.2341  18.2824
    18.3028  18.3028  18.3154  18.3154  18.4543  18.4615  18.6797  18.6797
    18.6923  18.8082  18.8082  19.1123  19.1123  19.1603  19.1988  19.1988
    19.9771  20.2378  20.2378

          k = 0.0556 0.0556 0.2991 ( 39277 PWs)   bands (ev):

   -56.3108 -56.2313 -56.2312 -56.2162 -56.2162 -56.2021 -56.1991 -56.1933
   -56.1933 -56.1893 -56.1710 -56.1709 -56.1655 -56.1654 -56.1392 -56.1392
   -55.8184 -55.8166 -55.7724 -55.7724 -55.7722 -55.7722 -55.7696 -55.7695
   -55.7688 -55.7688 -55.7634 -55.7634 -55.7633 -55.7633 -55.7150 -55.7149
   -26.6332 -26.6325 -26.6325 -26.6272 -26.5957 -26.5957 -26.5295 -26.4257
   -26.4257 -26.4232 -26.4232 -26.3787 -26.3787 -26.3529 -26.3529 -26.3376
   -26.3376 -26.3266 -26.3266 -26.2908 -26.2908 -26.2606 -26.2565 -26.2565
   -26.2485 -26.2212 -26.2212 -26.1927 -26.1927 -26.1518 -26.1261 -26.1261
   -26.1155 -26.1155 -26.0856 -26.0856 -26.0526 -26.0522 -26.0022 -26.0022
   -25.9922 -25.9922 -25.9702 -25.9702 -25.9424 -25.9424 -25.9082 -25.9062
   -25.9062 -25.9022 -25.8922 -25.8867 -25.8857 -25.8857 -25.8795 -25.8717
   -25.7834 -25.7834 -25.7782 -25.7782 -25.7533 -25.7533 -25.7427 -25.7427
   -25.7424 -25.7424 -25.7419 -25.7419 -25.7107 -25.7107 -25.7059 -25.7059
   -25.7039 -25.6697 -25.6697 -25.6692 -25.6641 -25.6640 -25.6584 -25.6536
   -25.6536 -25.6435 -25.6435 -25.6366 -25.6366 -25.6297 -25.6297 -25.6221
   -25.5259 -25.5228 -25.5187 -25.5144 -25.4966 -25.4966 -25.4930 -25.4930
     9.6343  10.8393  11.0004  11.0004  11.2580  11.2762  11.2885  11.2918
    11.2944  11.2944  11.4997  11.4997  11.7443  11.7443  11.8296  11.9228
    11.9228  12.1748  12.1748  12.1988  12.3565  12.3565  12.3913  12.3913
    12.5497  12.5498  12.5680  12.5886  12.5960  12.5960  12.6542  12.6542
    12.8845  12.8845  12.9151  12.9151  12.9393  12.9393  12.9768  12.9768
    13.1423  13.1423  13.2128  13.2128  13.2446  13.3475  13.3475  13.3587
    13.3587  13.6103  13.6103  13.6218  13.6479  13.6479  13.6508  13.6508
    13.7367  13.7367  13.8724  13.8724  13.8867  13.9630  14.0546  14.0776
    14.0776  14.0843  14.0843  14.1092  14.3470  14.3470  14.4603  14.4603
    14.4686  14.4686  14.4815  14.4898  14.5985  14.6247  14.8426  14.8426
    14.8500  14.8927  14.9906  15.1004  15.1004  15.1045  15.1045  15.1362
    15.1362  15.1801  15.1801  15.2639  15.2639  15.3819  15.3819  15.4554
    15.4554  15.5335  15.5529  15.5855  15.5855  15.7004  15.7717  15.8201
    15.8201  15.8504  15.8504  15.9932  15.9932  16.0269  16.0269  16.1358
    16.1358  16.1955  16.1955  16.2064  16.2064  16.2404  16.3059  16.3059
    16.3147  16.3451  16.3451  16.5559  16.5559  16.6766  16.6766  16.7302
    16.7610  16.7785  16.7879  16.7879  16.9939  17.0660  17.0660  17.0848
    17.1250  17.1250  17.1670  17.2816  17.2816  17.2898  17.2904  17.2904
    17.4451  17.4451  17.4523  17.4523  17.4565  17.5236  17.8290  17.8291
    17.9770  18.0103  18.0103  18.0106  18.0106  18.0492  18.1146  18.2824
    18.2940  18.2940  18.3060  18.3060  18.3913  18.4576  18.4645  18.4645
    18.7961  18.8090  18.8090  19.1994  19.1995  19.2494  19.2494  19.3568
    19.9463  20.3695  20.3695

          k = 0.0556 0.0556-0.3846 ( 39268 PWs)   bands (ev):

   -56.3108 -56.2313 -56.2313 -56.2162 -56.2162 -56.2021 -56.1991 -56.1933
   -56.1933 -56.1893 -56.1710 -56.1709 -56.1655 -56.1654 -56.1392 -56.1392
   -55.8184 -55.8166 -55.7724 -55.7724 -55.7722 -55.7722 -55.7696 -55.7695
   -55.7688 -55.7688 -55.7634 -55.7634 -55.7633 -55.7633 -55.7150 -55.7149
   -26.6331 -26.6325 -26.6325 -26.6272 -26.5957 -26.5957 -26.5295 -26.4257
   -26.4257 -26.4232 -26.4232 -26.3787 -26.3786 -26.3529 -26.3529 -26.3376
   -26.3376 -26.3266 -26.3266 -26.2908 -26.2908 -26.2605 -26.2565 -26.2565
   -26.2485 -26.2212 -26.2212 -26.1927 -26.1927 -26.1519 -26.1261 -26.1261
   -26.1154 -26.1154 -26.0856 -26.0856 -26.0526 -26.0522 -26.0022 -26.0022
   -25.9922 -25.9922 -25.9701 -25.9701 -25.9423 -25.9423 -25.9082 -25.9062
   -25.9062 -25.9022 -25.8922 -25.8868 -25.8857 -25.8857 -25.8795 -25.8717
   -25.7834 -25.7834 -25.7782 -25.7782 -25.7533 -25.7533 -25.7427 -25.7427
   -25.7424 -25.7424 -25.7419 -25.7419 -25.7107 -25.7107 -25.7059 -25.7059
   -25.7039 -25.6697 -25.6697 -25.6692 -25.6640 -25.6640 -25.6584 -25.6536
   -25.6536 -25.6435 -25.6435 -25.6366 -25.6366 -25.6297 -25.6297 -25.6222
   -25.5259 -25.5228 -25.5187 -25.5144 -25.4966 -25.4966 -25.4930 -25.4930
     9.6391  10.8364  11.0010  11.0010  11.2444  11.2775  11.2896  11.2918
    11.2956  11.2956  11.5005  11.5005  11.7462  11.7462  11.8340  11.9245
    11.9245  12.1735  12.1735  12.1985  12.3564  12.3564  12.3914  12.3914
    12.5496  12.5496  12.5634  12.5844  12.5913  12.5913  12.6522  12.6522
    12.8849  12.8849  12.9144  12.9144  12.9386  12.9386  12.9732  12.9732
    13.1450  13.1450  13.2119  13.2119  13.2452  13.3471  13.3471  13.3584
    13.3584  13.6093  13.6093  13.6193  13.6474  13.6474  13.6497  13.6497
    13.7351  13.7351  13.8641  13.8641  13.8861  13.9626  14.0528  14.0739
    14.0740  14.0769  14.0769  14.1087  14.3615  14.3615  14.4698  14.4698
    14.4752  14.4752  14.4816  14.4899  14.5981  14.6250  14.8626  14.8626
    14.8768  14.9118  15.0017  15.0852  15.0852  15.1101  15.1101  15.1332
    15.1333  15.1768  15.1768  15.2375  15.2375  15.3796  15.3796  15.4573
    15.4573  15.5332  15.5525  15.5862  15.5862  15.7001  15.7705  15.8304
    15.8304  15.8544  15.8544  16.0157  16.0157  16.0305  16.0305  16.1517
    16.1517  16.1938  16.1939  16.2292  16.2292  16.2399  16.2941  16.2941
    16.3122  16.3122  16.5597  16.5597  16.6073  16.6416  16.6416  16.7031
    16.7057  16.7193  16.7785  16.7936  16.7936  17.0699  17.0699  17.0856
    17.1282  17.1283  17.1687  17.2871  17.2871  17.2903  17.3605  17.3605
    17.4378  17.4378  17.4482  17.4571  17.5125  17.5125  17.8230  17.8230
    17.9015  17.9015  17.9769  18.0127  18.0127  18.0487  18.1142  18.2824
    18.2906  18.2906  18.3025  18.3025  18.3693  18.3693  18.3770  18.4561
    18.8092  18.8092  18.8383  19.1997  19.1997  19.3078  19.3078  19.4352
    19.9410  20.3316  20.3316

          k = 0.0556 0.1667 0.0427 ( 39239 PWs)   bands (ev):

   -56.3081 -56.2461 -56.2301 -56.2154 -56.2049 -56.2015 -56.2010 -56.1974
   -56.1878 -56.1856 -56.1765 -56.1715 -56.1663 -56.1602 -56.1417 -56.1400
   -55.8169 -55.8152 -55.7813 -55.7808 -55.7724 -55.7721 -55.7703 -55.7702
   -55.7680 -55.7679 -55.7636 -55.7635 -55.7545 -55.7543 -55.7166 -55.7166
   -26.6285 -26.6245 -26.6226 -26.6133 -26.5878 -26.5874 -26.5252 -26.4418
   -26.4390 -26.4373 -26.4342 -26.4306 -26.4119 -26.4040 -26.3496 -26.3426
   -26.3307 -26.3296 -26.2780 -26.2606 -26.2595 -26.2491 -26.2480 -26.2444
   -26.2357 -26.2351 -26.2279 -26.2077 -26.1688 -26.1657 -26.1544 -26.1301
   -26.1059 -26.1034 -26.0607 -26.0606 -26.0456 -26.0389 -26.0136 -26.0096
   -25.9987 -25.9847 -25.9639 -25.9548 -25.9374 -25.9356 -25.9242 -25.9219
   -25.9213 -25.9157 -25.9075 -25.8876 -25.8858 -25.8841 -25.8711 -25.8542
   -25.8148 -25.8146 -25.8115 -25.7985 -25.7874 -25.7782 -25.7768 -25.7674
   -25.7208 -25.7123 -25.7094 -25.7071 -25.6940 -25.6826 -25.6811 -25.6747
   -25.6736 -25.6707 -25.6698 -25.6691 -25.6689 -25.6593 -25.6583 -25.6539
   -25.6535 -25.6451 -25.6396 -25.6348 -25.6269 -25.6255 -25.6251 -25.6249
   -25.5343 -25.5310 -25.5247 -25.5180 -25.5082 -25.5080 -25.4975 -25.4973
     9.6825  10.9224  11.0489  11.0540  11.2911  11.3195  11.3344  11.3464
    11.3494  11.4356  11.4406  11.5281  11.5309  11.7321  11.8571  11.9164
    11.9419  12.2060  12.2441  12.2491  12.2522  12.2619  12.3540  12.3549
    12.3882  12.4371  12.4426  12.5901  12.5912  12.5913  12.6131  12.6557
    12.6602  12.7648  12.8348  12.8882  12.9788  12.9993  13.0078  13.0156
    13.0222  13.0632  13.0853  13.2704  13.3399  13.3723  13.3812  13.4587
    13.4852  13.4967  13.5046  13.5549  13.5884  13.6587  13.6825  13.6968
    13.7929  13.8292  13.9543  14.0091  14.0211  14.0229  14.0342  14.0859
    14.1127  14.1347  14.2544  14.2555  14.3563  14.3702  14.3810  14.3994
    14.4333  14.4344  14.5115  14.5625  14.5644  14.6276  14.6431  14.6858
    14.6955  14.7379  14.7894  14.8629  14.9708  14.9711  15.0219  15.0573
    15.1529  15.2858  15.2914  15.3256  15.3417  15.4502  15.5103  15.5497
    15.5880  15.6210  15.6303  15.6499  15.6775  15.6947  15.6948  15.7210
    15.7315  15.7541  15.7575  15.7912  15.8389  15.8830  15.9197  15.9324
    16.1307  16.1737  16.2016  16.2254  16.3178  16.4082  16.4810  16.4973
    16.5146  16.5305  16.6285  16.6484  16.7139  16.7234  16.7290  16.7327
    16.7725  16.7837  16.7953  16.8592  16.8941  16.9192  17.0326  17.0343
    17.1713  17.1900  17.2383  17.2414  17.2652  17.3139  17.3198  17.4007
    17.4064  17.4727  17.4917  17.5122  17.5268  17.6201  17.7997  17.8366
    17.8478  17.8496  17.9348  17.9418  17.9670  18.2169  18.2882  18.2895
    18.2928  18.3197  18.3470  18.4341  18.4717  18.5058  18.6363  18.6869
    18.8715  18.9859  19.0047  19.0597  19.0906  19.2156  19.2771  19.5182
    19.5688  19.6333  19.6944

          k = 0.0556 0.1667 0.1282 ( 39232 PWs)   bands (ev):

   -56.3081 -56.2461 -56.2301 -56.2154 -56.2049 -56.2015 -56.2010 -56.1974
   -56.1878 -56.1856 -56.1765 -56.1715 -56.1663 -56.1602 -56.1417 -56.1400
   -55.8169 -55.8152 -55.7813 -55.7808 -55.7724 -55.7721 -55.7703 -55.7702
   -55.7679 -55.7679 -55.7636 -55.7635 -55.7545 -55.7543 -55.7166 -55.7166
   -26.6285 -26.6245 -26.6226 -26.6133 -26.5879 -26.5874 -26.5252 -26.4418
   -26.4390 -26.4373 -26.4342 -26.4306 -26.4119 -26.4040 -26.3496 -26.3425
   -26.3307 -26.3296 -26.2779 -26.2606 -26.2595 -26.2491 -26.2480 -26.2444
   -26.2357 -26.2351 -26.2279 -26.2077 -26.1689 -26.1657 -26.1544 -26.1302
   -26.1059 -26.1034 -26.0607 -26.0606 -26.0456 -26.0389 -26.0136 -26.0096
   -25.9987 -25.9848 -25.9639 -25.9547 -25.9374 -25.9356 -25.9242 -25.9219
   -25.9213 -25.9157 -25.9075 -25.8876 -25.8858 -25.8841 -25.8711 -25.8542
   -25.8148 -25.8146 -25.8115 -25.7985 -25.7874 -25.7783 -25.7767 -25.7674
   -25.7208 -25.7123 -25.7094 -25.7071 -25.6938 -25.6827 -25.6811 -25.6746
   -25.6736 -25.6707 -25.6698 -25.6691 -25.6689 -25.6593 -25.6583 -25.6539
   -25.6535 -25.6451 -25.6396 -25.6347 -25.6271 -25.6255 -25.6251 -25.6249
   -25.5343 -25.5310 -25.5247 -25.5180 -25.5082 -25.5080 -25.4975 -25.4973
     9.6907  10.9189  11.0501  11.0551  11.2930  11.3213  11.3365  11.3484
    11.3494  11.4080  11.4398  11.5295  11.5322  11.7343  11.8706  11.9182
    11.9448  12.2057  12.2415  12.2486  12.2499  12.2615  12.3537  12.3553
    12.3846  12.4377  12.4408  12.5808  12.5824  12.5892  12.6088  12.6447
    12.6535  12.7679  12.8315  12.8961  12.9806  12.9992  13.0013  13.0155
    13.0157  13.0627  13.0900  13.2715  13.3385  13.3675  13.3817  13.4630
    13.4830  13.4959  13.4967  13.5506  13.5930  13.6437  13.6722  13.7019
    13.7932  13.8276  13.9544  14.0083  14.0087  14.0221  14.0321  14.0814
    14.1133  14.1346  14.2247  14.2801  14.3604  14.3768  14.3885  14.4138
    14.4411  14.4534  14.5128  14.5589  14.6029  14.6221  14.6695  14.7019
    14.7146  14.7630  14.8570  14.8655  14.9661  14.9893  15.0387  15.0523
    15.1467  15.2071  15.2801  15.2873  15.3209  15.4393  15.4924  15.5879
    15.6026  15.6051  15.6305  15.6375  15.6667  15.6777  15.6949  15.7066
    15.7239  15.7471  15.7525  15.8020  15.9184  15.9231  15.9245  15.9927
    16.1464  16.1890  16.2067  16.2317  16.3170  16.3744  16.4640  16.4886
    16.5318  16.5333  16.5862  16.5975  16.6749  16.6765  16.7178  16.7429
    16.7441  16.7795  16.8502  16.8872  16.9145  16.9462  17.0399  17.0746
    17.1606  17.1960  17.2408  17.2455  17.2616  17.2730  17.3823  17.4063
    17.4082  17.4651  17.4703  17.4840  17.4927  17.6535  17.7905  17.8376
    17.8398  17.8680  17.9533  17.9619  17.9619  18.1146  18.2176  18.2831
    18.2855  18.3133  18.3416  18.4551  18.4669  18.4685  18.5115  18.6877
    18.9175  18.9872  19.0254  19.0354  19.0455  19.0606  19.3893  19.4241
    19.4565  19.5699  19.9031

          k = 0.0556 0.1667 0.2137 ( 39230 PWs)   bands (ev):

   -56.3081 -56.2461 -56.2301 -56.2154 -56.2049 -56.2015 -56.2010 -56.1974
   -56.1878 -56.1856 -56.1765 -56.1715 -56.1663 -56.1602 -56.1417 -56.1400
   -55.8169 -55.8152 -55.7813 -55.7808 -55.7724 -55.7721 -55.7703 -55.7702
   -55.7679 -55.7679 -55.7636 -55.7635 -55.7544 -55.7543 -55.7166 -55.7166
   -26.6285 -26.6244 -26.6226 -26.6132 -26.5879 -26.5874 -26.5251 -26.4418
   -26.4390 -26.4373 -26.4342 -26.4306 -26.4118 -26.4040 -26.3496 -26.3425
   -26.3307 -26.3296 -26.2780 -26.2606 -26.2595 -26.2491 -26.2480 -26.2444
   -26.2357 -26.2351 -26.2279 -26.2078 -26.1690 -26.1657 -26.1543 -26.1302
   -26.1059 -26.1034 -26.0607 -26.0606 -26.0456 -26.0389 -26.0136 -26.0097
   -25.9988 -25.9848 -25.9639 -25.9547 -25.9374 -25.9356 -25.9242 -25.9219
   -25.9213 -25.9157 -25.9074 -25.8876 -25.8858 -25.8841 -25.8710 -25.8542
   -25.8147 -25.8146 -25.8114 -25.7985 -25.7873 -25.7783 -25.7767 -25.7675
   -25.7207 -25.7124 -25.7095 -25.7071 -25.6936 -25.6827 -25.6812 -25.6746
   -25.6737 -25.6707 -25.6698 -25.6692 -25.6689 -25.6593 -25.6584 -25.6539
   -25.6535 -25.6450 -25.6397 -25.6347 -25.6273 -25.6255 -25.6251 -25.6248
   -25.5343 -25.5310 -25.5247 -25.5180 -25.5082 -25.5080 -25.4975 -25.4973
     9.7035  10.9126  11.0520  11.0567  11.2961  11.3240  11.3397  11.3488
    11.3514  11.3635  11.4462  11.5316  11.5342  11.7376  11.8876  11.9209
    11.9494  12.2051  12.2374  12.2463  12.2476  12.2606  12.3533  12.3559
    12.3791  12.4382  12.4385  12.5666  12.5689  12.5880  12.6004  12.6300
    12.6413  12.7727  12.8270  12.9086  12.9833  12.9914  12.9991  13.0053
    13.0156  13.0624  13.0960  13.2733  13.3363  13.3597  13.3826  13.4682
    13.4796  13.4856  13.4951  13.5445  13.6023  13.6217  13.6601  13.7055
    13.7938  13.8252  13.9544  13.9891  14.0072  14.0236  14.0293  14.0749
    14.1142  14.1346  14.1904  14.3139  14.3197  14.4047  14.4155  14.4512
    14.4521  14.4747  14.5144  14.5532  14.6190  14.6549  14.7206  14.7316
    14.7463  14.8021  14.8692  14.9570  14.9572  15.0181  15.0402  15.0648
    15.1151  15.1355  15.2270  15.2897  15.3094  15.3709  15.5221  15.5397
    15.5488  15.5880  15.6310  15.6440  15.6782  15.6935  15.6956  15.7008
    15.7232  15.7492  15.7575  15.8189  15.9344  15.9781  16.0458  16.0493
    16.1683  16.2094  16.2306  16.2375  16.3166  16.3452  16.4347  16.4671
    16.4920  16.5296  16.5514  16.5816  16.5919  16.6015  16.6525  16.7229
    16.7585  16.7653  16.8636  16.9366  16.9692  17.0117  17.0513  17.1342
    17.1592  17.1721  17.2065  17.2518  17.2752  17.3351  17.4082  17.4110
    17.4265  17.4414  17.4540  17.4664  17.5092  17.7041  17.7763  17.8260
    17.8477  17.8821  17.8829  17.9489  17.9740  17.9830  18.2191  18.2194
    18.2752  18.2938  18.3035  18.3327  18.4619  18.4969  18.5195  18.6527
    18.6842  18.6888  18.9892  19.0618  19.0949  19.2187  19.2189  19.5629
    19.6160  19.7237  20.0162

          k = 0.0556 0.1667 0.2991 ( 39237 PWs)   bands (ev):

   -56.3081 -56.2461 -56.2301 -56.2154 -56.2049 -56.2015 -56.2010 -56.1974
   -56.1878 -56.1856 -56.1765 -56.1715 -56.1663 -56.1602 -56.1417 -56.1400
   -55.8169 -55.8152 -55.7812 -55.7808 -55.7724 -55.7721 -55.7703 -55.7702
   -55.7679 -55.7679 -55.7636 -55.7635 -55.7544 -55.7544 -55.7166 -55.7166
   -26.6285 -26.6245 -26.6225 -26.6132 -26.5879 -26.5874 -26.5251 -26.4418
   -26.4390 -26.4373 -26.4342 -26.4306 -26.4119 -26.4040 -26.3496 -26.3426
   -26.3307 -26.3296 -26.2780 -26.2606 -26.2594 -26.2491 -26.2480 -26.2445
   -26.2357 -26.2351 -26.2279 -26.2078 -26.1690 -26.1657 -26.1543 -26.1301
   -26.1059 -26.1034 -26.0607 -26.0606 -26.0457 -26.0389 -26.0136 -26.0097
   -25.9988 -25.9848 -25.9639 -25.9547 -25.9375 -25.9356 -25.9242 -25.9218
   -25.9213 -25.9156 -25.9074 -25.8876 -25.8858 -25.8841 -25.8710 -25.8542
   -25.8147 -25.8146 -25.8114 -25.7985 -25.7873 -25.7784 -25.7767 -25.7675
   -25.7207 -25.7125 -25.7095 -25.7071 -25.6934 -25.6828 -25.6813 -25.6746
   -25.6737 -25.6707 -25.6698 -25.6692 -25.6689 -25.6592 -25.6584 -25.6540
   -25.6535 -25.6450 -25.6397 -25.6347 -25.6275 -25.6255 -25.6250 -25.6248
   -25.5343 -25.5310 -25.5247 -25.5180 -25.5082 -25.5079 -25.4975 -25.4973
     9.7151  10.9062  11.0536  11.0581  11.2990  11.3256  11.3262  11.3427
    11.3507  11.3540  11.4521  11.5335  11.5359  11.7405  11.8998  11.9234
    11.9534  12.2045  12.2338  12.2431  12.2469  12.2596  12.3528  12.3564
    12.3743  12.4359  12.4392  12.5553  12.5572  12.5869  12.5919  12.6180
    12.6298  12.7768  12.8237  12.9203  12.9828  12.9857  12.9964  12.9990
    13.0152  13.0624  13.1004  13.2748  13.3344  13.3525  13.3839  13.4714
    13.4765  13.4768  13.4951  13.5397  13.6027  13.6127  13.6502  13.7072
    13.7946  13.8233  13.9543  13.9734  14.0061  14.0249  14.0270  14.0697
    14.1150  14.1348  14.1657  14.2783  14.3555  14.4257  14.4389  14.4587
    14.4815  14.4875  14.5156  14.5499  14.6180  14.7023  14.7632  14.7757
    14.7764  14.8372  14.8705  14.9467  15.0233  15.0438  15.0477  15.0491
    15.0881  15.1249  15.1988  15.2818  15.2950  15.3365  15.4638  15.4972
    15.5372  15.5882  15.6322  15.6694  15.6788  15.6869  15.6972  15.7177
    15.7194  15.7462  15.7652  15.8338  15.9458  16.0113  16.0809  16.1862
    16.2068  16.2081  16.2375  16.2969  16.3210  16.3250  16.4087  16.4200
    16.4581  16.4999  16.5006  16.5238  16.5377  16.5770  16.6134  16.7103
    16.7262  16.7723  16.8294  16.9791  16.9866  17.0611  17.1030  17.1387
    17.1401  17.2102  17.2574  17.2812  17.2818  17.3949  17.4045  17.4120
    17.4120  17.4290  17.4379  17.4623  17.6458  17.6577  17.7637  17.7714
    17.8126  17.8576  17.8911  17.9179  17.9816  18.0020  18.0144  18.2250
    18.2686  18.2773  18.2947  18.3247  18.3718  18.4690  18.4772  18.5259
    18.5407  18.6896  18.9908  19.0138  19.0629  19.1575  19.3064  19.7197
    19.7681  19.9914  20.0358

          k = 0.0556 0.1667-0.3846 ( 39228 PWs)   bands (ev):

   -56.3081 -56.2461 -56.2301 -56.2154 -56.2049 -56.2015 -56.2010 -56.1974
   -56.1878 -56.1856 -56.1765 -56.1715 -56.1663 -56.1602 -56.1417 -56.1400
   -55.8169 -55.8152 -55.7813 -55.7808 -55.7724 -55.7721 -55.7703 -55.7702
   -55.7679 -55.7679 -55.7636 -55.7635 -55.7544 -55.7544 -55.7166 -55.7166
   -26.6285 -26.6244 -26.6225 -26.6132 -26.5879 -26.5874 -26.5251 -26.4418
   -26.4390 -26.4374 -26.4342 -26.4306 -26.4118 -26.4040 -26.3496 -26.3426
   -26.3307 -26.3297 -26.2780 -26.2605 -26.2594 -26.2491 -26.2480 -26.2444
   -26.2357 -26.2351 -26.2279 -26.2078 -26.1690 -26.1657 -26.1544 -26.1301
   -26.1059 -26.1034 -26.0607 -26.0606 -26.0457 -26.0389 -26.0136 -26.0097
   -25.9988 -25.9848 -25.9639 -25.9547 -25.9375 -25.9356 -25.9242 -25.9218
   -25.9213 -25.9156 -25.9074 -25.8876 -25.8858 -25.8841 -25.8710 -25.8541
   -25.8147 -25.8146 -25.8114 -25.7985 -25.7873 -25.7784 -25.7767 -25.7675
   -25.7207 -25.7125 -25.7095 -25.7071 -25.6934 -25.6828 -25.6813 -25.6745
   -25.6737 -25.6707 -25.6698 -25.6692 -25.6689 -25.6592 -25.6584 -25.6540
   -25.6534 -25.6449 -25.6397 -25.6347 -25.6276 -25.6255 -25.6250 -25.6248
   -25.5343 -25.5310 -25.5247 -25.5180 -25.5082 -25.5079 -25.4975 -25.4973
     9.7198  10.9034  11.0542  11.0587  11.3001  11.3123  11.3271  11.3439
    11.3506  11.3550  11.4544  11.5342  11.5366  11.7417  11.9042  11.9243
    11.9550  12.2042  12.2324  12.2418  12.2465  12.2592  12.3526  12.3566
    12.3724  12.4350  12.4395  12.5511  12.5526  12.5865  12.5884  12.6135
    12.6252  12.7785  12.8225  12.9251  12.9794  12.9867  12.9929  12.9989
    13.0149  13.0624  13.1020  13.2754  13.3336  13.3495  13.3844  13.4724
    13.4735  13.4753  13.4953  13.5379  13.5953  13.6174  13.6463  13.7077
    13.7949  13.8226  13.9543  13.9675  14.0057  14.0254  14.0262  14.0678
    14.1152  14.1349  14.1568  14.2649  14.3700  14.4331  14.4481  14.4614
    14.4914  14.4926  14.5161  14.5489  14.6178  14.7240  14.7772  14.7889
    14.8000  14.8512  14.8691  14.9410  15.0147  15.0231  15.0542  15.0886
    15.0974  15.1210  15.1907  15.2677  15.2953  15.3293  15.4353  15.4736
    15.5416  15.5883  15.6329  15.6790  15.6796  15.6848  15.6981  15.7134
    15.7252  15.7450  15.7680  15.8396  15.9509  16.0204  16.0938  16.1931
    16.2044  16.2357  16.2841  16.3175  16.3392  16.3510  16.3754  16.4161
    16.4569  16.4593  16.4674  16.5126  16.5209  16.5503  16.6238  16.6403
    16.7271  16.7778  16.8185  16.9814  17.0007  17.0651  17.0905  17.1296
    17.2141  17.2309  17.2597  17.2844  17.3500  17.3830  17.3901  17.4123
    17.4141  17.4213  17.4605  17.4951  17.5327  17.7090  17.7588  17.8070
    17.8373  17.8614  17.8676  17.8936  17.9133  17.9836  18.0087  18.2469
    18.2608  18.2669  18.2736  18.2912  18.3215  18.3864  18.4637  18.5283
    18.5598  18.6899  18.9283  18.9915  19.0632  19.1852  19.3182  19.7747
    19.8715  19.9980  20.2075

          k = 0.0556 0.2778 0.0427 ( 39223 PWs)   bands (ev):

   -56.3029 -56.2604 -56.2279 -56.2138 -56.2106 -56.2014 -56.1988 -56.1875
   -56.1826 -56.1821 -56.1819 -56.1726 -56.1680 -56.1553 -56.1467 -56.1416
   -55.8140 -55.8123 -55.7896 -55.7889 -55.7722 -55.7720 -55.7709 -55.7708
   -55.7671 -55.7670 -55.7640 -55.7639 -55.7458 -55.7458 -55.7199 -55.7198
   -26.6153 -26.6064 -26.6040 -26.5913 -26.5725 -26.5713 -26.5165 -26.4797
   -26.4728 -26.4636 -26.4579 -26.4552 -26.4536 -26.4499 -26.3611 -26.3504
   -26.3171 -26.3053 -26.2583 -26.2574 -26.2386 -26.2357 -26.2354 -26.2350
   -26.2238 -26.2188 -26.2068 -26.2061 -26.2021 -26.1943 -26.1524 -26.1111
   -26.0900 -26.0770 -26.0699 -26.0271 -26.0261 -26.0208 -26.0180 -26.0076
   -26.0063 -25.9814 -25.9517 -25.9480 -25.9446 -25.9409 -25.9394 -25.9327
   -25.9295 -25.9267 -25.9207 -25.8969 -25.8863 -25.8817 -25.8572 -25.8497
   -25.8421 -25.8383 -25.8381 -25.8199 -25.8156 -25.8135 -25.8094 -25.7863
   -25.6917 -25.6868 -25.6790 -25.6785 -25.6759 -25.6759 -25.6726 -25.6697
   -25.6676 -25.6676 -25.6608 -25.6557 -25.6542 -25.6535 -25.6530 -25.6498
   -25.6485 -25.6412 -25.6367 -25.6276 -25.6199 -25.6187 -25.6086 -25.6024
   -25.5508 -25.5485 -25.5313 -25.5289 -25.5275 -25.5263 -25.5099 -25.5092
     9.8424  11.0525  11.0801  11.1521  11.1673  11.3532  11.4024  11.4228
    11.4474  11.4653  11.5716  11.5953  11.6064  11.7150  11.8432  11.8976
    11.9944  11.9952  12.0201  12.1310  12.1590  12.1623  12.3186  12.3441
    12.3613  12.3826  12.4093  12.4945  12.5073  12.5295  12.5948  12.6103
    12.6453  12.6770  12.6971  12.7070  12.9075  12.9542  12.9878  13.0064
    13.0179  13.0587  13.1956  13.2324  13.2787  13.2979  13.3238  13.3291
    13.3395  13.3753  13.4466  13.5714  13.6216  13.7295  13.8210  13.8337
    13.8546  13.8963  13.9344  13.9601  14.0939  14.1281  14.1302  14.1325
    14.1400  14.2601  14.2942  14.3273  14.3519  14.3775  14.4392  14.5034
    14.5159  14.5467  14.5472  14.5603  14.6129  14.6432  14.6535  14.6707
    14.6800  14.7171  14.7339  14.7395  14.8626  14.9374  14.9607  14.9973
    15.0915  15.1197  15.1611  15.1863  15.2617  15.2917  15.4941  15.5390
    15.6349  15.6726  15.6872  15.7135  15.7345  15.7498  15.7541  15.7560
    15.7696  15.7993  15.8372  15.8753  15.9565  16.0344  16.0438  16.1966
    16.2129  16.2614  16.3222  16.3337  16.3507  16.4222  16.4666  16.4734
    16.5248  16.5779  16.5783  16.6046  16.6430  16.6573  16.6912  16.7319
    16.8397  16.8588  16.8604  16.8827  16.9091  17.0470  17.0766  17.1577
    17.2358  17.2588  17.3183  17.3638  17.3883  17.3904  17.3957  17.4000
    17.4083  17.4625  17.4873  17.5633  17.5729  17.5746  17.6513  17.7109
    17.7984  17.8488  17.8658  17.8844  17.9009  18.0029  18.0101  18.0751
    18.2270  18.2401  18.3408  18.3654  18.4577  18.4694  18.4919  18.6054
    18.7185  18.7556  18.8391  18.8990  19.0739  19.0789  19.2530  19.5330
    19.6424  19.6697  20.0107

          k = 0.0556 0.2778 0.1282 ( 39234 PWs)   bands (ev):

   -56.3029 -56.2604 -56.2279 -56.2138 -56.2106 -56.2014 -56.1988 -56.1875
   -56.1826 -56.1821 -56.1819 -56.1726 -56.1680 -56.1553 -56.1467 -56.1416
   -55.8140 -55.8123 -55.7896 -55.7889 -55.7722 -55.7720 -55.7709 -55.7708
   -55.7671 -55.7670 -55.7640 -55.7639 -55.7458 -55.7458 -55.7199 -55.7198
   -26.6152 -26.6064 -26.6039 -26.5913 -26.5725 -26.5713 -26.5165 -26.4797
   -26.4728 -26.4636 -26.4579 -26.4553 -26.4536 -26.4499 -26.3611 -26.3504
   -26.3171 -26.3053 -26.2583 -26.2574 -26.2386 -26.2358 -26.2354 -26.2349
   -26.2238 -26.2188 -26.2068 -26.2061 -26.2021 -26.1944 -26.1524 -26.1111
   -26.0900 -26.0770 -26.0699 -26.0271 -26.0261 -26.0208 -26.0180 -26.0076
   -26.0063 -25.9815 -25.9517 -25.9480 -25.9446 -25.9409 -25.9394 -25.9327
   -25.9295 -25.9267 -25.9208 -25.8969 -25.8863 -25.8817 -25.8572 -25.8497
   -25.8421 -25.8382 -25.8381 -25.8199 -25.8157 -25.8135 -25.8094 -25.7863
   -25.6918 -25.6868 -25.6791 -25.6783 -25.6760 -25.6759 -25.6726 -25.6697
   -25.6676 -25.6676 -25.6608 -25.6557 -25.6542 -25.6535 -25.6530 -25.6498
   -25.6485 -25.6411 -25.6368 -25.6276 -25.6199 -25.6187 -25.6086 -25.6024
   -25.5508 -25.5485 -25.5313 -25.5289 -25.5275 -25.5263 -25.5099 -25.5092
     9.8502  11.0492  11.0852  11.1533  11.1682  11.3547  11.4038  11.4245
    11.4491  11.4653  11.5397  11.5966  11.6074  11.7153  11.8458  11.8976
    11.9941  12.0083  12.0186  12.1285  12.1597  12.1611  12.3179  12.3437
    12.3582  12.3804  12.4010  12.4842  12.5081  12.5285  12.5832  12.6106
    12.6507  12.6683  12.6895  12.7166  12.9123  12.9538  12.9831  13.0060
    13.0121  13.0524  13.1986  13.2323  13.2770  13.2953  13.3248  13.3253
    13.3307  13.3660  13.4487  13.5685  13.6198  13.7331  13.8180  13.8558
    13.8585  13.9057  13.9321  13.9573  14.0932  14.1224  14.1290  14.1330
    14.1437  14.2856  14.3311  14.3383  14.3514  14.3804  14.4439  14.4983
    14.5225  14.5360  14.5482  14.5625  14.6026  14.6426  14.6827  14.6965
    14.7243  14.7376  14.7391  14.7402  14.8825  14.9331  14.9494  15.0126
    15.0917  15.1195  15.1691  15.1828  15.2077  15.3021  15.4569  15.5580
    15.5876  15.6423  15.6723  15.7117  15.7237  15.7325  15.7529  15.7588
    15.7646  15.8005  15.8740  15.8850  15.8972  16.0365  16.0635  16.2155
    16.2656  16.2662  16.2805  16.3105  16.3345  16.3355  16.4568  16.4733
    16.4789  16.5479  16.5676  16.6308  16.6337  16.7024  16.7190  16.7214
    16.8089  16.8845  16.9082  16.9209  16.9746  17.0364  17.0829  17.1996
    17.2648  17.2759  17.2883  17.3413  17.3716  17.3924  17.4035  17.4264
    17.4285  17.4648  17.4899  17.5643  17.5703  17.6442  17.6736  17.6807
    17.7937  17.8095  17.8347  17.8965  17.8987  17.9105  18.0212  18.0849
    18.2203  18.2375  18.3352  18.3616  18.4512  18.4546  18.4706  18.4750
    18.7191  18.8405  18.9166  18.9366  18.9585  19.0518  19.3834  19.5285
    19.5422  19.7872  19.8479

          k = 0.0556 0.2778 0.2137 ( 39225 PWs)   bands (ev):

   -56.3029 -56.2604 -56.2279 -56.2138 -56.2106 -56.2014 -56.1988 -56.1875
   -56.1826 -56.1821 -56.1819 -56.1726 -56.1680 -56.1553 -56.1467 -56.1416
   -55.8140 -55.8124 -55.7896 -55.7890 -55.7722 -55.7720 -55.7709 -55.7708
   -55.7671 -55.7670 -55.7640 -55.7639 -55.7458 -55.7458 -55.7199 -55.7198
   -26.6152 -26.6064 -26.6039 -26.5913 -26.5725 -26.5713 -26.5164 -26.4797
   -26.4728 -26.4636 -26.4579 -26.4553 -26.4536 -26.4499 -26.3611 -26.3504
   -26.3171 -26.3054 -26.2583 -26.2574 -26.2386 -26.2358 -26.2354 -26.2349
   -26.2238 -26.2188 -26.2068 -26.2061 -26.2021 -26.1944 -26.1524 -26.1111
   -26.0900 -26.0770 -26.0699 -26.0271 -26.0261 -26.0209 -26.0180 -26.0076
   -26.0063 -25.9815 -25.9516 -25.9480 -25.9446 -25.9409 -25.9393 -25.9327
   -25.9295 -25.9267 -25.9208 -25.8969 -25.8863 -25.8817 -25.8572 -25.8497
   -25.8420 -25.8382 -25.8381 -25.8198 -25.8157 -25.8136 -25.8094 -25.7863
   -25.6920 -25.6867 -25.6791 -25.6781 -25.6760 -25.6759 -25.6727 -25.6697
   -25.6677 -25.6676 -25.6608 -25.6557 -25.6541 -25.6534 -25.6530 -25.6497
   -25.6485 -25.6411 -25.6371 -25.6276 -25.6199 -25.6187 -25.6086 -25.6024
   -25.5508 -25.5485 -25.5313 -25.5289 -25.5275 -25.5263 -25.5099 -25.5092
     9.8627  11.0433  11.0932  11.1553  11.1696  11.3571  11.4057  11.4273
    11.4515  11.4648  11.4959  11.5986  11.6090  11.7158  11.8499  11.8976
    11.9935  12.0160  12.0247  12.1247  12.1592  12.1608  12.3168  12.3430
    12.3536  12.3770  12.3853  12.4729  12.5092  12.5271  12.5705  12.6061
    12.6571  12.6588  12.6761  12.7320  12.9186  12.9528  12.9749  13.0034
    13.0053  13.0428  13.2027  13.2319  13.2746  13.2918  13.3183  13.3201
    13.3263  13.3517  13.4522  13.5642  13.6171  13.7411  13.8107  13.8636
    13.8928  13.9207  13.9287  13.9535  14.0921  14.1102  14.1264  14.1398
    14.1468  14.3166  14.3252  14.3828  14.3864  14.3918  14.4507  14.4947
    14.5118  14.5322  14.5501  14.5660  14.6001  14.6431  14.7024  14.7226
    14.7350  14.7392  14.7522  14.8716  14.9137  14.9271  14.9335  15.0363
    15.0893  15.1197  15.1464  15.1771  15.1856  15.3222  15.4022  15.4943
    15.5710  15.5755  15.6721  15.7051  15.7081  15.7294  15.7468  15.7566
    15.7738  15.7772  15.8097  15.9068  15.9392  16.0324  16.0828  16.1829
    16.2190  16.2348  16.2663  16.2928  16.3272  16.3739  16.4200  16.4583
    16.4697  16.4999  16.5500  16.6183  16.6230  16.7147  16.7183  16.7715
    16.8514  16.9052  16.9124  16.9746  17.0281  17.0928  17.1336  17.2681
    17.2701  17.2837  17.3107  17.3297  17.3402  17.3960  17.3979  17.4468
    17.4683  17.4706  17.4927  17.5666  17.5676  17.6200  17.6341  17.6680
    17.7597  17.7843  17.8280  17.9061  17.9220  17.9301  18.0364  18.1131
    18.1859  18.2338  18.2704  18.3268  18.3541  18.4500  18.4663  18.4722
    18.7002  18.7201  18.8424  18.9471  19.0400  19.0809  19.2443  19.5224
    19.6393  19.8544  20.0034

          k = 0.0556 0.2778 0.2991 ( 39226 PWs)   bands (ev):

   -56.3029 -56.2604 -56.2279 -56.2138 -56.2106 -56.2014 -56.1988 -56.1875
   -56.1826 -56.1821 -56.1819 -56.1726 -56.1680 -56.1553 -56.1467 -56.1416
   -55.8140 -55.8124 -55.7896 -55.7890 -55.7722 -55.7720 -55.7709 -55.7708
   -55.7670 -55.7670 -55.7640 -55.7639 -55.7458 -55.7458 -55.7199 -55.7198
   -26.6152 -26.6064 -26.6039 -26.5913 -26.5725 -26.5713 -26.5164 -26.4797
   -26.4729 -26.4637 -26.4578 -26.4553 -26.4536 -26.4499 -26.3610 -26.3503
   -26.3171 -26.3054 -26.2583 -26.2574 -26.2386 -26.2358 -26.2354 -26.2349
   -26.2238 -26.2188 -26.2068 -26.2061 -26.2021 -26.1945 -26.1524 -26.1111
   -26.0900 -26.0770 -26.0700 -26.0272 -26.0261 -26.0209 -26.0180 -26.0076
   -26.0063 -25.9815 -25.9516 -25.9480 -25.9446 -25.9409 -25.9393 -25.9327
   -25.9294 -25.9267 -25.9208 -25.8969 -25.8863 -25.8817 -25.8571 -25.8497
   -25.8420 -25.8382 -25.8381 -25.8198 -25.8157 -25.8136 -25.8094 -25.7864
   -25.6921 -25.6866 -25.6792 -25.6780 -25.6760 -25.6758 -25.6727 -25.6696
   -25.6678 -25.6676 -25.6609 -25.6557 -25.6540 -25.6534 -25.6530 -25.6497
   -25.6485 -25.6411 -25.6373 -25.6276 -25.6199 -25.6187 -25.6086 -25.6024
   -25.5508 -25.5485 -25.5313 -25.5290 -25.5275 -25.5263 -25.5099 -25.5091
     9.8739  11.0372  11.1004  11.1571  11.1708  11.3593  11.4073  11.4299
    11.4535  11.4557  11.4695  11.6004  11.6104  11.7163  11.8536  11.8976
    11.9929  12.0133  12.0365  12.1215  12.1575  12.1618  12.3158  12.3424
    12.3495  12.3694  12.3741  12.4665  12.5102  12.5260  12.5616  12.5998
    12.6502  12.6617  12.6658  12.7466  12.9232  12.9517  12.9665  12.9958
    13.0046  13.0344  13.2059  13.2315  13.2726  13.2897  13.3084  13.3160
    13.3277  13.3386  13.4558  13.5607  13.6149  13.7533  13.7988  13.8672
    13.9258  13.9298  13.9349  13.9505  14.0910  14.0994  14.1249  14.1451
    14.1490  14.2965  14.3605  14.3875  14.4263  14.4331  14.4561  14.4826
    14.4932  14.5405  14.5514  14.5693  14.5997  14.6450  14.7209  14.7328
    14.7461  14.7585  14.7657  14.9207  14.9227  14.9419  15.0330  15.0574
    15.0856  15.1048  15.1206  15.1715  15.2064  15.3497  15.3524  15.3631
    15.5023  15.5857  15.6721  15.6961  15.7009  15.7047  15.7270  15.7388
    15.7496  15.7877  15.8206  15.9320  15.9559  16.0297  16.0959  16.1029
    16.1177  16.2471  16.2614  16.2759  16.3136  16.3838  16.4522  16.4582
    16.4637  16.5057  16.5330  16.6026  16.6275  16.7156  16.7217  16.7319
    16.9015  16.9284  16.9588  17.0263  17.0510  17.1017  17.2645  17.2814
    17.2876  17.2941  17.3275  17.3352  17.3893  17.3987  17.4073  17.4162
    17.4485  17.4715  17.4913  17.4966  17.5694  17.5702  17.6258  17.6748
    17.7132  17.7739  17.9087  17.9357  17.9531  17.9735  18.0374  18.0485
    18.1836  18.2276  18.2315  18.3199  18.3470  18.4469  18.4677  18.4735
    18.5126  18.7102  18.7209  18.8439  18.9393  19.0432  19.4970  19.5418
    19.6574  19.9306  20.2337

          k = 0.0556 0.2778-0.3846 ( 39200 PWs)   bands (ev):

   -56.3029 -56.2604 -56.2279 -56.2138 -56.2106 -56.2014 -56.1988 -56.1875
   -56.1826 -56.1821 -56.1819 -56.1726 -56.1680 -56.1553 -56.1467 -56.1416
   -55.8140 -55.8124 -55.7896 -55.7890 -55.7722 -55.7720 -55.7709 -55.7708
   -55.7670 -55.7670 -55.7640 -55.7639 -55.7458 -55.7458 -55.7199 -55.7198
   -26.6152 -26.6064 -26.6039 -26.5913 -26.5725 -26.5713 -26.5164 -26.4797
   -26.4728 -26.4637 -26.4578 -26.4553 -26.4536 -26.4499 -26.3610 -26.3503
   -26.3171 -26.3054 -26.2583 -26.2574 -26.2386 -26.2357 -26.2354 -26.2349
   -26.2238 -26.2188 -26.2068 -26.2061 -26.2021 -26.1945 -26.1523 -26.1110
   -26.0900 -26.0770 -26.0700 -26.0271 -26.0261 -26.0209 -26.0180 -26.0076
   -26.0063 -25.9815 -25.9516 -25.9480 -25.9445 -25.9409 -25.9393 -25.9327
   -25.9294 -25.9266 -25.9207 -25.8969 -25.8863 -25.8817 -25.8571 -25.8497
   -25.8420 -25.8382 -25.8381 -25.8198 -25.8157 -25.8136 -25.8094 -25.7864
   -25.6922 -25.6866 -25.6792 -25.6779 -25.6761 -25.6758 -25.6727 -25.6696
   -25.6679 -25.6675 -25.6609 -25.6556 -25.6540 -25.6534 -25.6530 -25.6497
   -25.6485 -25.6411 -25.6373 -25.6275 -25.6199 -25.6187 -25.6086 -25.6024
   -25.5508 -25.5485 -25.5313 -25.5290 -25.5275 -25.5263 -25.5099 -25.5091
     9.8785  11.0345  11.1033  11.1578  11.1713  11.3603  11.4079  11.4310
    11.4442  11.4543  11.4679  11.6011  11.6110  11.7165  11.8551  11.8977
    11.9927  12.0122  12.0407  12.1202  12.1569  12.1622  12.3154  12.3422
    12.3479  12.3629  12.3729  12.4647  12.5105  12.5256  12.5585  12.5969
    12.6508  12.6528  12.6687  12.7528  12.9249  12.9512  12.9628  12.9928
    13.0043  13.0312  13.2071  13.2313  13.2718  13.2893  13.3047  13.3145
    13.3282  13.3331  13.4573  13.5594  13.6141  13.7621  13.7899  13.8685
    13.9247  13.9409  13.9458  13.9494  14.0905  14.0951  14.1244  14.1471
    14.1497  14.2882  14.3744  14.3890  14.4409  14.4507  14.4581  14.4687
    14.4929  14.5437  14.5519  14.5706  14.5997  14.6461  14.7286  14.7319
    14.7554  14.7685  14.7721  14.9159  14.9212  14.9532  15.0658  15.0839
    15.0905  15.1212  15.1692  15.1843  15.2182  15.2233  15.3300  15.3684
    15.4683  15.5889  15.6719  15.6721  15.6936  15.7033  15.7263  15.7347
    15.7468  15.7933  15.8253  15.9437  15.9598  16.0288  16.0724  16.0765
    16.1007  16.2512  16.2585  16.2683  16.3073  16.3693  16.4421  16.4513
    16.4607  16.5260  16.5913  16.5957  16.6306  16.6725  16.7173  16.7372
    16.8998  16.9327  16.9980  17.0268  17.1031  17.1215  17.2638  17.2798
    17.2799  17.2985  17.3472  17.3633  17.3756  17.3827  17.3866  17.4439
    17.4465  17.4728  17.4872  17.4978  17.5724  17.5730  17.6228  17.6803
    17.6928  17.7693  17.9092  17.9399  17.9576  17.9631  18.0355  18.0529
    18.2228  18.2317  18.2706  18.3176  18.3442  18.4328  18.4558  18.4699
    18.4739  18.5025  18.7212  18.8445  18.9340  19.0471  19.4856  19.5777
    19.7063  20.0824  20.3486

          k = 0.0556 0.3889 0.0427 ( 39225 PWs)   bands (ev):

   -56.2952 -56.2736 -56.2247 -56.2159 -56.2115 -56.2051 -56.1957 -56.1871
   -56.1790 -56.1779 -56.1747 -56.1742 -56.1706 -56.1540 -56.1509 -56.1440
   -55.8096 -55.8082 -55.7973 -55.7963 -55.7720 -55.7719 -55.7714 -55.7713
   -55.7662 -55.7661 -55.7646 -55.7645 -55.7378 -55.7378 -55.7246 -55.7246
   -26.5930 -26.5796 -26.5776 -26.5629 -26.5501 -26.5482 -26.5242 -26.5091
   -26.5041 -26.5028 -26.4955 -26.4883 -26.4874 -26.4714 -26.3651 -26.3581
   -26.2974 -26.2791 -26.2542 -26.2520 -26.2437 -26.2422 -26.2361 -26.2226
   -26.2222 -26.2159 -26.2155 -26.2006 -26.1857 -26.1763 -26.1668 -26.1007
   -26.0719 -26.0661 -26.0396 -26.0343 -26.0169 -26.0048 -26.0040 -25.9944
   -25.9834 -25.9784 -25.9752 -25.9728 -25.9708 -25.9651 -25.9455 -25.9337
   -25.9165 -25.9117 -25.9087 -25.8965 -25.8833 -25.8821 -25.8765 -25.8644
   -25.8628 -25.8516 -25.8466 -25.8450 -25.8397 -25.8247 -25.8243 -25.8004
   -25.6768 -25.6754 -25.6737 -25.6714 -25.6686 -25.6685 -25.6659 -25.6632
   -25.6625 -25.6607 -25.6589 -25.6574 -25.6538 -25.6493 -25.6478 -25.6475
   -25.6289 -25.6220 -25.6206 -25.6078 -25.5967 -25.5880 -25.5808 -25.5790
   -25.5769 -25.5683 -25.5537 -25.5506 -25.5466 -25.5426 -25.5300 -25.5279
    10.0749  10.7132  11.2402  11.2989  11.3299  11.4466  11.5280  11.5443
    11.5857  11.6375  11.6553  11.6711  11.6944  11.7229  11.7434  11.7574
    11.7605  11.8168  11.8963  11.9522  11.9797  12.0809  12.1340  12.1923
    12.2286  12.4855  12.5304  12.5659  12.5856  12.5986  12.6044  12.6128
    12.6140  12.6674  12.6796  12.6809  12.7508  12.8919  12.9143  12.9326
    12.9693  13.0344  13.0359  13.0963  13.1101  13.1533  13.1689  13.2373
    13.3579  13.3812  13.5389  13.6644  13.7609  13.7692  13.8450  13.8617
    13.8839  13.9387  13.9654  14.0569  14.0814  14.1031  14.1132  14.2160
    14.2491  14.3002  14.3025  14.4362  14.4369  14.4397  14.4502  14.4560
    14.4793  14.5553  14.5626  14.5683  14.5975  14.6363  14.6456  14.6567
    14.6698  14.6925  14.7251  14.8185  14.8231  14.8588  14.9442  14.9509
    15.0130  15.0431  15.2010  15.2863  15.2869  15.3701  15.5631  15.5755
    15.5856  15.6610  15.7006  15.7045  15.7214  15.7275  15.7339  15.7682
    15.7952  15.8548  15.9159  15.9494  16.0669  16.0958  16.1765  16.1804
    16.1879  16.2794  16.2997  16.3090  16.3647  16.4144  16.4781  16.4905
    16.5301  16.5410  16.5483  16.6074  16.6270  16.7307  16.7455  16.8080
    16.8740  16.9586  16.9921  17.0126  17.0332  17.0347  17.0788  17.1275
    17.1876  17.1901  17.1980  17.2224  17.2535  17.2821  17.3547  17.5529
    17.5644  17.5706  17.6341  17.6450  17.6943  17.6979  17.7131  17.7494
    17.7962  17.8385  17.8859  17.9100  17.9340  17.9657  17.9678  18.1443
    18.1700  18.1882  18.2398  18.3239  18.4079  18.4131  18.4272  18.4386
    18.5125  18.5390  18.5692  18.6142  19.0707  19.0785  19.0859  19.3306
    19.5644  19.7708  19.8696

          k = 0.0556 0.3889 0.1282 ( 39215 PWs)   bands (ev):

   -56.2952 -56.2736 -56.2247 -56.2159 -56.2115 -56.2051 -56.1957 -56.1871
   -56.1790 -56.1779 -56.1747 -56.1742 -56.1706 -56.1540 -56.1509 -56.1440
   -55.8096 -55.8082 -55.7973 -55.7964 -55.7720 -55.7718 -55.7714 -55.7713
   -55.7662 -55.7661 -55.7646 -55.7645 -55.7378 -55.7378 -55.7246 -55.7246
   -26.5930 -26.5796 -26.5777 -26.5629 -26.5501 -26.5482 -26.5242 -26.5091
   -26.5041 -26.5028 -26.4955 -26.4883 -26.4874 -26.4714 -26.3650 -26.3581
   -26.2974 -26.2792 -26.2543 -26.2521 -26.2437 -26.2422 -26.2360 -26.2227
   -26.2222 -26.2159 -26.2155 -26.2006 -26.1856 -26.1763 -26.1668 -26.1007
   -26.0719 -26.0661 -26.0395 -26.0343 -26.0169 -26.0048 -26.0040 -25.9944
   -25.9834 -25.9783 -25.9753 -25.9727 -25.9708 -25.9651 -25.9455 -25.9337
   -25.9165 -25.9117 -25.9087 -25.8965 -25.8833 -25.8820 -25.8764 -25.8644
   -25.8628 -25.8516 -25.8465 -25.8450 -25.8396 -25.8247 -25.8243 -25.8004
   -25.6770 -25.6755 -25.6737 -25.6714 -25.6686 -25.6686 -25.6659 -25.6631
   -25.6625 -25.6607 -25.6588 -25.6573 -25.6537 -25.6494 -25.6478 -25.6474
   -25.6289 -25.6220 -25.6206 -25.6078 -25.5967 -25.5880 -25.5808 -25.5790
   -25.5769 -25.5683 -25.5537 -25.5506 -25.5466 -25.5426 -25.5300 -25.5279
    10.0824  10.7193  11.2371  11.3004  11.3306  11.4474  11.5287  11.5454
    11.5868  11.6375  11.6548  11.6733  11.6956  11.7236  11.7267  11.7412
    11.7604  11.8163  11.8950  11.9516  11.9807  12.0807  12.1337  12.2044
    12.2045  12.4854  12.5268  12.5638  12.5853  12.5909  12.6082  12.6161
    12.6219  12.6629  12.6792  12.6881  12.7429  12.8871  12.9168  12.9296
    12.9602  13.0312  13.0327  13.0930  13.1044  13.1479  13.1596  13.2336
    13.3578  13.3818  13.5439  13.6614  13.7677  13.7797  13.8469  13.8586
    13.8841  13.9577  13.9673  14.0964  14.0991  14.1098  14.1210  14.2161
    14.2439  14.3177  14.3191  14.4348  14.4369  14.4465  14.4635  14.4820
    14.5102  14.5560  14.5599  14.5690  14.5984  14.6380  14.6581  14.6625
    14.6792  14.7001  14.7466  14.8213  14.8247  14.8524  14.9507  14.9571
    15.0126  15.0418  15.1760  15.2062  15.2969  15.4193  15.5268  15.5647
    15.5786  15.6574  15.6870  15.6930  15.6977  15.7269  15.7378  15.7581
    15.7648  15.7755  15.7802  15.9730  16.0010  16.0238  16.1093  16.1788
    16.2832  16.3098  16.3128  16.3181  16.3524  16.4168  16.4628  16.5016
    16.5215  16.5431  16.6073  16.6222  16.6454  16.7265  16.8092  16.8261
    16.9567  16.9843  16.9887  17.0276  17.0401  17.0826  17.1205  17.1452
    17.1640  17.1762  17.2141  17.2537  17.2545  17.2788  17.3607  17.5355
    17.5585  17.5586  17.6322  17.6396  17.6511  17.6543  17.6913  17.7112
    17.7505  17.7985  17.8528  17.9503  17.9648  17.9758  18.0166  18.1413
    18.1909  18.2330  18.2389  18.3780  18.4082  18.4357  18.4391  18.4393
    18.4582  18.5377  18.5484  18.6158  18.9278  19.0137  19.0712  19.5123
    19.7646  19.8362  20.0633

          k = 0.0556 0.3889 0.2137 ( 39210 PWs)   bands (ev):

   -56.2952 -56.2736 -56.2247 -56.2159 -56.2115 -56.2051 -56.1957 -56.1871
   -56.1790 -56.1779 -56.1747 -56.1742 -56.1706 -56.1540 -56.1509 -56.1440
   -55.8096 -55.8082 -55.7973 -55.7964 -55.7720 -55.7719 -55.7713 -55.7713
   -55.7662 -55.7661 -55.7646 -55.7645 -55.7378 -55.7378 -55.7246 -55.7246
   -26.5930 -26.5796 -26.5777 -26.5629 -26.5501 -26.5482 -26.5242 -26.5091
   -26.5041 -26.5028 -26.4955 -26.4884 -26.4874 -26.4714 -26.3650 -26.3581
   -26.2973 -26.2792 -26.2543 -26.2521 -26.2438 -26.2422 -26.2361 -26.2227
   -26.2222 -26.2159 -26.2155 -26.2006 -26.1857 -26.1763 -26.1668 -26.1007
   -26.0719 -26.0660 -26.0395 -26.0343 -26.0169 -26.0048 -26.0040 -25.9944
   -25.9834 -25.9782 -25.9753 -25.9727 -25.9708 -25.9650 -25.9455 -25.9337
   -25.9165 -25.9117 -25.9087 -25.8965 -25.8833 -25.8820 -25.8764 -25.8644
   -25.8627 -25.8516 -25.8465 -25.8450 -25.8396 -25.8247 -25.8243 -25.8005
   -25.6772 -25.6755 -25.6738 -25.6715 -25.6687 -25.6686 -25.6659 -25.6629
   -25.6626 -25.6606 -25.6588 -25.6572 -25.6537 -25.6496 -25.6477 -25.6474
   -25.6289 -25.6220 -25.6206 -25.6078 -25.5967 -25.5880 -25.5808 -25.5790
   -25.5769 -25.5682 -25.5537 -25.5506 -25.5466 -25.5426 -25.5300 -25.5279
    10.0941  10.7288  11.2316  11.3027  11.3315  11.4486  11.5296  11.5472
    11.5884  11.6373  11.6539  11.6766  11.6842  11.6975  11.7247  11.7373
    11.7603  11.8155  11.8931  11.9507  11.9821  12.0804  12.1327  12.1709
    12.2196  12.4853  12.5212  12.5608  12.5846  12.5858  12.6138  12.6148
    12.6358  12.6575  12.6783  12.6972  12.7295  12.8793  12.9203  12.9249
    12.9454  13.0239  13.0302  13.0888  13.0957  13.1399  13.1461  13.2278
    13.3576  13.3829  13.5511  13.6569  13.7802  13.7935  13.8514  13.8539
    13.8854  13.9689  13.9868  14.1149  14.1254  14.1326  14.1643  14.2154
    14.2354  14.3476  14.3528  14.4365  14.4377  14.4393  14.4859  14.5015
    14.5553  14.5568  14.5701  14.5730  14.5996  14.6400  14.6713  14.6937
    14.7095  14.7121  14.7806  14.8264  14.8281  14.8421  14.9505  14.9770
    15.0121  15.0396  15.0518  15.2187  15.3198  15.4410  15.4473  15.5551
    15.5698  15.5982  15.6244  15.6586  15.6808  15.6869  15.7227  15.7256
    15.7320  15.7450  15.7603  15.8486  15.9375  16.0122  16.0228  16.1751
    16.3099  16.3142  16.3301  16.3345  16.4288  16.4347  16.4594  16.4601
    16.4879  16.5312  16.6400  16.6650  16.7196  16.7568  16.8346  16.9503
    16.9617  16.9889  17.0169  17.0468  17.1270  17.1338  17.1531  17.1802
    17.1914  17.1926  17.2486  17.2505  17.2732  17.2986  17.3658  17.4549
    17.4748  17.5406  17.5680  17.5754  17.6299  17.6618  17.6820  17.7056
    17.7522  17.7802  17.7980  17.9603  17.9690  17.9855  18.1332  18.1611
    18.1943  18.2378  18.2789  18.3057  18.3758  18.4084  18.4087  18.4328
    18.4911  18.5256  18.6178  18.7429  18.8070  18.9389  19.0547  19.5936
    19.8043  19.9438  20.0698

          k = 0.0556 0.3889 0.2991 ( 39211 PWs)   bands (ev):

   -56.2952 -56.2736 -56.2247 -56.2159 -56.2115 -56.2051 -56.1957 -56.1871
   -56.1790 -56.1779 -56.1747 -56.1742 -56.1706 -56.1540 -56.1509 -56.1440
   -55.8096 -55.8082 -55.7973 -55.7964 -55.7720 -55.7719 -55.7713 -55.7713
   -55.7662 -55.7661 -55.7646 -55.7645 -55.7378 -55.7377 -55.7246 -55.7246
   -26.5930 -26.5796 -26.5777 -26.5629 -26.5501 -26.5482 -26.5242 -26.5091
   -26.5040 -26.5028 -26.4955 -26.4883 -26.4874 -26.4714 -26.3650 -26.3581
   -26.2973 -26.2792 -26.2543 -26.2520 -26.2437 -26.2422 -26.2361 -26.2228
   -26.2223 -26.2159 -26.2155 -26.2006 -26.1857 -26.1763 -26.1668 -26.1007
   -26.0719 -26.0660 -26.0395 -26.0343 -26.0169 -26.0048 -26.0040 -25.9944
   -25.9834 -25.9782 -25.9753 -25.9727 -25.9708 -25.9651 -25.9454 -25.9336
   -25.9165 -25.9117 -25.9088 -25.8965 -25.8833 -25.8820 -25.8764 -25.8644
   -25.8627 -25.8516 -25.8465 -25.8450 -25.8396 -25.8247 -25.8243 -25.8005
   -25.6773 -25.6756 -25.6738 -25.6715 -25.6687 -25.6685 -25.6659 -25.6628
   -25.6625 -25.6606 -25.6587 -25.6571 -25.6537 -25.6498 -25.6476 -25.6474
   -25.6289 -25.6220 -25.6206 -25.6078 -25.5968 -25.5880 -25.5808 -25.5790
   -25.5769 -25.5682 -25.5537 -25.5506 -25.5466 -25.5426 -25.5300 -25.5279
    10.1048  10.7375  11.2261  11.3047  11.3324  11.4498  11.5304  11.5490
    11.5896  11.6353  11.6519  11.6532  11.6797  11.6992  11.7257  11.7333
    11.7602  11.8149  11.8913  11.9499  11.9834  12.0801  12.1279  12.1475
    12.2306  12.4851  12.5163  12.5581  12.5827  12.5866  12.6082  12.6215
    12.6487  12.6547  12.6769  12.7036  12.7158  12.8720  12.9206  12.9231
    12.9313  13.0177  13.0284  13.0856  13.0881  13.1329  13.1351  13.2227
    13.3575  13.3839  13.5571  13.6530  13.7942  13.8032  13.8501  13.8565
    13.8878  13.9684  14.0135  14.1231  14.1393  14.1423  14.2144  14.2274
    14.2362  14.3765  14.3924  14.4309  14.4374  14.4384  14.4882  14.5367
    14.5510  14.5574  14.5709  14.5984  14.6007  14.6406  14.6790  14.7063
    14.7230  14.8115  14.8168  14.8321  14.8326  14.8328  14.9474  14.9507
    14.9946  15.0117  15.0376  15.2412  15.3578  15.3604  15.4096  15.4606
    15.5033  15.5780  15.6090  15.6516  15.6698  15.6774  15.6910  15.6916
    15.7213  15.7483  15.7518  15.7641  15.8858  15.9527  16.0118  16.1735
    16.3033  16.3042  16.3194  16.3382  16.4093  16.4225  16.4528  16.4583
    16.5110  16.6534  16.6539  16.6792  16.7135  16.8585  16.8801  16.9264
    16.9930  16.9979  17.0463  17.0970  17.1030  17.1368  17.2203  17.2352
    17.2677  17.2718  17.2769  17.2854  17.2964  17.3203  17.3342  17.3685
    17.3993  17.4865  17.5045  17.5765  17.6284  17.6624  17.6641  17.6983
    17.7350  17.7537  17.7731  17.9570  17.9818  17.9916  18.1014  18.1770
    18.1968  18.2375  18.3273  18.3335  18.3703  18.3795  18.4091  18.4446
    18.5130  18.5856  18.5913  18.6191  18.8909  19.0394  19.0818  19.1983
    20.0482  20.1232  20.2579

          k = 0.0556 0.3889-0.3846 ( 39254 PWs)   bands (ev):

   -56.2952 -56.2736 -56.2247 -56.2159 -56.2115 -56.2051 -56.1957 -56.1871
   -56.1790 -56.1779 -56.1747 -56.1742 -56.1706 -56.1540 -56.1509 -56.1440
   -55.8096 -55.8082 -55.7972 -55.7964 -55.7720 -55.7719 -55.7713 -55.7713
   -55.7662 -55.7661 -55.7646 -55.7645 -55.7378 -55.7378 -55.7246 -55.7246
   -26.5930 -26.5796 -26.5777 -26.5629 -26.5501 -26.5482 -26.5242 -26.5092
   -26.5040 -26.5028 -26.4955 -26.4883 -26.4874 -26.4714 -26.3650 -26.3581
   -26.2974 -26.2792 -26.2543 -26.2521 -26.2437 -26.2422 -26.2361 -26.2228
   -26.2223 -26.2159 -26.2155 -26.2006 -26.1857 -26.1763 -26.1669 -26.1007
   -26.0719 -26.0660 -26.0395 -26.0344 -26.0169 -26.0048 -26.0040 -25.9945
   -25.9834 -25.9782 -25.9753 -25.9728 -25.9708 -25.9651 -25.9454 -25.9336
   -25.9165 -25.9117 -25.9088 -25.8965 -25.8833 -25.8820 -25.8764 -25.8644
   -25.8627 -25.8516 -25.8465 -25.8450 -25.8396 -25.8247 -25.8243 -25.8005
   -25.6774 -25.6756 -25.6739 -25.6716 -25.6688 -25.6685 -25.6659 -25.6627
   -25.6626 -25.6606 -25.6587 -25.6570 -25.6537 -25.6499 -25.6476 -25.6473
   -25.6289 -25.6220 -25.6206 -25.6078 -25.5968 -25.5880 -25.5809 -25.5790
   -25.5769 -25.5682 -25.5538 -25.5506 -25.5466 -25.5426 -25.5300 -25.5279
    10.1091  10.7409  11.2236  11.3056  11.3327  11.4503  11.5306  11.5498
    11.5900  11.6306  11.6438  11.6529  11.6809  11.6998  11.7261  11.7316
    11.7601  11.8146  11.8907  11.9495  11.9839  12.0800  12.1224  12.1424
    12.2344  12.4851  12.5144  12.5571  12.5831  12.5869  12.6048  12.6244
    12.6540  12.6542  12.6762  12.7058  12.7097  12.8690  12.9189  12.9241
    12.9254  13.0152  13.0278  13.0845  13.0851  13.1302  13.1309  13.2206
    13.3574  13.3843  13.5594  13.6516  13.8006  13.8064  13.8486  13.8587
    13.8891  13.9675  14.0246  14.1261  14.1438  14.1460  14.2139  14.2241
    14.2701  14.3895  14.4105  14.4270  14.4366  14.4392  14.4881  14.5493
    14.5511  14.5576  14.5711  14.6011  14.6036  14.6401  14.6820  14.7112
    14.7274  14.8241  14.8290  14.8348  14.8350  14.8848  14.9046  14.9508
    15.0016  15.0115  15.0368  15.2641  15.3161  15.3260  15.3997  15.4402
    15.4644  15.5827  15.6104  15.6498  15.6671  15.6687  15.6748  15.6796
    15.6981  15.7291  15.7546  15.7661  15.8714  15.9256  16.0107  16.1730
    16.2994  16.3003  16.3136  16.3400  16.3995  16.4071  16.4469  16.4780
    16.4878  16.6592  16.6845  16.7113  16.8022  16.8574  16.8676  16.9473
    16.9684  16.9953  17.0390  17.0856  17.1312  17.1741  17.1774  17.2654
    17.2861  17.2943  17.2945  17.3331  17.3402  17.3431  17.3521  17.3526
    17.3695  17.4160  17.4758  17.5799  17.6278  17.6469  17.6643  17.6948
    17.7016  17.7543  17.7712  17.9559  17.9862  17.9937  18.0671  18.1601
    18.1976  18.2378  18.3383  18.3680  18.3707  18.3879  18.4093  18.5073
    18.5077  18.5310  18.6196  18.6336  18.8752  18.9989  19.0330  19.2366
    20.0519  20.2952  20.3124

          k = 0.0556-0.5000 0.0427 ( 39232 PWs)   bands (ev):

   -56.2853 -56.2853 -56.2207 -56.2207 -56.2086 -56.2086 -56.1917 -56.1917
   -56.1764 -56.1764 -56.1739 -56.1739 -56.1634 -56.1634 -56.1471 -56.1471
   -55.8040 -55.8040 -55.8028 -55.8028 -55.7717 -55.7717 -55.7716 -55.7716
   -55.7653 -55.7653 -55.7653 -55.7653 -55.7306 -55.7306 -55.7306 -55.7306
   -26.5623 -26.5623 -26.5453 -26.5453 -26.5447 -26.5447 -26.5299 -26.5299
   -26.5213 -26.5213 -26.5197 -26.5197 -26.4887 -26.4887 -26.3636 -26.3636
   -26.2721 -26.2721 -26.2514 -26.2514 -26.2485 -26.2485 -26.2451 -26.2450
   -26.2127 -26.2127 -26.1987 -26.1987 -26.1864 -26.1864 -26.1310 -26.1310
   -26.0547 -26.0547 -26.0213 -26.0213 -26.0009 -26.0009 -26.0007 -26.0007
   -25.9911 -25.9911 -25.9891 -25.9891 -25.9667 -25.9667 -25.9421 -25.9420
   -25.9104 -25.9104 -25.8893 -25.8893 -25.8833 -25.8833 -25.8762 -25.8762
   -25.8685 -25.8685 -25.8655 -25.8655 -25.8345 -25.8345 -25.8123 -25.8123
   -25.6727 -25.6727 -25.6724 -25.6724 -25.6658 -25.6658 -25.6641 -25.6641
   -25.6630 -25.6630 -25.6540 -25.6540 -25.6525 -25.6525 -25.6467 -25.6467
   -25.6065 -25.6065 -25.5931 -25.5931 -25.5856 -25.5856 -25.5790 -25.5790
   -25.5698 -25.5698 -25.5587 -25.5587 -25.5567 -25.5567 -25.5524 -25.5524
    10.3703  10.3704  11.4755  11.4755  11.4784  11.4784  11.5323  11.5323
    11.5562  11.5562  11.6850  11.6850  11.6938  11.6938  11.7564  11.7564
    11.8235  11.8235  11.8629  11.8629  11.8814  11.8814  11.9833  11.9833
    12.4312  12.4312  12.5907  12.5907  12.6221  12.6221  12.6312  12.6312
    12.6741  12.6741  12.7382  12.7382  12.7890  12.7890  12.8102  12.8102
    12.8819  12.8819  13.0292  13.0292  13.0681  13.0681  13.1718  13.1718
    13.4060  13.4060  13.6490  13.6490  13.7650  13.7650  13.8110  13.8110
    13.9889  13.9890  14.0078  14.0078  14.0636  14.0636  14.2504  14.2504
[...]
   -26.1308 -26.1308 -26.1308 -26.1308 -26.1308 -26.1308 -26.1308 -26.1308
   -25.9870 -25.9870 -25.9870 -25.9870 -25.9211 -25.9211 -25.9211 -25.9211
   -25.8621 -25.8621 -25.8621 -25.8621 -25.8621 -25.8621 -25.8621 -25.8621
   -25.8109 -25.8109 -25.8109 -25.8109 -25.8109 -25.8109 -25.8109 -25.8109
   -25.7898 -25.7898 -25.7898 -25.7898 -25.7637 -25.7637 -25.7637 -25.7637
   -25.7164 -25.7164 -25.7164 -25.7164 -25.7164 -25.7164 -25.7164 -25.7164
   -25.6650 -25.6650 -25.6650 -25.6650 -25.6477 -25.6477 -25.6477 -25.6477
   -25.5538 -25.5538 -25.5538 -25.5538 -25.5489 -25.5489 -25.5489 -25.5489
    10.8672  10.8672  10.8672  10.8672  11.5640  11.5640  11.5640  11.5640
    11.7857  11.7857  11.7857  11.7857  11.8202  11.8202  11.8202  11.8202
    11.8202  11.8203  11.8203  11.8203  11.8914  11.8914  11.8914  11.8914
    12.1793  12.1793  12.1793  12.1793  12.1793  12.1793  12.1793  12.1793
    12.5840  12.5840  12.5840  12.5840  12.6716  12.6717  12.6717  12.6717
    12.6717  12.6717  12.6717  12.6717  13.0763  13.0763  13.0764  13.0764
    13.0764  13.0764  13.0764  13.0764  13.2936  13.2936  13.2936  13.2936
    14.0359  14.0359  14.0359  14.0359  14.1228  14.1228  14.1228  14.1228
    14.4643  14.4643  14.4643  14.4643  14.7234  14.7234  14.7234  14.7234
    14.8076  14.8076  14.8076  14.8076  14.8555  14.8555  14.8555  14.8555
    14.8555  14.8555  14.8555  14.8555  14.9361  14.9361  14.9361  14.9361
    15.2571  15.2571  15.2572  15.2572  15.5255  15.5255  15.5255  15.5255
    15.5424  15.5424  15.5424  15.5424  15.5443  15.5443  15.5444  15.5444
    15.5444  15.5444  15.5444  15.5444  15.8376  15.8376  15.8376  15.8376
    15.8376  15.8376  15.8376  15.8376  15.8854  15.8854  15.8854  15.8854
    16.4617  16.4617  16.4617  16.4617  16.7415  16.7415  16.7415  16.7415
    16.7415  16.7415  16.7415  16.7415  16.9189  16.9189  16.9189  16.9189
    17.2916  17.2916  17.2916  17.2916  17.4693  17.4693  17.4693  17.4693
    17.4693  17.4693  17.4693  17.4693  17.6558  17.6558  17.6558  17.6558
    17.7739  17.7739  17.7740  17.7740  18.3124  18.3124  18.3124  18.3124
    18.3497  18.3497  18.3497  18.3497  18.3497  18.3497  18.3497  18.3497
    18.4810  18.4810  18.4810  18.4810  21.3556  21.3556  21.3556  21.3556
    21.3556  21.3556  21.3556

          k =-0.5000-0.5000 0.2137 ( 39208 PWs)   bands (ev):

   -56.2489 -56.2489 -56.2489 -56.2489 -56.2070 -56.2070 -56.2070 -56.2070
   -56.1620 -56.1620 -56.1620 -56.1620 -56.1620 -56.1620 -56.1620 -56.1620
   -55.8557 -55.8557 -55.8557 -55.8557 -55.8545 -55.8545 -55.8545 -55.8545
   -55.8099 -55.8099 -55.8099 -55.8099 -55.8099 -55.8099 -55.8099 -55.8099
   -26.5698 -26.5698 -26.5698 -26.5698 -26.5698 -26.5698 -26.5698 -26.5698
   -26.4572 -26.4572 -26.4572 -26.4572 -26.4303 -26.4303 -26.4303 -26.4303
   -26.3825 -26.3825 -26.3825 -26.3825 -26.3825 -26.3825 -26.3825 -26.3825
   -26.2998 -26.2998 -26.2998 -26.2998 -26.2066 -26.2066 -26.2066 -26.2066
   -26.1308 -26.1308 -26.1308 -26.1308 -26.1308 -26.1308 -26.1308 -26.1308
   -25.9870 -25.9870 -25.9870 -25.9870 -25.9211 -25.9211 -25.9211 -25.9211
   -25.8621 -25.8621 -25.8621 -25.8621 -25.8621 -25.8621 -25.8621 -25.8621
   -25.8109 -25.8109 -25.8109 -25.8109 -25.8109 -25.8109 -25.8109 -25.8109
   -25.7898 -25.7898 -25.7898 -25.7898 -25.7638 -25.7638 -25.7638 -25.7638
   -25.7164 -25.7164 -25.7164 -25.7164 -25.7164 -25.7163 -25.7163 -25.7163
   -25.6650 -25.6650 -25.6650 -25.6650 -25.6477 -25.6477 -25.6477 -25.6477
   -25.5538 -25.5538 -25.5538 -25.5538 -25.5489 -25.5489 -25.5489 -25.5489
    10.8697  10.8698  10.8698  10.8698  11.5641  11.5641  11.5641  11.5641
    11.7666  11.7666  11.7666  11.7666  11.8207  11.8207  11.8207  11.8207
    11.8207  11.8207  11.8207  11.8207  11.9078  11.9078  11.9078  11.9078
    12.1757  12.1757  12.1757  12.1757  12.1757  12.1757  12.1757  12.1757
    12.5809  12.5809  12.5809  12.5809  12.6784  12.6784  12.6784  12.6784
    12.6785  12.6785  12.6785  12.6785  13.0730  13.0730  13.0730  13.0730
    13.0730  13.0731  13.0731  13.0731  13.2977  13.2977  13.2977  13.2977
    14.0311  14.0311  14.0311  14.0311  14.1372  14.1372  14.1372  14.1372
    14.4861  14.4861  14.4861  14.4861  14.7074  14.7074  14.7074  14.7074
    14.8075  14.8075  14.8075  14.8076  14.8556  14.8556  14.8556  14.8556
    14.8556  14.8556  14.8556  14.8556  14.9354  14.9354  14.9354  14.9354
    15.2397  15.2397  15.2397  15.2397  15.5270  15.5270  15.5270  15.5270
    15.5450  15.5450  15.5451  15.5451  15.5451  15.5451  15.5451  15.5451
    15.5548  15.5548  15.5548  15.5548  15.8582  15.8582  15.8582  15.8583
    15.8583  15.8583  15.8583  15.8583  15.8852  15.8852  15.8852  15.8852
    16.3346  16.3346  16.3346  16.3346  16.6665  16.6665  16.6665  16.6666
    16.6666  16.6666  16.6666  16.6666  16.8653  16.8653  16.8653  16.8653
    17.2922  17.2922  17.2922  17.2922  17.5285  17.5285  17.5285  17.5285
    17.5285  17.5285  17.5285  17.5285  17.6522  17.6522  17.6523  17.6523
    18.1507  18.1507  18.1507  18.1507  18.3149  18.3149  18.3149  18.3149
    18.3529  18.3529  18.3529  18.3529  18.3529  18.3529  18.3529  18.3529
    18.4809  18.4809  18.4809  18.4809  20.7661  20.7661  20.7662  20.7662
    21.3919  21.3919  21.3919

          k =-0.5000-0.5000 0.2991 ( 39252 PWs)   bands (ev):

   -56.2489 -56.2489 -56.2489 -56.2489 -56.2070 -56.2070 -56.2070 -56.2070
   -56.1620 -56.1620 -56.1620 -56.1620 -56.1620 -56.1620 -56.1620 -56.1620
   -55.8557 -55.8557 -55.8557 -55.8557 -55.8545 -55.8545 -55.8545 -55.8545
   -55.8099 -55.8099 -55.8099 -55.8099 -55.8099 -55.8098 -55.8098 -55.8098
   -26.5698 -26.5698 -26.5698 -26.5698 -26.5698 -26.5698 -26.5698 -26.5698
   -26.4572 -26.4572 -26.4572 -26.4572 -26.4304 -26.4304 -26.4304 -26.4304
   -26.3825 -26.3825 -26.3825 -26.3825 -26.3825 -26.3825 -26.3825 -26.3825
   -26.2998 -26.2998 -26.2998 -26.2998 -26.2066 -26.2066 -26.2066 -26.2066
   -26.1308 -26.1308 -26.1308 -26.1308 -26.1308 -26.1308 -26.1308 -26.1308
   -25.9870 -25.9870 -25.9870 -25.9870 -25.9212 -25.9212 -25.9212 -25.9212
   -25.8621 -25.8621 -25.8621 -25.8621 -25.8621 -25.8621 -25.8621 -25.8621
   -25.8109 -25.8109 -25.8109 -25.8108 -25.8108 -25.8108 -25.8108 -25.8108
   -25.7898 -25.7898 -25.7898 -25.7898 -25.7639 -25.7639 -25.7639 -25.7639
   -25.7163 -25.7163 -25.7163 -25.7163 -25.7163 -25.7163 -25.7163 -25.7163
   -25.6649 -25.6649 -25.6649 -25.6649 -25.6478 -25.6478 -25.6478 -25.6478
   -25.5538 -25.5538 -25.5538 -25.5538 -25.5489 -25.5489 -25.5489 -25.5489
    10.8720  10.8720  10.8720  10.8720  11.5641  11.5641  11.5641  11.5641
    11.7529  11.7529  11.7529  11.7529  11.8211  11.8211  11.8211  11.8211
    11.8211  11.8211  11.8211  11.8211  11.9192  11.9192  11.9192  11.9192
    12.1725  12.1725  12.1725  12.1725  12.1726  12.1726  12.1726  12.1726
    12.5782  12.5782  12.5783  12.5783  12.6845  12.6845  12.6845  12.6845
    12.6845  12.6845  12.6845  12.6845  13.0700  13.0700  13.0700  13.0700
    13.0700  13.0700  13.0700  13.0700  13.3012  13.3012  13.3012  13.3012
    14.0280  14.0280  14.0280  14.0280  14.1484  14.1484  14.1484  14.1484
    14.5126  14.5126  14.5126  14.5126  14.6869  14.6869  14.6870  14.6870
    14.8075  14.8075  14.8075  14.8075  14.8557  14.8557  14.8557  14.8557
    14.8557  14.8557  14.8558  14.8558  14.9348  14.9348  14.9348  14.9348
    15.2227  15.2227  15.2227  15.2227  15.5284  15.5284  15.5284  15.5284
    15.5457  15.5457  15.5457  15.5457  15.5457  15.5457  15.5457  15.5457
    15.5680  15.5680  15.5680  15.5680  15.8785  15.8785  15.8785  15.8785
    15.8785  15.8785  15.8785  15.8785  15.8850  15.8850  15.8850  15.8850
    16.2364  16.2364  16.2365  16.2365  16.6050  16.6050  16.6050  16.6050
    16.6050  16.6050  16.6050  16.6050  16.8440  16.8440  16.8440  16.8440
    17.2928  17.2928  17.2928  17.2928  17.5740  17.5740  17.5740  17.5740
    17.5741  17.5741  17.5741  17.5741  17.6492  17.6492  17.6492  17.6492
    18.3171  18.3171  18.3171  18.3171  18.3557  18.3557  18.3557  18.3557
    18.3557  18.3557  18.3557  18.3557  18.4809  18.4809  18.4809  18.4809
    18.5171  18.5171  18.5172  18.5172  20.2791  20.2791  20.2792  20.2792
    21.4296  21.4296  21.4296

          k =-0.5000-0.5000-0.3846 ( 39240 PWs)   bands (ev):

   -56.2489 -56.2489 -56.2489 -56.2489 -56.2070 -56.2070 -56.2070 -56.2070
   -56.1620 -56.1620 -56.1620 -56.1620 -56.1620 -56.1620 -56.1620 -56.1620
   -55.8557 -55.8557 -55.8557 -55.8557 -55.8545 -55.8545 -55.8545 -55.8545
   -55.8099 -55.8099 -55.8099 -55.8099 -55.8099 -55.8099 -55.8099 -55.8099
   -26.5699 -26.5699 -26.5699 -26.5698 -26.5698 -26.5698 -26.5698 -26.5698
   -26.4572 -26.4572 -26.4572 -26.4572 -26.4304 -26.4304 -26.4304 -26.4304
   -26.3826 -26.3826 -26.3826 -26.3826 -26.3825 -26.3825 -26.3825 -26.3825
   -26.2998 -26.2998 -26.2998 -26.2998 -26.2066 -26.2066 -26.2066 -26.2066
   -26.1308 -26.1308 -26.1308 -26.1308 -26.1308 -26.1308 -26.1308 -26.1308
   -25.9870 -25.9870 -25.9870 -25.9870 -25.9211 -25.9211 -25.9211 -25.9211
   -25.8621 -25.8621 -25.8621 -25.8621 -25.8621 -25.8621 -25.8621 -25.8621
   -25.8109 -25.8109 -25.8109 -25.8109 -25.8108 -25.8108 -25.8108 -25.8108
   -25.7898 -25.7898 -25.7898 -25.7898 -25.7639 -25.7639 -25.7639 -25.7639
   -25.7163 -25.7163 -25.7163 -25.7163 -25.7163 -25.7163 -25.7163 -25.7163
   -25.6649 -25.6649 -25.6649 -25.6649 -25.6478 -25.6478 -25.6478 -25.6478
   -25.5538 -25.5538 -25.5538 -25.5538 -25.5489 -25.5489 -25.5489 -25.5489
    10.8729  10.8729  10.8729  10.8729  11.5641  11.5641  11.5641  11.5641
    11.7479  11.7479  11.7479  11.7479  11.8213  11.8213  11.8213  11.8213
    11.8213  11.8213  11.8213  11.8213  11.9233  11.9233  11.9233  11.9233
    12.1713  12.1713  12.1713  12.1713  12.1713  12.1713  12.1713  12.1713
    12.5772  12.5772  12.5772  12.5772  12.6869  12.6869  12.6869  12.6869
    12.6869  12.6869  12.6869  12.6869  13.0688  13.0688  13.0688  13.0688
    13.0688  13.0688  13.0688  13.0688  13.3025  13.3025  13.3025  13.3025
    14.0270  14.0270  14.0270  14.0270  14.1525  14.1525  14.1525  14.1525
    14.5264  14.5264  14.5264  14.5264  14.6757  14.6757  14.6757  14.6757
    14.8075  14.8075  14.8075  14.8075  14.8558  14.8558  14.8558  14.8558
    14.8558  14.8558  14.8558  14.8558  14.9346  14.9346  14.9346  14.9346
    15.2155  15.2155  15.2155  15.2155  15.5289  15.5289  15.5289  15.5289
    15.5459  15.5459  15.5460  15.5460  15.5460  15.5460  15.5460  15.5460
    15.5738  15.5738  15.5739  15.5739  15.8849  15.8849  15.8849  15.8849
    15.8872  15.8872  15.8872  15.8872  15.8872  15.8872  15.8872  15.8872
    16.2005  16.2005  16.2006  16.2006  16.5813  16.5813  16.5813  16.5813
    16.5813  16.5813  16.5813  16.5813  16.8381  16.8381  16.8382  16.8382
    17.2930  17.2930  17.2930  17.2930  17.5908  17.5908  17.5908  17.5908
    17.5908  17.5908  17.5908  17.5908  17.6479  17.6479  17.6479  17.6480
    18.3179  18.3179  18.3179  18.3179  18.3568  18.3568  18.3568  18.3568
    18.3568  18.3568  18.3568  18.3568  18.4808  18.4808  18.4808  18.4808
    18.7011  18.7011  18.7011  18.7011  20.0549  20.0549  20.0549  20.0549
    21.4466  21.4466  21.4466

     the Fermi energy is    16.7815 ev

!    total energy              =  -13811.85892536 Ry

     total all-electron energy =   -289988.249265 Ry
     estimated scf accuracy    <       0.00000002 Ry
     smearing contrib. (-TS)   =       0.00633268 Ry
     internal energy E=F+TS    =  -13811.86525804 Ry

     The total energy is F=E-TS. E is the sum of the following terms:
     one-electron contribution =   -4123.91415751 Ry
     hartree contribution      =    2362.26976911 Ry
     xc contribution           =    -926.16002585 Ry
     ewald contribution        =   -3534.69741271 Ry
     one-center paw contrib.   =   -7589.36343109 Ry

     convergence has been achieved in  10 iterations

     Forces acting on atoms (cartesian axes, Ry/au):

     atom    1 type  1   force =     0.00000000    0.00000000   -0.00035724
     atom    2 type  1   force =     0.00000471    0.00000471   -0.00035625
     atom    3 type  1   force =     0.00000648    0.00000000   -0.00067053
     atom    4 type  1   force =     0.00000000    0.00000648   -0.00067053
     atom    5 type  1   force =     0.00000000    0.00000000    0.00067546
     atom    6 type  1   force =     0.00000102    0.00000102    0.00068249
     atom    7 type  1   force =     0.00000848    0.00000000    0.00034602
     atom    8 type  1   force =     0.00000000    0.00000848    0.00034602
     atom    9 type  1   force =     0.00000000    0.00000000   -0.00035465
     atom   10 type  1   force =     0.00000471   -0.00000471   -0.00035625
     atom   11 type  1   force =    -0.00000310    0.00000000   -0.00067433
     atom   12 type  1   force =     0.00000000   -0.00000648   -0.00067053
     atom   13 type  1   force =     0.00000000    0.00000000    0.00068395
     atom   14 type  1   force =     0.00000102   -0.00000102    0.00068249
     atom   15 type  1   force =     0.00000073    0.00000000    0.00034648
     atom   16 type  1   force =     0.00000000   -0.00000848    0.00034602
     atom   17 type  1   force =     0.00000000    0.00000000   -0.00035465
     atom   18 type  1   force =    -0.00000471    0.00000471   -0.00035625
     atom   19 type  1   force =    -0.00000648    0.00000000   -0.00067053
     atom   20 type  1   force =     0.00000000   -0.00000310   -0.00067433
     atom   21 type  1   force =     0.00000000    0.00000000    0.00068395
     atom   22 type  1   force =    -0.00000102    0.00000102    0.00068249
     atom   23 type  1   force =    -0.00000848    0.00000000    0.00034602
     atom   24 type  1   force =     0.00000000    0.00000073    0.00034648
     atom   25 type  1   force =     0.00000000    0.00000000   -0.00035736
     atom   26 type  1   force =    -0.00000471   -0.00000471   -0.00035625
     atom   27 type  1   force =     0.00000310    0.00000000   -0.00067433
     atom   28 type  1   force =     0.00000000    0.00000310   -0.00067433
     atom   29 type  1   force =     0.00000000    0.00000000    0.00068502
     atom   30 type  1   force =    -0.00000102   -0.00000102    0.00068249
     atom   31 type  1   force =    -0.00000073    0.00000000    0.00034648
     atom   32 type  1   force =     0.00000000   -0.00000073    0.00034648

     Total force =     0.003052     Total SCF correction =     0.000856
     SCF correction compared to forces is large: reduce conv_thr to get better values


     Computing stress (Cartesian axis) and pressure

          total   stress  (Ry/bohr**3)                   (kbar)     P=      -64.69
  -0.00036689   0.00000000   0.00000000          -53.97        0.00        0.00
   0.00000000  -0.00036689   0.00000000            0.00      -53.97        0.00
   0.00000000   0.00000000  -0.00058548            0.00        0.00      -86.13

     Energy error            =      9.9E-05
     Gradient error          =      6.9E-04

     bfgs converged in   5 scf cycles and   4 bfgs steps
     (criteria: energy <  1.0E-04 Ry, force <  1.0E-03 Ry/Bohr)

     End of BFGS Geometry Optimization

     Final energy   =  -13811.8589253598 Ry

     File /scratch/mYKhKGXiaMedTFik.bfgs deleted, as requested
Begin final coordinates

ATOMIC_POSITIONS (crystal)
Ru            0.0000000000        0.0000000000        0.0090617725
Ru            0.2499992165        0.2499992165        0.0090621293
Ru            0.2499986368        0.0000000000        0.1872821620
Ru            0.0000000000        0.2499986368        0.1872821620
Ru            0.0000000000        0.0000000000        0.6204096934
Ru            0.2499999156        0.2499999156        0.6204090070
Ru            0.2499987858        0.0000000000        0.7986312487
Ru            0.0000000000        0.2499987858        0.7986312487
Ru            0.0000000000        0.5000000000        0.0090621587
Ru            0.2499992165        0.7500007835        0.0090621293
Ru            0.2500005390        0.5000000000        0.1872824874
Ru            0.0000000000        0.7500013632        0.1872821620
Ru            0.0000000000        0.5000000000        0.6204090530
Ru            0.2499999156        0.7500000844        0.6204090070
Ru            0.2499998611        0.5000000000        0.7986310590
Ru            0.0000000000        0.7500012142        0.7986312487
Ru            0.5000000000        0.0000000000        0.0090621587
Ru            0.7500007835        0.2499992165        0.0090621293
Ru            0.7500013632        0.0000000000        0.1872821620
Ru            0.5000000000        0.2500005390        0.1872824874
Ru            0.5000000000        0.0000000000        0.6204090530
Ru            0.7500000844        0.2499999156        0.6204090070
Ru            0.7500012142        0.0000000000        0.7986312487
Ru            0.5000000000        0.2499998611        0.7986310590
Ru            0.5000000000        0.5000000000        0.0090621099
Ru            0.7500007835        0.7500007835        0.0090621293
Ru            0.7499994610        0.5000000000        0.1872824874
Ru            0.5000000000        0.7499994610        0.1872824874
Ru            0.5000000000        0.5000000000        0.6204085501
Ru            0.7500000844        0.7500000844        0.6204090070
Ru            0.7500001389        0.5000000000        0.7986310590
Ru            0.5000000000        0.7500001389        0.7986310590
End final coordinates



     Writing output data file /scratch/mYKhKGXiaMedTFik.save/
 
     init_run     :     32.47s CPU     33.05s WALL (       1 calls)
     electrons    :   6692.04s CPU   6834.76s WALL (       5 calls)
     update_pot   :      0.98s CPU      1.08s WALL (       4 calls)
     forces       :     69.32s CPU     70.10s WALL (       5 calls)
     stress       :    498.43s CPU    502.60s WALL (       5 calls)

     Called by init_run:
     wfcinit      :     31.70s CPU     32.21s WALL (       1 calls)
     potinit      :      0.17s CPU      0.19s WALL (       1 calls)
     hinit0       :      0.10s CPU      0.11s WALL (       1 calls)

     Called by electrons:
     c_bands      :   5987.43s CPU   6115.77s WALL (      69 calls)
     sum_band     :    693.58s CPU    706.30s WALL (      69 calls)
     v_of_rho     :      0.99s CPU      1.09s WALL (      73 calls)
     newd         :      2.53s CPU      3.41s WALL (      73 calls)
     PAW_pot      :      7.00s CPU      7.36s WALL (      77 calls)
     mix_rho      :      0.40s CPU      0.46s WALL (      69 calls)

     Called by c_bands:
     init_us_2    :     29.37s CPU     29.79s WALL (   11475 calls)
     cegterg      :   5884.92s CPU   5980.23s WALL (    5175 calls)

     Called by *egterg:
     cdiaghg      :    592.85s CPU    601.47s WALL (   17964 calls)
     h_psi        :   3030.93s CPU   3088.51s WALL (   18414 calls)
     s_psi        :    235.86s CPU    237.80s WALL (   18414 calls)
     g_psi        :      6.59s CPU      6.71s WALL (   13164 calls)

     Called by h_psi:
     h_psi:calbec :    425.52s CPU    429.51s WALL (   18414 calls)
     vloc_psi     :   2350.77s CPU   2400.18s WALL (   18414 calls)
     add_vuspsi   :    236.90s CPU    240.84s WALL (   18414 calls)

     General routines
     calbec       :    700.98s CPU    707.51s WALL (   25764 calls)
     fft          :      1.81s CPU      1.89s WALL (    1069 calls)
     ffts         :      0.16s CPU      0.17s WALL (     142 calls)
     fftw         :   2758.59s CPU   2814.62s WALL ( 9650533 calls)
     interpolate  :      0.45s CPU      0.47s WALL (      73 calls)
 
     Parallel routines
     fft_scatt_xy :    166.14s CPU    168.83s WALL ( 9651744 calls)
     fft_scatt_yz :   2296.38s CPU   2345.36s WALL ( 9651744 calls)
 
     PWSCF        :      2h 2m CPU      2h 4m WALL

 
   This run was terminated on:   1:55:58   2Dec2021            

=------------------------------------------------------------------------------=
   JOB DONE.
=------------------------------------------------------------------------------=
