
     Program PWSCF v.6.7MaX starts on 26Nov2021 at 20:37:21 

     This program is part of the open-source Quantum ESPRESSO suite
     for quantum simulation of materials; please cite
         "P. Giannozzi et al., J. Phys.:Condens. Matter 21 395502 (2009);
         "P. Giannozzi et al., J. Phys.:Condens. Matter 29 465901 (2017);
          URL http://www.quantum-espresso.org", 
     in publications or presentations arising from this work. More details at
     http://www.quantum-espresso.org/quote

     Parallel version (MPI & OpenMP), running on      72 processor cores
     Number of MPI processes:                72
     Threads/MPI process:                     1

     MPI processes distributed on     1 nodes
     R & G space division:  proc/nbgrp/npool/nimage =      72
     Reading input from relax_4.in
Warning: card &CELL ignored
Warning: card CELL_DYNAMICS = 'BFGS', ignored
Warning: card CELL_FACTOR = 2.0, ignored
Warning: card PRESS = 0.0, ignored
Warning: card / ignored

     Current dimensions of program PWSCF are:
     Max number of different atomic species (ntypx) = 10
     Max number of k-points (npk) =  40000
     Max angular momentum in pseudopotentials (lmaxx) =  3
     file Ru.pbe-spn-kjpaw_psl.1.0.0.UPF: wavefunction(s)  4D renormalized

     Subspace diagonalization in iterative solution of the eigenvalue problem:
     one sub-group per band group will be used
     ELPA distributed-memory algorithm (size of sub-group:  8*  8 procs)

     Found symmetry operation: I + (  0.2500  0.2500  0.0000)
     This is a supercell, fractional translations are disabled
     Message from routine setup:
     using ibrav=0 with symmetry is DISCOURAGED, use correct ibrav instead
 
     Parallelization info
     --------------------
     sticks:   dense  smooth     PW     G-vecs:    dense   smooth      PW
     Min          98      65     17                 7184     3851     545
     Max          99      66     19                 7189     3855     550
     Sum        7113    4693   1281               517413   277413   39407
 


     bravais-lattice index     =            0
     lattice parameter (alat)  =      14.4007  a.u.
     unit-cell volume          =    3434.4122 (a.u.)^3
     number of atoms/cell      =           32
     number of atomic types    =            1
     number of electrons       =       512.00
     number of Kohn-Sham states=          307
     kinetic-energy cutoff     =      71.0000  Ry
     charge density cutoff     =     430.0000  Ry
     scf convergence threshold =      1.0E-06
     mixing beta               =       0.1000
     number of iterations used =           10  TF        mixing
     energy convergence thresh.=      1.0E-04
     force convergence thresh. =      1.0E-03
     Exchange-correlation= SLA  PW   PBX  PBC
                           (   1   4   3   4   0   0   0)
     nstep                     =           40


     celldm(1)=  14.400742  celldm(2)=   0.000000  celldm(3)=   0.000000
     celldm(4)=   0.000000  celldm(5)=   0.000000  celldm(6)=   0.000000

     crystal axes: (cart. coord. in units of alat)
               a(1) = (   1.000000   0.000000   0.000000 )  
               a(2) = (   0.000000   1.000000   0.000000 )  
               a(3) = (   0.000000   0.000000   1.150000 )  

     reciprocal axes: (cart. coord. in units 2 pi/alat)
               b(1) = (  1.000000  0.000000  0.000000 )  
               b(2) = (  0.000000  1.000000  0.000000 )  
               b(3) = (  0.000000  0.000000  0.869565 )  


     PseudoPot. # 1 for Ru read from file:
     /rds/homes/b/bxp912/pp/Ru.pbe-spn-kjpaw_psl.1.0.0.UPF
     MD5 check sum: 0ae1f594dea09af7be8575c3a481d1ae
     Pseudo is Projector augmented-wave + core cor, Zval = 16.0
     Generated using "atomic" code by A. Dal Corso  v.5.1
     Shape of augmentation charge: PSQ
     Using radial grid of 1233 points,  6 beta functions with: 
                l(1) =   0
                l(2) =   0
                l(3) =   1
                l(4) =   1
                l(5) =   2
                l(6) =   2
     Q(r) pseudized with 0 coefficients 


     atomic species   valence    mass     pseudopotential
        Ru            16.00   101.07000     Ru( 1.00)

      8 Sym. Ops. (no inversion) found



   Cartesian axes

     site n.     atom                  positions (alat units)
         1           Ru  tau(   1) = (   0.0000000   0.0000000   0.0000000  )
         2           Ru  tau(   2) = (   0.2500000   0.2500000   0.0000000  )
         3           Ru  tau(   3) = (   0.2500000   0.0000000   0.2500000  )
         4           Ru  tau(   4) = (   0.0000000   0.2500000   0.2500000  )
         5           Ru  tau(   5) = (   0.0000000   0.0000000   0.6500000  )
         6           Ru  tau(   6) = (   0.2500000   0.2500000   0.6500000  )
         7           Ru  tau(   7) = (   0.2500000   0.0000000   0.9000000  )
         8           Ru  tau(   8) = (   0.0000000   0.2500000   0.9000000  )
         9           Ru  tau(   9) = (   0.0000000   0.5000000   0.0000000  )
        10           Ru  tau(  10) = (   0.2500000   0.7500000   0.0000000  )
        11           Ru  tau(  11) = (   0.2500000   0.5000000   0.2500000  )
        12           Ru  tau(  12) = (   0.0000000   0.7500000   0.2500000  )
        13           Ru  tau(  13) = (   0.0000000   0.5000000   0.6500000  )
        14           Ru  tau(  14) = (   0.2500000   0.7500000   0.6500000  )
        15           Ru  tau(  15) = (   0.2500000   0.5000000   0.9000000  )
        16           Ru  tau(  16) = (   0.0000000   0.7500000   0.9000000  )
        17           Ru  tau(  17) = (   0.5000000   0.0000000   0.0000000  )
        18           Ru  tau(  18) = (   0.7500000   0.2500000   0.0000000  )
        19           Ru  tau(  19) = (   0.7500000   0.0000000   0.2500000  )
        20           Ru  tau(  20) = (   0.5000000   0.2500000   0.2500000  )
        21           Ru  tau(  21) = (   0.5000000   0.0000000   0.6500000  )
        22           Ru  tau(  22) = (   0.7500000   0.2500000   0.6500000  )
        23           Ru  tau(  23) = (   0.7500000   0.0000000   0.9000000  )
        24           Ru  tau(  24) = (   0.5000000   0.2500000   0.9000000  )
        25           Ru  tau(  25) = (   0.5000000   0.5000000   0.0000000  )
        26           Ru  tau(  26) = (   0.7500000   0.7500000   0.0000000  )
        27           Ru  tau(  27) = (   0.7500000   0.5000000   0.2500000  )
        28           Ru  tau(  28) = (   0.5000000   0.7500000   0.2500000  )
        29           Ru  tau(  29) = (   0.5000000   0.5000000   0.6500000  )
        30           Ru  tau(  30) = (   0.7500000   0.7500000   0.6500000  )
        31           Ru  tau(  31) = (   0.7500000   0.5000000   0.9000000  )
        32           Ru  tau(  32) = (   0.5000000   0.7500000   0.9000000  )

     number of k points=    75  Marzari-Vanderbilt smearing, width (Ry)=  0.0400
                       cart. coord. in units 2pi/alat
        k(    1) = (   0.0555556   0.0555556   0.0483092), wk =   0.0219479
        k(    2) = (   0.0555556   0.0555556   0.1449275), wk =   0.0219479
        k(    3) = (   0.0555556   0.0555556   0.2415459), wk =   0.0219479
        k(    4) = (   0.0555556   0.0555556   0.3381643), wk =   0.0219479
        k(    5) = (   0.0555556   0.0555556  -0.4347826), wk =   0.0109739
        k(    6) = (   0.0555556   0.1666667   0.0483092), wk =   0.0438957
        k(    7) = (   0.0555556   0.1666667   0.1449275), wk =   0.0438957
        k(    8) = (   0.0555556   0.1666667   0.2415459), wk =   0.0438957
        k(    9) = (   0.0555556   0.1666667   0.3381643), wk =   0.0438957
        k(   10) = (   0.0555556   0.1666667  -0.4347826), wk =   0.0219479
        k(   11) = (   0.0555556   0.2777778   0.0483092), wk =   0.0438957
        k(   12) = (   0.0555556   0.2777778   0.1449275), wk =   0.0438957
        k(   13) = (   0.0555556   0.2777778   0.2415459), wk =   0.0438957
        k(   14) = (   0.0555556   0.2777778   0.3381643), wk =   0.0438957
        k(   15) = (   0.0555556   0.2777778  -0.4347826), wk =   0.0219479
        k(   16) = (   0.0555556   0.3888889   0.0483092), wk =   0.0438957
        k(   17) = (   0.0555556   0.3888889   0.1449275), wk =   0.0438957
        k(   18) = (   0.0555556   0.3888889   0.2415459), wk =   0.0438957
        k(   19) = (   0.0555556   0.3888889   0.3381643), wk =   0.0438957
        k(   20) = (   0.0555556   0.3888889  -0.4347826), wk =   0.0219479
        k(   21) = (   0.0555556  -0.5000000   0.0483092), wk =   0.0219479
        k(   22) = (   0.0555556  -0.5000000   0.1449275), wk =   0.0219479
        k(   23) = (   0.0555556  -0.5000000   0.2415459), wk =   0.0219479
        k(   24) = (   0.0555556  -0.5000000   0.3381643), wk =   0.0219479
        k(   25) = (   0.0555556  -0.5000000  -0.4347826), wk =   0.0109739
        k(   26) = (   0.1666667   0.1666667   0.0483092), wk =   0.0219479
        k(   27) = (   0.1666667   0.1666667   0.1449275), wk =   0.0219479
        k(   28) = (   0.1666667   0.1666667   0.2415459), wk =   0.0219479
        k(   29) = (   0.1666667   0.1666667   0.3381643), wk =   0.0219479
        k(   30) = (   0.1666667   0.1666667  -0.4347826), wk =   0.0109739
        k(   31) = (   0.1666667   0.2777778   0.0483092), wk =   0.0438957
        k(   32) = (   0.1666667   0.2777778   0.1449275), wk =   0.0438957
        k(   33) = (   0.1666667   0.2777778   0.2415459), wk =   0.0438957
        k(   34) = (   0.1666667   0.2777778   0.3381643), wk =   0.0438957
        k(   35) = (   0.1666667   0.2777778  -0.4347826), wk =   0.0219479
        k(   36) = (   0.1666667   0.3888889   0.0483092), wk =   0.0438957
        k(   37) = (   0.1666667   0.3888889   0.1449275), wk =   0.0438957
        k(   38) = (   0.1666667   0.3888889   0.2415459), wk =   0.0438957
        k(   39) = (   0.1666667   0.3888889   0.3381643), wk =   0.0438957
        k(   40) = (   0.1666667   0.3888889  -0.4347826), wk =   0.0219479
        k(   41) = (   0.1666667  -0.5000000   0.0483092), wk =   0.0219479
        k(   42) = (   0.1666667  -0.5000000   0.1449275), wk =   0.0219479
        k(   43) = (   0.1666667  -0.5000000   0.2415459), wk =   0.0219479
        k(   44) = (   0.1666667  -0.5000000   0.3381643), wk =   0.0219479
        k(   45) = (   0.1666667  -0.5000000  -0.4347826), wk =   0.0109739
        k(   46) = (   0.2777778   0.2777778   0.0483092), wk =   0.0219479
        k(   47) = (   0.2777778   0.2777778   0.1449275), wk =   0.0219479
        k(   48) = (   0.2777778   0.2777778   0.2415459), wk =   0.0219479
        k(   49) = (   0.2777778   0.2777778   0.3381643), wk =   0.0219479
        k(   50) = (   0.2777778   0.2777778  -0.4347826), wk =   0.0109739
        k(   51) = (   0.2777778   0.3888889   0.0483092), wk =   0.0438957
        k(   52) = (   0.2777778   0.3888889   0.1449275), wk =   0.0438957
        k(   53) = (   0.2777778   0.3888889   0.2415459), wk =   0.0438957
        k(   54) = (   0.2777778   0.3888889   0.3381643), wk =   0.0438957
        k(   55) = (   0.2777778   0.3888889  -0.4347826), wk =   0.0219479
        k(   56) = (   0.2777778  -0.5000000   0.0483092), wk =   0.0219479
        k(   57) = (   0.2777778  -0.5000000   0.1449275), wk =   0.0219479
        k(   58) = (   0.2777778  -0.5000000   0.2415459), wk =   0.0219479
        k(   59) = (   0.2777778  -0.5000000   0.3381643), wk =   0.0219479
        k(   60) = (   0.2777778  -0.5000000  -0.4347826), wk =   0.0109739
        k(   61) = (   0.3888889   0.3888889   0.0483092), wk =   0.0219479
        k(   62) = (   0.3888889   0.3888889   0.1449275), wk =   0.0219479
        k(   63) = (   0.3888889   0.3888889   0.2415459), wk =   0.0219479
        k(   64) = (   0.3888889   0.3888889   0.3381643), wk =   0.0219479
        k(   65) = (   0.3888889   0.3888889  -0.4347826), wk =   0.0109739
        k(   66) = (   0.3888889  -0.5000000   0.0483092), wk =   0.0219479
        k(   67) = (   0.3888889  -0.5000000   0.1449275), wk =   0.0219479
        k(   68) = (   0.3888889  -0.5000000   0.2415459), wk =   0.0219479
        k(   69) = (   0.3888889  -0.5000000   0.3381643), wk =   0.0219479
        k(   70) = (   0.3888889  -0.5000000  -0.4347826), wk =   0.0109739
        k(   71) = (  -0.5000000  -0.5000000   0.0483092), wk =   0.0054870
        k(   72) = (  -0.5000000  -0.5000000   0.1449275), wk =   0.0054870
        k(   73) = (  -0.5000000  -0.5000000   0.2415459), wk =   0.0054870
        k(   74) = (  -0.5000000  -0.5000000   0.3381643), wk =   0.0054870
        k(   75) = (  -0.5000000  -0.5000000  -0.4347826), wk =   0.0027435

     Dense  grid:   517413 G-vectors     FFT dimensions: (  96,  96, 120)

     Smooth grid:   277413 G-vectors     FFT dimensions: (  80,  80,  90)

     Estimated max dynamical RAM per process >     212.69 MB

     Estimated total dynamical RAM >      14.95 GB

     Check: negative core charge=   -0.000002

     Initial potential from superposition of free atoms

     starting charge  511.97959, renormalised to  512.00000
     Starting wfcs are  320 randomized atomic wfcs
     Checking if some PAW data can be deallocated... 

     total cpu time spent up to now is       35.3 secs

     Self-consistent Calculation

     iteration #  1     ecut=    71.00 Ry     beta= 0.10
     Davidson diagonalization with overlap
     ethr =  1.00E-02,  avg # of iterations =  3.7

     total cpu time spent up to now is      125.0 secs

     total energy              =  -13812.65150668 Ry
     estimated scf accuracy    <       6.43491647 Ry

     iteration #  2     ecut=    71.00 Ry     beta= 0.10
     Davidson diagonalization with overlap
     ethr =  1.26E-03,  avg # of iterations =  2.5

     total cpu time spent up to now is      198.4 secs

     total energy              =  -13812.50790990 Ry
     estimated scf accuracy    <       4.03337976 Ry

     iteration #  3     ecut=    71.00 Ry     beta= 0.10
     Davidson diagonalization with overlap
     ethr =  7.88E-04,  avg # of iterations =  1.4

     total cpu time spent up to now is      261.4 secs

     total energy              =  -13812.42617950 Ry
     estimated scf accuracy    <       1.11926009 Ry

     iteration #  4     ecut=    71.00 Ry     beta= 0.10
     Davidson diagonalization with overlap
     ethr =  2.19E-04,  avg # of iterations =  2.2

     total cpu time spent up to now is      328.2 secs

     total energy              =  -13812.22408597 Ry
     estimated scf accuracy    <       0.66966138 Ry

     iteration #  5     ecut=    71.00 Ry     beta= 0.10
     Davidson diagonalization with overlap
     ethr =  1.31E-04,  avg # of iterations =  4.1

     total cpu time spent up to now is      413.2 secs

     total energy              =  -13812.33835816 Ry
     estimated scf accuracy    <       0.24917648 Ry

     iteration #  6     ecut=    71.00 Ry     beta= 0.10
     Davidson diagonalization with overlap
     ethr =  4.87E-05,  avg # of iterations =  2.8

     total cpu time spent up to now is      485.1 secs

     total energy              =  -13812.30111923 Ry
     estimated scf accuracy    <       0.10486570 Ry

     iteration #  7     ecut=    71.00 Ry     beta= 0.10
     Davidson diagonalization with overlap
     c_bands:  1 eigenvalues not converged
     ethr =  2.05E-05,  avg # of iterations =  3.1

     total cpu time spent up to now is      577.1 secs

     total energy              =  -13812.33110448 Ry
     estimated scf accuracy    <       0.01964462 Ry

     iteration #  8     ecut=    71.00 Ry     beta= 0.10
     Davidson diagonalization with overlap
     c_bands:  2 eigenvalues not converged
     ethr =  3.84E-06,  avg # of iterations =  3.2

     total cpu time spent up to now is      647.2 secs

     total energy              =  -13812.32836667 Ry
     estimated scf accuracy    <       0.01266263 Ry

     iteration #  9     ecut=    71.00 Ry     beta= 0.10
     Davidson diagonalization with overlap
     ethr =  2.47E-06,  avg # of iterations =  2.4

     total cpu time spent up to now is      712.3 secs

     total energy              =  -13812.32785882 Ry
     estimated scf accuracy    <       0.00274798 Ry

     iteration # 10     ecut=    71.00 Ry     beta= 0.10
     Davidson diagonalization with overlap
     ethr =  5.37E-07,  avg # of iterations =  2.3

     total cpu time spent up to now is      794.8 secs

     total energy              =  -13812.32818504 Ry
     estimated scf accuracy    <       0.00021443 Ry

     iteration # 11     ecut=    71.00 Ry     beta= 0.10
     Davidson diagonalization with overlap
     ethr =  4.19E-08,  avg # of iterations =  2.7

     total cpu time spent up to now is      878.8 secs

     total energy              =  -13812.32823232 Ry
     estimated scf accuracy    <       0.00005748 Ry

     iteration # 12     ecut=    71.00 Ry     beta= 0.10
     Davidson diagonalization with overlap
     ethr =  1.12E-08,  avg # of iterations =  2.0

     total cpu time spent up to now is      956.8 secs

     total energy              =  -13812.32823560 Ry
     estimated scf accuracy    <       0.00006436 Ry

     iteration # 13     ecut=    71.00 Ry     beta= 0.10
     Davidson diagonalization with overlap
     ethr =  1.12E-08,  avg # of iterations =  2.0

     total cpu time spent up to now is     1032.8 secs

     total energy              =  -13812.32823885 Ry
     estimated scf accuracy    <       0.00000917 Ry

     iteration # 14     ecut=    71.00 Ry     beta= 0.10
     Davidson diagonalization with overlap
     ethr =  1.79E-09,  avg # of iterations =  3.1

     total cpu time spent up to now is     1115.8 secs

     total energy              =  -13812.32824040 Ry
     estimated scf accuracy    <       0.00000173 Ry

     iteration # 15     ecut=    71.00 Ry     beta= 0.10
     Davidson diagonalization with overlap
     ethr =  3.38E-10,  avg # of iterations =  2.0

     total cpu time spent up to now is     1184.1 secs

     End of self-consistent calculation

          k = 0.0556 0.0556 0.0483 ( 34731 PWs)   bands (ev):

   -53.5421 -53.4613 -53.4612 -53.4460 -53.4460 -53.4346 -53.4284 -53.4226
   -53.4226 -53.4186 -53.4011 -53.4011 -53.3954 -53.3953 -53.3685 -53.3685
   -53.1607 -53.1558 -53.1158 -53.1158 -53.1144 -53.1144 -53.1132 -53.1131
   -53.1124 -53.1124 -53.1070 -53.1069 -53.1059 -53.1059 -53.0589 -53.0589
   -23.8699 -23.8695 -23.8695 -23.8647 -23.8298 -23.8298 -23.7754 -23.6625
   -23.6625 -23.6574 -23.6574 -23.6166 -23.6166 -23.5943 -23.5943 -23.5841
   -23.5841 -23.5659 -23.5659 -23.5366 -23.5361 -23.5361 -23.5307 -23.5270
   -23.5269 -23.4724 -23.4724 -23.4428 -23.4428 -23.4151 -23.3682 -23.3682
   -23.3527 -23.3527 -23.3268 -23.3268 -23.2896 -23.2896 -23.2845 -23.2836
   -23.2534 -23.2534 -23.2461 -23.2461 -23.2422 -23.2422 -23.1926 -23.1746
   -23.1746 -23.1523 -23.1354 -23.1294 -23.1294 -23.1268 -23.1193 -23.1154
   -23.1091 -23.1091 -23.0956 -23.0956 -23.0820 -23.0819 -23.0596 -23.0595
   -23.0568 -23.0568 -23.0523 -23.0523 -23.0400 -23.0269 -23.0269 -23.0211
   -23.0211 -23.0084 -23.0084 -22.9946 -22.9883 -22.9883 -22.9815 -22.9741
   -22.9741 -22.9584 -22.9584 -22.9548 -22.9547 -22.9452 -22.9452 -22.9173
   -22.8510 -22.8487 -22.8366 -22.8323 -22.8250 -22.8250 -22.8215 -22.8213
    12.2482  13.6146  13.7237  13.7237  13.9801  13.9963  13.9993  13.9993
    14.0423  14.2114  14.2114  14.2221  14.4293  14.4294  14.4458  14.6127
    14.6127  14.9456  14.9456  14.9642  15.0964  15.0964  15.1249  15.1249
    15.2932  15.2932  15.4074  15.4264  15.4280  15.4280  15.4411  15.4411
    15.6266  15.6266  15.6588  15.6588  15.6777  15.6777  15.7955  15.7955
    15.8320  15.8320  15.9256  15.9750  15.9750  16.0987  16.0987  16.1123
    16.1123  16.3665  16.3665  16.3886  16.3886  16.3981  16.4380  16.4380
    16.4997  16.4997  16.6175  16.6175  16.6221  16.6857  16.6857  16.7412
    16.7516  16.7517  16.7693  16.7784  16.7784  16.8124  16.9846  16.9846
    17.0511  17.0511  17.0523  17.0664  17.1844  17.2280  17.2352  17.2730
    17.2730  17.3405  17.3574  17.4849  17.4849  17.6520  17.6520  17.8941
    17.8941  18.0573  18.0573  18.0693  18.0693  18.1638  18.1638  18.2895
    18.3038  18.3286  18.3286  18.3461  18.3461  18.3592  18.3592  18.5000
    18.5000  18.5093  18.5636  18.5722  18.5722  18.5824  18.6170  18.6170
    18.7883  18.7883  18.8923  18.8923  18.9528  18.9528  19.0275  19.1463
    19.1463  19.3186  19.3186  19.3335  19.3335  19.3346  19.3346  19.5368
    19.6631  19.6631  19.7166  19.7166  19.7460  19.7543  19.7543  19.7808
    19.7890  19.7890  19.8540  19.8704  19.8704  19.9681  19.9839  20.1533
    20.1533  20.1664  20.3111  20.5880  20.5880  20.6855  20.7205  20.7205
    20.7773  20.7773  20.8300  20.8819  20.9918  21.0089  21.0257  21.1508
    21.1508  21.1620  21.1620  21.2745  21.2920  21.3940  21.3940  21.5718
    21.5718  21.8866  21.8866  22.0775  22.0775  22.1977  22.4990  22.4990
    22.6676  22.6676  22.9082

          k = 0.0556 0.0556 0.1449 ( 34728 PWs)   bands (ev):

   -53.5421 -53.4613 -53.4612 -53.4460 -53.4460 -53.4346 -53.4284 -53.4226
   -53.4226 -53.4186 -53.4011 -53.4011 -53.3954 -53.3953 -53.3685 -53.3685
   -53.1604 -53.1560 -53.1157 -53.1157 -53.1145 -53.1144 -53.1132 -53.1131
   -53.1124 -53.1124 -53.1069 -53.1069 -53.1059 -53.1059 -53.0589 -53.0589
   -23.8698 -23.8693 -23.8693 -23.8645 -23.8297 -23.8297 -23.7749 -23.6625
   -23.6625 -23.6574 -23.6574 -23.6166 -23.6166 -23.5944 -23.5944 -23.5844
   -23.5844 -23.5658 -23.5658 -23.5375 -23.5368 -23.5368 -23.5313 -23.5269
   -23.5268 -23.4725 -23.4724 -23.4426 -23.4426 -23.4174 -23.3684 -23.3684
   -23.3526 -23.3526 -23.3270 -23.3269 -23.2886 -23.2886 -23.2846 -23.2836
   -23.2538 -23.2538 -23.2470 -23.2470 -23.2425 -23.2424 -23.1913 -23.1735
   -23.1735 -23.1514 -23.1354 -23.1294 -23.1294 -23.1264 -23.1194 -23.1155
   -23.1073 -23.1073 -23.0949 -23.0949 -23.0803 -23.0803 -23.0593 -23.0593
   -23.0575 -23.0575 -23.0537 -23.0537 -23.0355 -23.0291 -23.0291 -23.0213
   -23.0213 -23.0083 -23.0083 -22.9957 -22.9889 -22.9889 -22.9817 -22.9748
   -22.9748 -22.9586 -22.9586 -22.9539 -22.9539 -22.9443 -22.9443 -22.9206
   -22.8505 -22.8481 -22.8371 -22.8328 -22.8250 -22.8250 -22.8215 -22.8213
    12.2849  13.6059  13.7352  13.7352  13.9925  14.0130  14.0141  14.0141
    14.0453  14.0608  14.2248  14.2248  14.4472  14.4472  14.5197  14.6299
    14.6299  14.9224  14.9224  14.9513  15.1004  15.1004  15.1315  15.1315
    15.2951  15.2951  15.3354  15.3778  15.3778  15.3792  15.4088  15.4088
    15.6244  15.6244  15.6490  15.6490  15.6728  15.6728  15.7642  15.7642
    15.8209  15.8209  15.9463  15.9716  15.9716  16.0895  16.0895  16.1048
    16.1048  16.3419  16.3419  16.3634  16.3788  16.3788  16.4113  16.4113
    16.4775  16.4775  16.5395  16.5395  16.6211  16.6276  16.6276  16.7298
    16.7668  16.7918  16.7918  16.8240  16.8574  16.8574  17.0496  17.0496
    17.1354  17.1465  17.1465  17.2070  17.2313  17.2397  17.3192  17.3192
    17.3259  17.3546  17.3648  17.6086  17.6086  17.6471  17.6471  17.8871
    17.8871  17.9165  17.9165  18.0194  18.0194  18.0600  18.0600  18.2748
    18.2930  18.3161  18.3161  18.3398  18.3398  18.4352  18.4352  18.5204
    18.5305  18.5925  18.5925  18.6531  18.6605  18.6605  18.6679  18.6679
    18.7868  18.7868  18.9057  18.9057  18.9547  18.9547  19.0148  19.1177
    19.1177  19.2759  19.2759  19.3631  19.3631  19.3936  19.3936  19.5374
    19.6678  19.6678  19.7174  19.7174  19.7190  19.7709  19.7967  19.7967
    19.8170  19.8170  19.8277  19.9172  19.9175  19.9768  19.9768  19.9864
    20.0123  20.0123  20.1703  20.4190  20.4190  20.6708  20.6708  20.6884
    20.8002  20.8002  20.8138  20.8717  20.9341  21.0231  21.1098  21.1098
    21.1208  21.1208  21.2391  21.2451  21.5770  21.5770  21.6400  21.6400
    21.7040  21.7132  21.7132  21.8904  21.8904  21.9269  22.1366  22.1366
    22.8534  23.0719  23.0719

          k = 0.0556 0.0556 0.2415 ( 34714 PWs)   bands (ev):

   -53.5420 -53.4613 -53.4612 -53.4460 -53.4460 -53.4347 -53.4284 -53.4226
   -53.4226 -53.4186 -53.4011 -53.4011 -53.3954 -53.3953 -53.3685 -53.3685
   -53.1600 -53.1565 -53.1156 -53.1156 -53.1146 -53.1146 -53.1132 -53.1131
   -53.1124 -53.1124 -53.1068 -53.1068 -53.1060 -53.1060 -53.0588 -53.0588
   -23.8695 -23.8690 -23.8690 -23.8641 -23.8295 -23.8295 -23.7740 -23.6626
   -23.6625 -23.6574 -23.6574 -23.6166 -23.6166 -23.5946 -23.5946 -23.5848
   -23.5848 -23.5657 -23.5657 -23.5388 -23.5379 -23.5379 -23.5322 -23.5268
   -23.5268 -23.4726 -23.4726 -23.4421 -23.4421 -23.4208 -23.3686 -23.3686
   -23.3524 -23.3524 -23.3272 -23.3272 -23.2868 -23.2868 -23.2846 -23.2836
   -23.2544 -23.2544 -23.2485 -23.2485 -23.2428 -23.2428 -23.1893 -23.1718
   -23.1718 -23.1500 -23.1354 -23.1294 -23.1294 -23.1258 -23.1194 -23.1156
   -23.1042 -23.1042 -23.0939 -23.0939 -23.0773 -23.0773 -23.0592 -23.0592
   -23.0587 -23.0587 -23.0559 -23.0559 -23.0324 -23.0324 -23.0281 -23.0218
   -23.0218 -23.0083 -23.0083 -22.9972 -22.9898 -22.9898 -22.9820 -22.9758
   -22.9758 -22.9588 -22.9588 -22.9528 -22.9528 -22.9430 -22.9430 -22.9262
   -22.8496 -22.8472 -22.8379 -22.8337 -22.8250 -22.8250 -22.8215 -22.8213
    12.3482  13.5737  13.7536  13.7536  13.9010  14.0151  14.0376  14.0383
    14.0383  14.0501  14.2465  14.2465  14.4763  14.4763  14.5626  14.6581
    14.6581  14.8865  14.8865  14.9321  15.1062  15.1062  15.1413  15.1413
    15.2447  15.2872  15.2872  15.2966  15.2966  15.2975  15.3760  15.3760
    15.6223  15.6223  15.6424  15.6424  15.6637  15.6637  15.6693  15.6693
    15.8562  15.8562  15.9642  15.9642  15.9783  16.0743  16.0743  16.0926
    16.0926  16.2981  16.2981  16.3342  16.3692  16.3692  16.3741  16.3741
    16.4598  16.4598  16.4786  16.4786  16.5558  16.5558  16.6173  16.7114
    16.7576  16.7965  16.7965  16.8335  16.9774  16.9774  17.1388  17.1388
    17.2137  17.2137  17.2369  17.2411  17.2463  17.3765  17.3888  17.4536
    17.4858  17.4858  17.5463  17.6386  17.6386  17.7651  17.7651  17.8035
    17.8035  17.8348  17.8349  17.8769  17.8769  18.0478  18.0478  18.2543
    18.2749  18.2991  18.2992  18.3432  18.3432  18.4650  18.4826  18.5095
    18.5095  18.6722  18.6722  18.7341  18.7341  18.7669  18.7669  18.8194
    18.8194  18.8879  18.9242  18.9242  18.9493  18.9493  18.9998  19.0761
    19.0761  19.2104  19.2104  19.3628  19.3628  19.3719  19.3719  19.3817
    19.4761  19.4919  19.4919  19.5384  19.8050  19.8050  19.8104  19.8662
    19.8662  19.8948  19.9925  19.9925  20.0043  20.0043  20.0140  20.0147
    20.1699  20.1699  20.1819  20.2002  20.2002  20.5810  20.5810  20.6915
    20.7590  20.7895  20.7932  20.7933  20.8539  21.0197  21.0423  21.0423
    21.0522  21.0522  21.1968  21.3265  21.3265  21.5471  21.5557  21.5819
    21.5819  21.7286  21.7286  21.8945  21.8946  21.9819  21.9819  22.1774
    22.7508  23.2825  23.2825

          k = 0.0556 0.0556 0.3382 ( 34706 PWs)   bands (ev):

   -53.5420 -53.4612 -53.4612 -53.4460 -53.4460 -53.4347 -53.4284 -53.4226
   -53.4226 -53.4186 -53.4011 -53.4011 -53.3954 -53.3953 -53.3685 -53.3685
   -53.1594 -53.1571 -53.1154 -53.1154 -53.1148 -53.1148 -53.1132 -53.1131
   -53.1124 -53.1124 -53.1067 -53.1067 -53.1061 -53.1061 -53.0588 -53.0588
   -23.8692 -23.8687 -23.8687 -23.8637 -23.8294 -23.8294 -23.7733 -23.6626
   -23.6626 -23.6574 -23.6573 -23.6166 -23.6166 -23.5947 -23.5947 -23.5852
   -23.5852 -23.5655 -23.5655 -23.5399 -23.5389 -23.5389 -23.5330 -23.5267
   -23.5267 -23.4726 -23.4726 -23.4418 -23.4418 -23.4239 -23.3689 -23.3689
   -23.3523 -23.3523 -23.3274 -23.3274 -23.2851 -23.2851 -23.2847 -23.2836
   -23.2549 -23.2549 -23.2500 -23.2500 -23.2431 -23.2430 -23.1876 -23.1704
   -23.1704 -23.1487 -23.1354 -23.1294 -23.1294 -23.1255 -23.1193 -23.1157
   -23.1012 -23.1012 -23.0930 -23.0930 -23.0740 -23.0740 -23.0602 -23.0602
   -23.0596 -23.0596 -23.0578 -23.0578 -23.0353 -23.0353 -23.0224 -23.0224
   -23.0209 -23.0083 -23.0083 -22.9985 -22.9907 -22.9907 -22.9823 -22.9765
   -22.9765 -22.9589 -22.9589 -22.9518 -22.9518 -22.9420 -22.9420 -22.9318
   -22.8487 -22.8463 -22.8388 -22.8345 -22.8250 -22.8250 -22.8215 -22.8213
    12.4139  13.5085  13.7707  13.7707  13.8131  14.0392  14.0544  14.0583
    14.0614  14.0614  14.2668  14.2668  14.5043  14.5043  14.5792  14.6851
    14.6851  14.8544  14.8544  14.9156  15.1109  15.1109  15.1492  15.1492
    15.1754  15.2118  15.2118  15.2225  15.2963  15.2963  15.3447  15.3447
    15.5920  15.5920  15.6233  15.6233  15.6412  15.6412  15.6530  15.6530
    15.8893  15.8893  15.9530  15.9530  16.0069  16.0590  16.0590  16.0810
    16.0810  16.2640  16.2640  16.3194  16.3451  16.3451  16.3531  16.3531
    16.4468  16.4468  16.4515  16.4515  16.4997  16.4997  16.6150  16.6940
    16.7494  16.7959  16.7959  16.8376  17.0928  17.0928  17.2263  17.2263
    17.2347  17.2347  17.2424  17.2518  17.3006  17.3873  17.4441  17.6173
    17.6173  17.6531  17.6531  17.6709  17.6709  17.7059  17.7059  17.7272
    17.7709  17.8679  17.8679  17.9904  17.9904  18.0381  18.0381  18.2378
    18.2579  18.2918  18.2918  18.3482  18.3482  18.4139  18.4425  18.5810
    18.5810  18.6756  18.6756  18.8121  18.8121  18.8555  18.8555  18.8852
    18.8852  18.9295  18.9295  18.9507  18.9507  18.9697  19.0265  19.0265
    19.0504  19.0504  19.0529  19.1232  19.1386  19.1386  19.2329  19.3580
    19.3580  19.5394  19.5840  19.5840  19.8471  19.8862  19.8862  19.9327
    19.9327  19.9470  19.9536  19.9536  20.0139  20.0139  20.0377  20.0944
    20.2018  20.2682  20.2682  20.4636  20.4846  20.4846  20.5093  20.5093
    20.6919  20.7684  20.7763  20.7763  20.8360  20.9404  20.9404  20.9768
    20.9768  20.9935  20.9935  21.0180  21.1498  21.2880  21.3249  21.3249
    21.5847  21.5847  21.8186  21.8971  21.8971  22.3066  22.3066  22.5520
    22.6810  23.1127  23.1127

          k = 0.0556 0.0556-0.4348 ( 34662 PWs)   bands (ev):

   -53.5420 -53.4613 -53.4612 -53.4460 -53.4460 -53.4347 -53.4284 -53.4226
   -53.4226 -53.4186 -53.4011 -53.4011 -53.3953 -53.3953 -53.3685 -53.3685
   -53.1591 -53.1574 -53.1153 -53.1153 -53.1149 -53.1149 -53.1132 -53.1131
   -53.1124 -53.1124 -53.1066 -53.1066 -53.1062 -53.1062 -53.0588 -53.0588
   -23.8691 -23.8685 -23.8685 -23.8636 -23.8294 -23.8294 -23.7730 -23.6626
   -23.6626 -23.6573 -23.6573 -23.6166 -23.6165 -23.5948 -23.5947 -23.5853
   -23.5853 -23.5655 -23.5655 -23.5404 -23.5392 -23.5392 -23.5333 -23.5266
   -23.5266 -23.4726 -23.4726 -23.4417 -23.4417 -23.4251 -23.3690 -23.3690
   -23.3523 -23.3523 -23.3275 -23.3275 -23.2847 -23.2845 -23.2845 -23.2836
   -23.2551 -23.2551 -23.2506 -23.2506 -23.2432 -23.2432 -23.1869 -23.1697
   -23.1697 -23.1482 -23.1353 -23.1294 -23.1294 -23.1253 -23.1193 -23.1158
   -23.0999 -23.0998 -23.0926 -23.0926 -23.0724 -23.0724 -23.0610 -23.0610
   -23.0601 -23.0601 -23.0584 -23.0584 -23.0364 -23.0364 -23.0227 -23.0227
   -23.0177 -23.0083 -23.0083 -22.9990 -22.9909 -22.9909 -22.9824 -22.9768
   -22.9768 -22.9589 -22.9589 -22.9515 -22.9515 -22.9416 -22.9416 -22.9343
   -22.8483 -22.8459 -22.8392 -22.8349 -22.8250 -22.8250 -22.8215 -22.8212
    12.4435  13.4700  13.7777  13.7777  13.7913  14.0506  14.0562  14.0655
    14.0710  14.0710  14.2751  14.2751  14.5161  14.5161  14.5830  14.6964
    14.6964  14.8416  14.8417  14.9093  15.1126  15.1126  15.1507  15.1519
    15.1519  15.1828  15.1828  15.1915  15.2956  15.2956  15.3319  15.3319
    15.5626  15.5626  15.6255  15.6255  15.6416  15.6416  15.6469  15.6469
    15.9061  15.9061  15.9444  15.9444  16.0184  16.0523  16.0523  16.0761
    16.0761  16.2524  16.2524  16.3152  16.3346  16.3346  16.3438  16.3438
    16.4385  16.4385  16.4493  16.4493  16.4784  16.4784  16.6144  16.6868
    16.7463  16.7952  16.7952  16.8387  17.1513  17.1513  17.2404  17.2404
    17.2447  17.2539  17.2710  17.2710  17.3156  17.3917  17.4728  17.5722
    17.5722  17.5948  17.5948  17.6377  17.6377  17.8153  17.8153  17.8645
    17.8645  17.8734  17.8790  18.0345  18.0345  18.0717  18.0717  18.2316
    18.2509  18.2968  18.2968  18.3502  18.3502  18.3935  18.4271  18.6260
    18.6261  18.6548  18.6548  18.8644  18.8644  18.8782  18.8953  18.8953
    18.9020  18.9020  18.9035  18.9035  18.9116  18.9116  18.9636  18.9835
    18.9870  18.9870  18.9899  18.9899  19.0932  19.0932  19.3484  19.3484
    19.4595  19.5398  19.6137  19.6137  19.8622  19.8758  19.8758  19.9200
    19.9200  19.9608  19.9608  19.9651  20.0252  20.0252  20.0468  20.0774
    20.2135  20.2863  20.4393  20.4393  20.5883  20.5883  20.5894  20.5894
    20.6911  20.7602  20.7683  20.7683  20.7751  20.7751  20.8283  20.9498
    20.9498  20.9595  20.9595  21.0182  21.0299  21.0299  21.1295  21.2014
    21.5856  21.5856  21.8979  21.8979  21.9464  22.4746  22.4747  22.5160
    22.8818  22.9998  22.9998

          k = 0.0556 0.1667 0.0483 ( 34721 PWs)   bands (ev):

   -53.5393 -53.4763 -53.4601 -53.4452 -53.4343 -53.4334 -53.4311 -53.4267
   -53.4171 -53.4149 -53.4070 -53.4016 -53.3962 -53.3899 -53.3710 -53.3693
   -53.1592 -53.1545 -53.1245 -53.1226 -53.1158 -53.1144 -53.1139 -53.1136
   -53.1116 -53.1115 -53.1072 -53.1061 -53.0981 -53.0973 -53.0605 -53.0605
   -23.8651 -23.8610 -23.8597 -23.8510 -23.8219 -23.8212 -23.7707 -23.6767
   -23.6762 -23.6760 -23.6670 -23.6661 -23.6464 -23.6421 -23.5923 -23.5888
   -23.5771 -23.5733 -23.5355 -23.5321 -23.5299 -23.5223 -23.5192 -23.4884
   -23.4872 -23.4836 -23.4796 -23.4580 -23.4283 -23.4085 -23.4051 -23.3769
   -23.3469 -23.3427 -23.3037 -23.2925 -23.2859 -23.2832 -23.2740 -23.2647
   -23.2647 -23.2630 -23.2504 -23.2428 -23.2399 -23.2330 -23.2092 -23.1969
   -23.1615 -23.1554 -23.1491 -23.1417 -23.1321 -23.1317 -23.1307 -23.1301
   -23.1298 -23.1204 -23.1159 -23.1065 -23.0990 -23.0916 -23.0848 -23.0714
   -23.0500 -23.0307 -23.0293 -23.0287 -23.0207 -23.0084 -23.0069 -23.0044
   -23.0037 -23.0004 -22.9965 -22.9949 -22.9861 -22.9830 -22.9830 -22.9758
   -22.9753 -22.9667 -22.9568 -22.9524 -22.9406 -22.9389 -22.9363 -22.9256
   -22.8581 -22.8495 -22.8490 -22.8366 -22.8360 -22.8359 -22.8259 -22.8252
    12.3309  13.6805  13.7759  13.7829  14.0060  14.0397  14.0482  14.0635
    14.1007  14.1262  14.2459  14.2511  14.2882  14.4474  14.5158  14.6352
    14.6451  14.9500  14.9973  15.0062  15.0111  15.0118  15.0904  15.1042
    15.1457  15.1766  15.1898  15.3572  15.3687  15.3800  15.4135  15.4576
    15.4694  15.4764  15.5202  15.5962  15.6812  15.7301  15.7414  15.7525
    15.8049  15.8271  15.8484  15.9574  16.0882  16.0948  16.1078  16.1330
    16.2252  16.2640  16.2704  16.3166  16.3402  16.3950  16.4183  16.4617
    16.5236  16.5898  16.6853  16.6949  16.6955  16.7373  16.7503  16.7613
    16.7677  16.7836  16.8138  16.8272  16.8897  16.9222  16.9544  16.9829
    16.9869  17.0248  17.0575  17.1604  17.1819  17.2872  17.2990  17.3063
    17.3073  17.3395  17.3702  17.4180  17.4296  17.4842  17.6596  17.8286
    17.8499  17.8792  17.9856  17.9872  18.0699  18.1618  18.1692  18.2320
    18.3169  18.3390  18.3738  18.3771  18.4249  18.4309  18.4417  18.4525
    18.4825  18.4952  18.5364  18.5869  18.5950  18.6223  18.6793  18.7689
    18.8824  18.8829  18.8986  19.0358  19.0556  19.0911  19.2471  19.2763
    19.3305  19.3335  19.3424  19.4032  19.4282  19.4361  19.5382  19.5397
    19.5778  19.5838  19.6064  19.6305  19.6417  19.6436  19.6495  19.8061
    19.8314  19.8539  19.9238  19.9304  20.0003  20.0268  20.0437  20.0657
    20.0870  20.2051  20.2861  20.4163  20.4942  20.5394  20.6444  20.6909
    20.6947  20.6957  20.6983  20.7821  20.7977  20.9617  21.1006  21.1013
    21.1078  21.1466  21.1767  21.2135  21.2752  21.4509  21.4896  21.6277
    21.6855  21.7101  21.7520  21.8520  22.0425  22.1778  22.3823  22.4743
    22.6313  22.9372  22.9980

          k = 0.0556 0.1667 0.1449 ( 34725 PWs)   bands (ev):

   -53.5393 -53.4763 -53.4601 -53.4452 -53.4343 -53.4334 -53.4311 -53.4267
   -53.4171 -53.4149 -53.4070 -53.4016 -53.3962 -53.3899 -53.3710 -53.3693
   -53.1590 -53.1547 -53.1244 -53.1227 -53.1157 -53.1145 -53.1139 -53.1136
   -53.1116 -53.1115 -53.1071 -53.1062 -53.0981 -53.0973 -53.0605 -53.0605
   -23.8649 -23.8608 -23.8595 -23.8508 -23.8218 -23.8212 -23.7702 -23.6766
   -23.6763 -23.6760 -23.6670 -23.6661 -23.6464 -23.6422 -23.5922 -23.5890
   -23.5774 -23.5736 -23.5363 -23.5331 -23.5304 -23.5221 -23.5196 -23.4886
   -23.4870 -23.4835 -23.4797 -23.4578 -23.4304 -23.4087 -23.4045 -23.3766
   -23.3470 -23.3426 -23.3039 -23.2925 -23.2861 -23.2821 -23.2742 -23.2652
   -23.2639 -23.2634 -23.2507 -23.2437 -23.2408 -23.2330 -23.2078 -23.1958
   -23.1609 -23.1543 -23.1491 -23.1414 -23.1312 -23.1301 -23.1300 -23.1297
   -23.1288 -23.1204 -23.1159 -23.1052 -23.0990 -23.0921 -23.0859 -23.0720
   -23.0490 -23.0324 -23.0298 -23.0285 -23.0173 -23.0083 -23.0068 -23.0059
   -23.0055 -23.0018 -22.9958 -22.9955 -22.9863 -22.9840 -22.9832 -22.9758
   -22.9756 -22.9660 -22.9566 -22.9518 -22.9402 -22.9381 -22.9360 -22.9289
   -22.8577 -22.8500 -22.8484 -22.8365 -22.8365 -22.8359 -22.8259 -22.8252
    12.3670  13.6721  13.7876  13.7937  14.0150  14.0567  14.0600  14.0795
    14.1034  14.1280  14.1464  14.2591  14.2632  14.4587  14.5893  14.6455
    14.6625  14.9514  14.9820  14.9892  14.9987  15.0016  15.0963  15.1037
    15.1286  15.1803  15.1838  15.3026  15.3170  15.3481  15.3807  15.3866
    15.4269  15.4838  15.5540  15.5767  15.6943  15.7296  15.7477  15.7646
    15.7801  15.7824  15.8188  15.9774  16.0709  16.0856  16.1120  16.1393
    16.1973  16.2254  16.2431  16.2886  16.3099  16.3569  16.3582  16.4599
    16.5120  16.5740  16.7154  16.7161  16.7301  16.7472  16.7531  16.7722
    16.7741  16.8018  16.8063  16.8398  16.9027  16.9707  16.9864  17.0425
    17.0712  17.0834  17.1193  17.2363  17.2441  17.3146  17.3167  17.3435
    17.3573  17.3671  17.3883  17.4354  17.5394  17.6039  17.6448  17.8143
    17.8284  17.8466  17.9199  17.9234  17.9625  18.1528  18.1605  18.2375
    18.3042  18.3192  18.3229  18.3647  18.4071  18.4267  18.4527  18.5071
    18.5072  18.5286  18.5338  18.5893  18.5895  18.6534  18.6767  18.8028
    18.8896  18.9123  18.9514  19.0463  19.0529  19.0765  19.1887  19.2071
    19.3520  19.3653  19.3778  19.3809  19.3865  19.3897  19.4267  19.4574
    19.5344  19.5535  19.6319  19.6855  19.7018  19.7115  19.7167  19.8572
    19.8821  19.9099  19.9212  19.9517  19.9672  19.9917  20.0542  20.1354
    20.1406  20.1545  20.2776  20.3192  20.3596  20.3881  20.5931  20.6628
    20.6950  20.7183  20.7459  20.7856  20.7882  20.9639  21.0677  21.0724
    21.1070  21.1292  21.1351  21.2467  21.2621  21.3519  21.4571  21.6845
    21.6852  21.6916  21.7572  21.9059  22.1154  22.1173  22.3457  22.4952
    22.5903  22.6389  22.8864

          k = 0.0556 0.1667 0.2415 ( 34705 PWs)   bands (ev):

   -53.5393 -53.4763 -53.4601 -53.4452 -53.4343 -53.4335 -53.4311 -53.4267
   -53.4171 -53.4149 -53.4070 -53.4016 -53.3962 -53.3899 -53.3710 -53.3693
   -53.1585 -53.1552 -53.1241 -53.1229 -53.1156 -53.1146 -53.1139 -53.1136
   -53.1116 -53.1115 -53.1070 -53.1063 -53.0980 -53.0974 -53.0605 -53.0605
   -23.8646 -23.8606 -23.8591 -23.8504 -23.8217 -23.8211 -23.7694 -23.6766
   -23.6763 -23.6760 -23.6671 -23.6660 -23.6463 -23.6424 -23.5920 -23.5894
   -23.5779 -23.5740 -23.5376 -23.5344 -23.5313 -23.5218 -23.5202 -23.4889
   -23.4867 -23.4834 -23.4799 -23.4574 -23.4335 -23.4090 -23.4034 -23.3762
   -23.3473 -23.3425 -23.3042 -23.2926 -23.2863 -23.2804 -23.2743 -23.2660
   -23.2641 -23.2626 -23.2512 -23.2452 -23.2422 -23.2330 -23.2057 -23.1940
   -23.1600 -23.1526 -23.1490 -23.1411 -23.1299 -23.1297 -23.1291 -23.1274
   -23.1265 -23.1205 -23.1159 -23.1029 -23.0991 -23.0928 -23.0877 -23.0732
   -23.0470 -23.0342 -23.0321 -23.0281 -23.0112 -23.0085 -23.0082 -23.0069
   -23.0067 -23.0038 -22.9973 -22.9946 -22.9866 -22.9855 -22.9834 -22.9764
   -22.9753 -22.9649 -22.9563 -22.9509 -22.9395 -22.9368 -22.9356 -22.9344
   -22.8569 -22.8506 -22.8477 -22.8374 -22.8364 -22.8360 -22.8258 -22.8253
    12.4292  13.6408  13.8064  13.8111  13.9683  14.0341  14.0797  14.0816
    14.1032  14.1086  14.1799  14.2804  14.2823  14.4770  14.6317  14.6622
    14.6913  14.9447  14.9531  14.9552  14.9802  15.0045  15.1001  15.1003
    15.1051  15.1766  15.1909  15.2174  15.2456  15.2878  15.3192  15.3343
    15.3407  15.5066  15.5650  15.6098  15.6766  15.6898  15.7170  15.7265
    15.7560  15.7960  15.8380  16.0083  16.0475  16.0743  16.0752  16.1570
    16.1792  16.1861  16.2078  16.2678  16.2886  16.2902  16.2985  16.4496
    16.5026  16.5640  16.6624  16.7069  16.7079  16.7404  16.7507  16.7529
    16.7738  16.7971  16.8372  16.8637  16.9376  17.0722  17.1177  17.1597
    17.1728  17.1952  17.1967  17.2688  17.3307  17.3454  17.4008  17.4323
    17.4432  17.4462  17.4594  17.5198  17.6183  17.7334  17.7558  17.7790
    17.7922  17.7948  17.7962  17.8503  17.9360  18.0162  18.1424  18.1650
    18.3037  18.3196  18.3482  18.3574  18.3824  18.3848  18.4021  18.4583
    18.5213  18.5517  18.5943  18.6372  18.6636  18.7352  18.7653  18.8495
    18.9261  18.9429  19.0137  19.0266  19.0390  19.0567  19.0865  19.1489
    19.1658  19.1790  19.1973  19.2946  19.3170  19.3255  19.4341  19.4429
    19.4775  19.5322  19.7481  19.7673  19.7695  19.7960  19.8216  19.8508
    19.9559  19.9898  19.9987  20.0076  20.0271  20.0320  20.0949  20.1095
    20.1460  20.1818  20.1975  20.2098  20.4253  20.4305  20.5098  20.5822
    20.6904  20.7309  20.7625  20.7629  20.8032  20.9722  20.9870  21.0116
    21.0141  21.0427  21.0780  21.1996  21.2656  21.3062  21.3104  21.4627
    21.6996  21.7135  21.7624  21.8429  22.0778  22.2091  22.2197  22.4806
    22.4831  22.7899  23.0565

          k = 0.0556 0.1667 0.3382 ( 34692 PWs)   bands (ev):

   -53.5393 -53.4763 -53.4601 -53.4452 -53.4343 -53.4335 -53.4311 -53.4267
   -53.4171 -53.4149 -53.4070 -53.4016 -53.3962 -53.3899 -53.3710 -53.3693
   -53.1580 -53.1558 -53.1239 -53.1232 -53.1154 -53.1148 -53.1139 -53.1136
   -53.1116 -53.1115 -53.1069 -53.1064 -53.0980 -53.0974 -53.0605 -53.0605
   -23.8644 -23.8604 -23.8588 -23.8500 -23.8216 -23.8210 -23.7686 -23.6765
   -23.6764 -23.6761 -23.6671 -23.6659 -23.6462 -23.6426 -23.5918 -23.5898
   -23.5782 -23.5744 -23.5387 -23.5356 -23.5320 -23.5215 -23.5208 -23.4892
   -23.4865 -23.4833 -23.4801 -23.4572 -23.4361 -23.4092 -23.4026 -23.3758
   -23.3476 -23.3424 -23.3045 -23.2926 -23.2865 -23.2787 -23.2744 -23.2667
   -23.2646 -23.2611 -23.2515 -23.2468 -23.2437 -23.2330 -23.2038 -23.1924
   -23.1593 -23.1513 -23.1490 -23.1407 -23.1296 -23.1287 -23.1283 -23.1249
   -23.1245 -23.1205 -23.1158 -23.1007 -23.0993 -23.0930 -23.0899 -23.0746
   -23.0440 -23.0357 -23.0356 -23.0281 -23.0104 -23.0081 -23.0074 -23.0070
   -23.0055 -23.0049 -22.9986 -22.9941 -22.9870 -22.9866 -22.9837 -22.9769
   -22.9751 -22.9641 -22.9560 -22.9502 -22.9401 -22.9389 -22.9358 -22.9353
   -22.8559 -22.8513 -22.8469 -22.8382 -22.8363 -22.8361 -22.8257 -22.8254
    12.4938  13.5772  13.8239  13.8272  13.8804  14.0567  14.0961  14.1048
    14.1127  14.1229  14.2126  14.2994  14.3002  14.4941  14.6480  14.6779
    14.7193  14.9114  14.9258  14.9537  14.9643  14.9990  15.0751  15.0940
    15.1125  15.1591  15.1728  15.1933  15.2015  15.2190  15.2490  15.2620
    15.3222  15.5277  15.5605  15.6044  15.6142  15.6713  15.7204  15.7398
    15.7572  15.8051  15.8465  16.0268  16.0327  16.0361  16.0756  16.1341
    16.1655  16.1724  16.1748  16.2313  16.2338  16.2588  16.3421  16.4335
    16.5017  16.5602  16.6308  16.6512  16.6908  16.6966  16.7347  16.7368
    16.7513  16.7875  16.8476  16.8745  17.0844  17.1568  17.2132  17.2278
    17.2278  17.2345  17.2561  17.2791  17.3655  17.4184  17.4689  17.5369
    17.5784  17.5856  17.6104  17.6191  17.6599  17.6812  17.6963  17.6978
    17.7709  17.8081  17.8419  17.9172  17.9236  17.9721  18.1400  18.1648
    18.2937  18.2942  18.3202  18.3344  18.3745  18.3808  18.3980  18.4171
    18.5098  18.5488  18.6781  18.6813  18.7199  18.7761  18.8045  18.8350
    18.9068  18.9303  18.9398  18.9493  18.9556  19.0156  19.0202  19.0400
    19.0444  19.0596  19.1836  19.2046  19.2528  19.2954  19.4427  19.4473
    19.5295  19.5653  19.7319  19.7942  19.8135  19.8402  19.8855  19.8975
    19.9299  19.9623  20.0235  20.0448  20.0533  20.0807  20.0900  20.1528
    20.1887  20.2118  20.2591  20.4240  20.4855  20.4897  20.5332  20.6601
    20.6856  20.7213  20.7367  20.7463  20.7825  20.8144  20.8951  20.9632
    20.9813  20.9956  21.0028  21.0072  21.1524  21.3173  21.3309  21.4330
    21.4657  21.6898  21.7056  21.7655  21.8097  22.0305  22.1300  22.6668
    22.8490  22.9793  23.5668

          k = 0.0556 0.1667-0.4348 ( 34688 PWs)   bands (ev):

   -53.5393 -53.4763 -53.4601 -53.4452 -53.4343 -53.4335 -53.4311 -53.4267
   -53.4171 -53.4149 -53.4070 -53.4016 -53.3962 -53.3899 -53.3710 -53.3693
   -53.1576 -53.1561 -53.1236 -53.1234 -53.1153 -53.1149 -53.1139 -53.1136
   -53.1116 -53.1114 -53.1069 -53.1064 -53.0979 -53.0975 -53.0605 -53.0605
   -23.8643 -23.8604 -23.8587 -23.8499 -23.8215 -23.8209 -23.7684 -23.6765
   -23.6764 -23.6761 -23.6672 -23.6659 -23.6462 -23.6426 -23.5918 -23.5899
   -23.5784 -23.5745 -23.5391 -23.5361 -23.5323 -23.5214 -23.5211 -23.4893
   -23.4864 -23.4833 -23.4801 -23.4571 -23.4372 -23.4093 -23.4022 -23.3757
   -23.3476 -23.3424 -23.3046 -23.2926 -23.2865 -23.2781 -23.2745 -23.2670
   -23.2649 -23.2605 -23.2517 -23.2475 -23.2443 -23.2330 -23.2030 -23.1917
   -23.1590 -23.1508 -23.1490 -23.1405 -23.1296 -23.1282 -23.1280 -23.1239
   -23.1236 -23.1205 -23.1158 -23.0997 -23.0994 -23.0926 -23.0912 -23.0752
   -23.0407 -23.0392 -23.0362 -23.0280 -23.0111 -23.0081 -23.0076 -23.0071
   -23.0062 -23.0020 -22.9990 -22.9939 -22.9872 -22.9870 -22.9838 -22.9771
   -22.9750 -22.9637 -22.9559 -22.9500 -22.9428 -22.9387 -22.9353 -22.9352
   -22.8554 -22.8517 -22.8466 -22.8386 -22.8363 -22.8362 -22.8257 -22.8254
    12.5229  13.5395  13.8311  13.8338  13.8585  14.0681  14.1006  14.1144
    14.1158  14.1297  14.2266  14.3063  14.3084  14.5011  14.6515  14.6843
    14.7313  14.8982  14.9144  14.9536  14.9581  14.9932  15.0653  15.0906
    15.1153  15.1408  15.1719  15.1766  15.1955  15.2060  15.2176  15.2291
    15.3175  15.5364  15.5593  15.5767  15.5855  15.7082  15.7169  15.7479
    15.7495  15.8087  15.8478  16.0129  16.0173  16.0473  16.0829  16.1343
    16.1595  16.1615  16.1616  16.2000  16.2037  16.2566  16.3873  16.4256
    16.5037  16.5593  16.6214  16.6287  16.6343  16.6919  16.7272  16.7343
    16.7516  16.7924  16.8498  16.8777  17.1628  17.1980  17.2380  17.2425
    17.2457  17.2578  17.2670  17.2822  17.3722  17.4427  17.5508  17.5515
    17.5673  17.5859  17.6276  17.6715  17.6772  17.6868  17.7073  17.7590
    17.7618  17.7767  17.8391  17.9107  18.0083  18.0501  18.1400  18.1649
    18.2528  18.2936  18.3205  18.3374  18.3663  18.3874  18.4013  18.4128
    18.5084  18.5474  18.6543  18.6636  18.6887  18.7162  18.7698  18.7703
    18.8491  18.9041  18.9062  18.9262  18.9496  19.0084  19.0127  19.0167
    19.0797  19.1445  19.1942  19.2176  19.2405  19.2529  19.4093  19.4477
    19.5257  19.5941  19.7201  19.7935  19.7978  19.8218  19.8548  19.8803
    19.9218  19.9435  20.0516  20.0646  20.1030  20.1197  20.1542  20.2020
    20.2190  20.2432  20.3861  20.4279  20.4359  20.5565  20.5892  20.5978
    20.6872  20.7171  20.7221  20.7403  20.7405  20.8140  20.9480  20.9533
    20.9548  20.9784  21.0174  21.0226  21.0343  21.1300  21.3385  21.4666
    21.5075  21.5148  21.5595  21.7077  21.7664  22.0773  22.1302  22.5934
    23.0640  23.3047  23.5093

          k = 0.0556 0.2778 0.0483 ( 34701 PWs)   bands (ev):

   -53.5340 -53.4908 -53.4578 -53.4435 -53.4400 -53.4310 -53.4307 -53.4170
   -53.4128 -53.4119 -53.4115 -53.4026 -53.3978 -53.3848 -53.3760 -53.3709
   -53.1563 -53.1519 -53.1326 -53.1302 -53.1157 -53.1145 -53.1144 -53.1140
   -53.1107 -53.1104 -53.1076 -53.1067 -53.0896 -53.0890 -53.0638 -53.0637
   -23.8514 -23.8427 -23.8412 -23.8293 -23.8065 -23.8046 -23.7615 -23.7155
   -23.7086 -23.7009 -23.6942 -23.6922 -23.6888 -23.6835 -23.6050 -23.5961
   -23.5635 -23.5509 -23.5300 -23.5238 -23.5184 -23.5023 -23.4919 -23.4903
   -23.4890 -23.4751 -23.4580 -23.4498 -23.4453 -23.4404 -23.4047 -23.3636
   -23.3266 -23.3165 -23.3089 -23.2755 -23.2746 -23.2704 -23.2694 -23.2594
   -23.2562 -23.2470 -23.2370 -23.2342 -23.2276 -23.2268 -23.2224 -23.2184
   -23.1929 -23.1772 -23.1694 -23.1671 -23.1515 -23.1474 -23.1356 -23.1337
   -23.1337 -23.1291 -23.1242 -23.1213 -23.1191 -23.1129 -23.1020 -23.0794
   -23.0152 -23.0083 -23.0078 -23.0043 -23.0041 -23.0035 -23.0022 -22.9996
   -22.9982 -22.9895 -22.9885 -22.9796 -22.9795 -22.9775 -22.9755 -22.9719
   -22.9719 -22.9555 -22.9450 -22.9428 -22.9401 -22.9338 -22.9264 -22.9123
   -22.8716 -22.8700 -22.8556 -22.8534 -22.8526 -22.8471 -22.8382 -22.8363
    12.4936  13.7605  13.8093  13.8773  13.8985  14.0746  14.1287  14.1405
    14.1706  14.2170  14.3143  14.3320  14.4163  14.4568  14.5500  14.6432
    14.6525  14.7391  14.7621  14.8890  14.8896  14.9193  15.0821  15.1040
    15.1254  15.1393  15.1783  15.2403  15.2685  15.2828  15.3084  15.3113
    15.3505  15.4019  15.4603  15.5083  15.5797  15.6636  15.7404  15.7508
    15.8196  15.8798  15.8949  15.9735  16.0146  16.0149  16.0660  16.0915
    16.1140  16.1220  16.1261  16.3323  16.3619  16.3946  16.4211  16.4922
    16.5233  16.5790  16.6491  16.6855  16.7108  16.7377  16.7535  16.7827
    16.8096  16.8397  16.8664  16.8953  16.9069  17.0650  17.0807  17.1327
    17.1776  17.2177  17.2237  17.2276  17.2594  17.2682  17.2978  17.2994
    17.3021  17.3861  17.4012  17.4186  17.4231  17.4781  17.6137  17.6294
    17.6868  17.7458  17.7844  17.8784  17.9544  18.0963  18.2390  18.2563
    18.3082  18.3654  18.4239  18.4606  18.4852  18.4917  18.4985  18.5199
    18.5249  18.5518  18.5920  18.6108  18.6411  18.6471  18.9356  18.9553
    19.0774  19.0876  19.1037  19.1200  19.2019  19.2175  19.2274  19.2342
    19.3052  19.3238  19.3245  19.3273  19.3573  19.4090  19.4727  19.5127
    19.5631  19.5707  19.6015  19.6083  19.6749  19.7172  19.8165  19.8514
    19.8609  19.8998  19.9846  20.0513  20.0563  20.0610  20.0788  20.1681
    20.1766  20.2334  20.3207  20.3781  20.4058  20.4252  20.4842  20.5877
    20.6353  20.6380  20.6587  20.6831  20.7514  20.8285  20.8642  21.0117
    21.0170  21.1556  21.1907  21.2299  21.2650  21.3161  21.3732  21.4351
    21.5402  21.7217  21.7432  21.8628  21.9348  21.9716  22.2610  22.4121
    22.4231  22.5570  23.1044

          k = 0.0556 0.2778 0.1449 ( 34703 PWs)   bands (ev):

   -53.5340 -53.4908 -53.4578 -53.4435 -53.4400 -53.4311 -53.4307 -53.4170
   -53.4128 -53.4119 -53.4115 -53.4026 -53.3978 -53.3848 -53.3760 -53.3709
   -53.1561 -53.1521 -53.1325 -53.1304 -53.1156 -53.1145 -53.1145 -53.1140
   -53.1107 -53.1104 -53.1076 -53.1067 -53.0896 -53.0890 -53.0638 -53.0637
   -23.8512 -23.8427 -23.8410 -23.8291 -23.8064 -23.8045 -23.7610 -23.7156
   -23.7085 -23.7009 -23.6942 -23.6923 -23.6888 -23.6834 -23.6049 -23.5963
   -23.5638 -23.5514 -23.5308 -23.5247 -23.5187 -23.5024 -23.4918 -23.4905
   -23.4890 -23.4750 -23.4577 -23.4515 -23.4455 -23.4403 -23.4044 -23.3626
   -23.3265 -23.3166 -23.3090 -23.2760 -23.2748 -23.2699 -23.2694 -23.2596
   -23.2566 -23.2471 -23.2378 -23.2339 -23.2275 -23.2274 -23.2211 -23.2173
   -23.1913 -23.1772 -23.1694 -23.1662 -23.1505 -23.1462 -23.1354 -23.1338
   -23.1332 -23.1278 -23.1249 -23.1216 -23.1190 -23.1126 -23.1023 -23.0802
   -23.0183 -23.0076 -23.0070 -23.0066 -23.0051 -23.0042 -23.0009 -23.0006
   -22.9956 -22.9917 -22.9895 -22.9793 -22.9788 -22.9756 -22.9753 -22.9717
   -22.9712 -22.9550 -22.9449 -22.9430 -22.9423 -22.9335 -22.9266 -22.9119
   -22.8719 -22.8696 -22.8555 -22.8535 -22.8522 -22.8475 -22.8381 -22.8364
    12.5285  13.7841  13.8015  13.8895  13.9079  14.0797  14.1443  14.1482
    14.1864  14.2194  14.2581  14.3270  14.3418  14.4578  14.5667  14.6427
    14.7247  14.7401  14.7618  14.8739  14.8977  14.9111  15.0754  15.0928
    15.0991  15.1177  15.1340  15.2239  15.2487  15.2637  15.2764  15.3414
    15.3471  15.3789  15.3969  15.4768  15.6242  15.6743  15.7336  15.7420
    15.7672  15.8175  15.9110  15.9751  15.9784  16.0328  16.0389  16.0655
    16.0667  16.1041  16.1152  16.2947  16.3524  16.4026  16.4250  16.5573
    16.5685  16.5905  16.6681  16.6741  16.8045  16.8074  16.8178  16.8414
    16.8501  16.8517  16.8596  16.8977  16.9766  17.0494  17.0931  17.1569
    17.1895  17.2284  17.2478  17.2513  17.2588  17.2741  17.3277  17.3353
    17.3895  17.4080  17.4165  17.4357  17.4361  17.5755  17.5894  17.5999
    17.7180  17.7301  17.8073  17.8515  17.9413  18.0069  18.2266  18.2685
    18.3550  18.3809  18.4038  18.4574  18.4627  18.4766  18.4792  18.4833
    18.4916  18.5088  18.5227  18.5294  18.5556  18.7029  18.9315  18.9769
    19.0071  19.0350  19.0655  19.0697  19.0717  19.1563  19.1751  19.2444
    19.2452  19.2573  19.3355  19.3394  19.3663  19.4637  19.4783  19.5408
    19.5430  19.6397  19.6797  19.6872  19.7534  19.7652  19.7823  19.8331
    19.8922  19.9272  20.0531  20.1043  20.1481  20.1529  20.1713  20.1912
    20.2012  20.2023  20.2084  20.3596  20.3793  20.4244  20.4351  20.5521
    20.6221  20.6576  20.6611  20.7752  20.7835  20.8193  20.9086  20.9875
    20.9993  21.0265  21.1200  21.1621  21.1981  21.2350  21.2395  21.4377
    21.5467  21.6281  21.7595  21.8063  22.0726  22.1439  22.2293  22.3728
    22.5711  22.9668  23.2331

          k = 0.0556 0.2778 0.2415 ( 34689 PWs)   bands (ev):

   -53.5340 -53.4908 -53.4578 -53.4435 -53.4401 -53.4311 -53.4307 -53.4170
   -53.4128 -53.4119 -53.4115 -53.4026 -53.3978 -53.3848 -53.3760 -53.3709
   -53.1557 -53.1526 -53.1322 -53.1306 -53.1155 -53.1146 -53.1145 -53.1141
   -53.1107 -53.1104 -53.1075 -53.1068 -53.0895 -53.0890 -53.0637 -53.0637
   -23.8511 -23.8425 -23.8406 -23.8288 -23.8062 -23.8045 -23.7603 -23.7157
   -23.7084 -23.7009 -23.6942 -23.6925 -23.6887 -23.6833 -23.6046 -23.5965
   -23.5642 -23.5522 -23.5321 -23.5261 -23.5192 -23.5028 -23.4915 -23.4907
   -23.4893 -23.4749 -23.4572 -23.4541 -23.4458 -23.4403 -23.4039 -23.3610
   -23.3264 -23.3167 -23.3090 -23.2768 -23.2751 -23.2707 -23.2677 -23.2598
   -23.2572 -23.2473 -23.2386 -23.2341 -23.2281 -23.2272 -23.2190 -23.2156
   -23.1891 -23.1772 -23.1695 -23.1647 -23.1488 -23.1443 -23.1352 -23.1338
   -23.1324 -23.1258 -23.1258 -23.1223 -23.1189 -23.1121 -23.1028 -23.0816
   -23.0220 -23.0088 -23.0074 -23.0073 -23.0061 -23.0044 -23.0027 -22.9995
   -22.9944 -22.9909 -22.9908 -22.9789 -22.9778 -22.9749 -22.9735 -22.9713
   -22.9703 -22.9546 -22.9482 -22.9447 -22.9415 -22.9330 -22.9269 -22.9113
   -22.8721 -22.8692 -22.8554 -22.8537 -22.8516 -22.8482 -22.8379 -22.8366
    12.5886  13.7720  13.8240  13.9091  13.9231  14.0931  14.0995  14.1632
    14.1652  14.2071  14.2247  14.3475  14.3563  14.4595  14.5946  14.6422
    14.7414  14.7527  14.7663  14.8533  14.8990  14.9104  15.0362  15.0588
    15.0636  15.0757  15.0865  15.2059  15.2113  15.2621  15.2638  15.2947
    15.3492  15.3827  15.3994  15.4127  15.6518  15.6823  15.6924  15.7098
    15.7288  15.7295  15.9204  15.9359  15.9761  15.9985  16.0195  16.0503
    16.0612  16.0638  16.1197  16.2651  16.3299  16.3812  16.5078  16.5897
    16.6049  16.6198  16.6499  16.6566  16.8153  16.8335  16.8449  16.8686
    16.8956  16.9694  16.9921  16.9985  17.0313  17.0994  17.1331  17.1349
    17.1982  17.2258  17.2542  17.2817  17.2844  17.3016  17.4155  17.4186
    17.4311  17.4705  17.4710  17.4741  17.5404  17.5798  17.6078  17.6946
    17.7519  17.7638  17.8124  17.8136  17.9214  17.9257  18.1564  18.2781
    18.2855  18.3054  18.3460  18.3788  18.4182  18.4437  18.4438  18.4567
    18.4618  18.5047  18.5047  18.5124  18.5350  18.7302  18.7480  18.7681
    18.9459  19.0093  19.0475  19.0524  19.0621  19.0674  19.0851  19.1069
    19.2049  19.2639  19.3249  19.4292  19.4365  19.4432  19.4459  19.5115
    19.6751  19.6832  19.7290  19.7429  19.7884  19.8418  19.8553  19.9622
    19.9846  20.0180  20.0423  20.0442  20.0705  20.1429  20.1799  20.2124
    20.2686  20.2708  20.2817  20.3339  20.3650  20.4375  20.5570  20.5614
    20.6484  20.6779  20.7181  20.7601  20.7753  20.7918  20.8560  20.9429
    20.9709  21.0223  21.0645  21.0944  21.1737  21.1862  21.2470  21.2757
    21.4416  21.5523  21.6853  21.7389  21.7537  22.3008  22.5911  22.6608
    22.7495  22.8089  22.9734

          k = 0.0556 0.2778 0.3382 ( 34701 PWs)   bands (ev):

   -53.5339 -53.4908 -53.4578 -53.4435 -53.4400 -53.4311 -53.4307 -53.4170
   -53.4128 -53.4119 -53.4115 -53.4026 -53.3978 -53.3848 -53.3760 -53.3709
   -53.1551 -53.1531 -53.1318 -53.1310 -53.1154 -53.1148 -53.1145 -53.1141
   -53.1107 -53.1104 -53.1074 -53.1069 -53.0895 -53.0891 -53.0638 -53.0637
   -23.8509 -23.8424 -23.8403 -23.8284 -23.8061 -23.8044 -23.7597 -23.7157
   -23.7083 -23.7009 -23.6941 -23.6927 -23.6887 -23.6832 -23.6045 -23.5968
   -23.5646 -23.5528 -23.5332 -23.5272 -23.5197 -23.5031 -23.4910 -23.4909
   -23.4897 -23.4749 -23.4568 -23.4563 -23.4461 -23.4402 -23.4035 -23.3595
   -23.3264 -23.3168 -23.3090 -23.2775 -23.2753 -23.2714 -23.2661 -23.2600
   -23.2578 -23.2475 -23.2392 -23.2348 -23.2284 -23.2271 -23.2171 -23.2141
   -23.1872 -23.1772 -23.1695 -23.1634 -23.1474 -23.1425 -23.1349 -23.1339
   -23.1318 -23.1264 -23.1239 -23.1232 -23.1187 -23.1117 -23.1034 -23.0831
   -23.0248 -23.0104 -23.0094 -23.0070 -23.0058 -23.0047 -23.0042 -22.9989
   -22.9963 -22.9920 -22.9851 -22.9787 -22.9771 -22.9744 -22.9721 -22.9710
   -22.9695 -22.9545 -22.9543 -22.9445 -22.9409 -22.9324 -22.9272 -22.9108
   -22.8721 -22.8689 -22.8552 -22.8539 -22.8509 -22.8490 -22.8376 -22.8369
    12.6509  13.7117  13.8639  13.9274  13.9372  14.0119  14.1111  14.1739
    14.1857  14.2213  14.2286  14.3665  14.3683  14.4610  14.6221  14.6419
    14.7283  14.7418  14.7816  14.8370  14.8889  14.9216  14.9705  15.0230
    15.0514  15.0610  15.0615  15.1665  15.2104  15.2433  15.2664  15.2744
    15.2875  15.3182  15.4210  15.4902  15.6297  15.6574  15.6612  15.6623
    15.6775  15.7124  15.9150  15.9251  15.9589  15.9768  15.9945  16.0168
    16.0452  16.0866  16.1416  16.2454  16.3229  16.3787  16.5487  16.6301
    16.6334  16.6401  16.6482  16.6528  16.7891  16.8139  16.8558  16.8742
    16.8991  16.9076  16.9850  17.1513  17.1593  17.1743  17.1774  17.2245
    17.2327  17.2587  17.2689  17.3136  17.3163  17.3187  17.4415  17.5290
    17.5304  17.5315  17.5325  17.5680  17.5806  17.6012  17.6800  17.7384
    17.7929  17.8023  17.8024  17.8625  17.9176  17.9289  18.0375  18.0973
    18.1430  18.2826  18.2845  18.3326  18.3650  18.3734  18.3837  18.3944
    18.4606  18.4913  18.5111  18.5646  18.5867  18.5936  18.6219  18.7062
    18.8781  18.9102  18.9467  18.9651  18.9960  19.0263  19.0921  19.2138
    19.2384  19.2388  19.2638  19.3725  19.4711  19.4850  19.4949  19.5229
    19.6469  19.6558  19.7711  19.7860  19.8429  19.9179  19.9204  19.9255
    19.9378  20.1041  20.1256  20.1537  20.1601  20.2317  20.2371  20.2598
    20.2932  20.2997  20.3044  20.3495  20.4421  20.4603  20.4672  20.4699
    20.6045  20.6106  20.6930  20.7622  20.7652  20.8408  20.8953  20.9454
    20.9985  21.0010  21.0304  21.1291  21.1613  21.2111  21.2367  21.2502
    21.3096  21.4447  21.5548  21.6822  21.7880  22.1809  22.2152  22.4016
    23.0907  23.3135  23.3951

          k = 0.0556 0.2778-0.4348 ( 34726 PWs)   bands (ev):

   -53.5339 -53.4908 -53.4578 -53.4435 -53.4401 -53.4311 -53.4307 -53.4170
   -53.4128 -53.4119 -53.4115 -53.4026 -53.3978 -53.3848 -53.3760 -53.3709
   -53.1548 -53.1535 -53.1314 -53.1314 -53.1153 -53.1148 -53.1145 -53.1141
   -53.1107 -53.1105 -53.1074 -53.1069 -53.0895 -53.0891 -53.0638 -53.0637
   -23.8508 -23.8424 -23.8402 -23.8284 -23.8061 -23.8044 -23.7595 -23.7158
   -23.7082 -23.7009 -23.6941 -23.6927 -23.6887 -23.6832 -23.6044 -23.5969
   -23.5648 -23.5531 -23.5336 -23.5277 -23.5199 -23.5033 -23.4910 -23.4905
   -23.4901 -23.4748 -23.4572 -23.4566 -23.4462 -23.4402 -23.4034 -23.3590
   -23.3264 -23.3168 -23.3090 -23.2777 -23.2754 -23.2716 -23.2655 -23.2601
   -23.2580 -23.2476 -23.2394 -23.2352 -23.2285 -23.2270 -23.2164 -23.2135
   -23.1864 -23.1772 -23.1696 -23.1628 -23.1468 -23.1418 -23.1348 -23.1339
   -23.1316 -23.1264 -23.1237 -23.1231 -23.1187 -23.1116 -23.1036 -23.0837
   -23.0259 -23.0109 -23.0102 -23.0069 -23.0057 -23.0049 -23.0048 -22.9988
   -22.9969 -22.9924 -22.9820 -22.9786 -22.9768 -22.9743 -22.9717 -22.9708
   -22.9693 -22.9575 -22.9545 -22.9445 -22.9406 -22.9322 -22.9273 -22.9106
   -22.8720 -22.8688 -22.8551 -22.8540 -22.8503 -22.8497 -22.8375 -22.8371
    12.6789  13.6758  13.8812  13.9350  13.9431  13.9899  14.1206  14.1758
    14.1964  14.2248  14.2302  14.3727  14.3744  14.4617  14.6341  14.6418
    14.7122  14.7415  14.7847  14.8310  14.8851  14.9261  14.9519  15.0088
    15.0462  15.0524  15.0552  15.1585  15.2106  15.2326  15.2564  15.2678
    15.2785  15.2794  15.4378  15.5451  15.6055  15.6176  15.6300  15.6630
    15.6715  15.7036  15.9100  15.9370  15.9423  15.9773  15.9862  15.9872
    16.0445  16.0968  16.1551  16.2368  16.3260  16.3931  16.5082  16.6226
    16.6335  16.6471  16.6817  16.7630  16.7833  16.8059  16.8224  16.8563
    16.8581  16.9072  16.9124  17.1738  17.1945  17.2267  17.2437  17.2599
    17.2703  17.2772  17.2881  17.3180  17.3306  17.3341  17.4449  17.5369
    17.5686  17.5841  17.5852  17.6185  17.6372  17.6757  17.7001  17.7206
    17.7921  17.7934  17.8404  17.8925  17.9159  17.9191  17.9997  18.0404
    18.0760  18.2330  18.2581  18.2803  18.2831  18.3565  18.3636  18.3810
    18.3888  18.4707  18.5139  18.5177  18.6242  18.6310  18.6864  18.6890
    18.8102  18.8513  18.9155  18.9191  19.0142  19.0372  19.0776  19.1374
    19.2205  19.2514  19.3267  19.3551  19.4281  19.5193  19.5283  19.5500
    19.6201  19.6443  19.7029  19.8075  19.8633  19.9470  19.9543  19.9578
    20.0330  20.0870  20.1543  20.1977  20.2382  20.2481  20.2522  20.2580
    20.2763  20.2802  20.2905  20.3372  20.4171  20.4701  20.4982  20.5906
    20.6223  20.6258  20.6778  20.7004  20.7498  20.7599  20.9076  20.9407
    20.9456  20.9827  21.0028  21.0596  21.1106  21.2399  21.2510  21.3769
    21.4155  21.4458  21.5554  21.6452  21.8268  21.9016  22.1687  22.1776
    23.5711  23.6762  23.7507

          k = 0.0556 0.3889 0.0483 ( 34704 PWs)   bands (ev):

   -53.5261 -53.5042 -53.4545 -53.4455 -53.4411 -53.4346 -53.4276 -53.4183
   -53.4086 -53.4074 -53.4041 -53.4041 -53.4002 -53.3833 -53.3803 -53.3733
   -53.1521 -53.1481 -53.1401 -53.1372 -53.1155 -53.1150 -53.1145 -53.1143
   -53.1098 -53.1094 -53.1082 -53.1075 -53.0816 -53.0812 -53.0685 -53.0683
   -23.8288 -23.8158 -23.8148 -23.8009 -23.7839 -23.7808 -23.7597 -23.7483
   -23.7456 -23.7392 -23.7332 -23.7209 -23.7194 -23.7134 -23.6094 -23.6033
   -23.5437 -23.5266 -23.5209 -23.5133 -23.5033 -23.4992 -23.4937 -23.4894
   -23.4817 -23.4814 -23.4749 -23.4658 -23.4504 -23.4308 -23.3998 -23.3329
   -23.3205 -23.3100 -23.2865 -23.2857 -23.2606 -23.2518 -23.2517 -23.2475
   -23.2449 -23.2392 -23.2341 -23.2316 -23.2277 -23.2180 -23.2144 -23.2114
   -23.2061 -23.2041 -23.1994 -23.1957 -23.1717 -23.1582 -23.1552 -23.1539
   -23.1530 -23.1447 -23.1402 -23.1276 -23.1208 -23.1056 -23.0995 -23.0848
   -23.0054 -23.0024 -23.0012 -23.0006 -22.9970 -22.9937 -22.9928 -22.9912
   -22.9911 -22.9858 -22.9795 -22.9792 -22.9783 -22.9704 -22.9696 -22.9574
   -22.9469 -22.9442 -22.9440 -22.9276 -22.9143 -22.9141 -22.9024 -22.8977
   -22.8907 -22.8905 -22.8816 -22.8762 -22.8648 -22.8602 -22.8579 -22.8538
    12.7306  13.3837  13.9949  14.0214  14.0644  14.1793  14.2617  14.2707
    14.3170  14.3838  14.3896  14.4113  14.4153  14.4559  14.4911  14.5028
    14.5708  14.5971  14.6465  14.7022  14.7063  14.8338  14.8480  14.8875
    15.0481  15.2156  15.2411  15.2678  15.2983  15.2992  15.3193  15.3228
    15.3444  15.3950  15.4175  15.4196  15.5398  15.6361  15.6414  15.7111
    15.7481  15.7793  15.8136  15.8574  15.8807  15.9232  15.9499  16.0239
    16.0809  16.0908  16.1651  16.3289  16.4415  16.4719  16.4769  16.4959
    16.5365  16.5448  16.6387  16.6398  16.6589  16.7099  16.7244  16.7368
    16.8587  16.9228  16.9787  16.9832  17.0084  17.1133  17.1468  17.1519
    17.1576  17.1691  17.2630  17.2805  17.3090  17.3327  17.3345  17.3395
    17.3447  17.3702  17.3948  17.4563  17.5144  17.5412  17.5908  17.6514
    17.7087  17.7728  17.7863  17.8063  17.8936  18.0770  18.1795  18.3130
    18.3406  18.3461  18.4496  18.4792  18.4890  18.4947  18.5056  18.5420
    18.5817  18.5858  18.7158  18.8063  18.8743  18.8861  18.9070  18.9464
    18.9481  18.9546  19.0118  19.0785  19.1291  19.1925  19.2296  19.2341
    19.2955  19.2972  19.3001  19.3483  19.4412  19.4722  19.4935  19.5397
    19.5884  19.6661  19.6714  19.7171  19.7293  19.7569  19.7853  19.8078
    19.8602  19.8771  19.9596  19.9712  20.0674  20.0962  20.2353  20.2934
    20.3298  20.3803  20.4238  20.4277  20.4366  20.4690  20.5384  20.6190
    20.6222  20.6798  20.6880  20.6935  20.7640  20.7768  20.8860  20.8934
    20.9385  20.9850  21.0366  21.1316  21.1955  21.2167  21.2511  21.3378
    21.3500  21.3818  21.5382  21.8634  21.8920  22.0655  22.0721  22.2000
    22.3417  22.4414  22.5881

          k = 0.0556 0.3889 0.1449 ( 34675 PWs)   bands (ev):

   -53.5261 -53.5042 -53.4545 -53.4455 -53.4411 -53.4346 -53.4276 -53.4183
   -53.4086 -53.4074 -53.4041 -53.4041 -53.4002 -53.3833 -53.3803 -53.3733
   -53.1519 -53.1483 -53.1399 -53.1373 -53.1155 -53.1149 -53.1145 -53.1143
   -53.1098 -53.1094 -53.1082 -53.1075 -53.0816 -53.0812 -53.0685 -53.0683
   -23.8287 -23.8158 -23.8146 -23.8008 -23.7838 -23.7808 -23.7598 -23.7480
   -23.7454 -23.7393 -23.7331 -23.7208 -23.7194 -23.7133 -23.6093 -23.6034
   -23.5440 -23.5274 -23.5217 -23.5141 -23.5034 -23.4997 -23.4938 -23.4896
   -23.4817 -23.4811 -23.4762 -23.4659 -23.4500 -23.4306 -23.3998 -23.3329
   -23.3191 -23.3100 -23.2864 -23.2861 -23.2611 -23.2517 -23.2508 -23.2478
   -23.2451 -23.2383 -23.2324 -23.2305 -23.2275 -23.2195 -23.2143 -23.2114
   -23.2062 -23.2035 -23.1984 -23.1958 -23.1715 -23.1593 -23.1542 -23.1539
   -23.1523 -23.1443 -23.1392 -23.1274 -23.1206 -23.1059 -23.0996 -23.0856
   -23.0052 -23.0041 -23.0026 -23.0007 -22.9995 -22.9991 -22.9939 -22.9930
   -22.9902 -22.9842 -22.9788 -22.9775 -22.9754 -22.9685 -22.9685 -22.9585
   -22.9465 -22.9438 -22.9434 -22.9279 -22.9149 -22.9138 -22.9027 -22.8983
   -22.8900 -22.8900 -22.8814 -22.8764 -22.8655 -22.8596 -22.8578 -22.8540
    12.7637  13.4110  13.9880  14.0343  14.0717  14.1801  14.2731  14.2738
    14.3300  14.3918  14.3991  14.4063  14.4273  14.4430  14.4626  14.4876
    14.5052  14.5665  14.6407  14.6998  14.7161  14.8321  14.8868  14.9178
    14.9205  15.2321  15.2375  15.2493  15.2687  15.2767  15.2979  15.3369
    15.3570  15.3995  15.4038  15.4226  15.5243  15.6297  15.6464  15.6791
    15.7226  15.7459  15.7757  15.8359  15.8665  15.8760  15.9033  15.9873
    16.0934  16.0954  16.1791  16.4029  16.4078  16.4606  16.4738  16.5723
    16.5949  16.6201  16.6216  16.6651  16.6963  16.7780  16.7852  16.8420
    16.9509  16.9527  16.9693  16.9857  16.9887  17.1288  17.1653  17.1765
    17.1767  17.2626  17.2919  17.3126  17.3333  17.3458  17.3463  17.3578
    17.3720  17.3731  17.4100  17.5281  17.5392  17.5477  17.5541  17.6358
    17.7097  17.7688  17.7718  17.7874  17.8024  18.1106  18.2202  18.2410
    18.3100  18.3246  18.3987  18.4393  18.4408  18.4592  18.4608  18.4767
    18.5113  18.5284  18.5797  18.6463  18.7054  18.7958  18.8189  18.9043
    18.9407  19.0147  19.0585  19.0601  19.1180  19.1679  19.1686  19.2085
    19.2303  19.3223  19.4104  19.4138  19.4186  19.5504  19.5587  19.6102
    19.6730  19.7358  19.7366  19.7380  19.7520  19.7783  19.7950  19.8593
    19.8659  19.9448  19.9720  20.0032  20.0353  20.0579  20.1994  20.3310
    20.3595  20.4075  20.4178  20.4454  20.4495  20.4814  20.5358  20.5504
    20.5634  20.6798  20.7411  20.7498  20.7579  20.7975  20.8841  20.8984
    20.9595  20.9783  21.0608  21.1336  21.1770  21.1782  21.2205  21.2689
    21.3416  21.3745  21.5423  21.7347  21.8404  21.8650  22.0093  22.4047
    22.4804  22.8544  23.3906

          k = 0.0556 0.3889 0.2415 ( 34687 PWs)   bands (ev):

   -53.5261 -53.5042 -53.4545 -53.4455 -53.4411 -53.4346 -53.4277 -53.4183
   -53.4086 -53.4074 -53.4041 -53.4041 -53.4002 -53.3833 -53.3803 -53.3733
   -53.1515 -53.1487 -53.1396 -53.1376 -53.1154 -53.1149 -53.1146 -53.1144
   -53.1098 -53.1094 -53.1081 -53.1075 -53.0816 -53.0813 -53.0685 -53.0683
   -23.8286 -23.8158 -23.8143 -23.8005 -23.7837 -23.7808 -23.7598 -23.7474
   -23.7453 -23.7394 -23.7330 -23.7207 -23.7195 -23.7131 -23.6092 -23.6036
   -23.5444 -23.5286 -23.5229 -23.5152 -23.5035 -23.5004 -23.4941 -23.4899
   -23.4818 -23.4807 -23.4783 -23.4660 -23.4495 -23.4302 -23.3998 -23.3329
   -23.3171 -23.3101 -23.2868 -23.2861 -23.2618 -23.2516 -23.2491 -23.2484
   -23.2452 -23.2369 -23.2299 -23.2289 -23.2273 -23.2213 -23.2151 -23.2116
   -23.2065 -23.2026 -23.1969 -23.1961 -23.1712 -23.1609 -23.1540 -23.1526
   -23.1514 -23.1437 -23.1375 -23.1270 -23.1203 -23.1063 -23.0998 -23.0869
   -23.0065 -23.0057 -23.0047 -23.0047 -23.0016 -23.0011 -22.9954 -22.9949
   -22.9894 -22.9824 -22.9778 -22.9765 -22.9720 -22.9670 -22.9662 -22.9606
   -22.9459 -22.9430 -22.9423 -22.9283 -22.9159 -22.9132 -22.9032 -22.8988
   -22.8893 -22.8891 -22.8811 -22.8767 -22.8664 -22.8588 -22.8575 -22.8543
    12.8205  13.4575  13.9613  14.0552  14.0837  14.1859  14.2839  14.2850
    14.2878  14.3449  14.3968  14.3991  14.4244  14.4465  14.4703  14.4714
    14.5092  14.5603  14.6315  14.6952  14.7315  14.7819  14.8271  14.8943
    14.9575  15.2082  15.2180  15.2234  15.2698  15.2776  15.2990  15.3005
    15.3617  15.3814  15.4272  15.4296  15.4602  15.6042  15.6334  15.6470
    15.6677  15.7140  15.7193  15.7858  15.8250  15.8504  15.8540  15.9305
    16.0983  16.1182  16.2176  16.3680  16.4597  16.4994  16.5150  16.5669
    16.6134  16.7025  16.7166  16.7382  16.8231  16.8529  16.8633  16.9425
    16.9429  17.0185  17.0187  17.0192  17.1179  17.1527  17.1556  17.1933
    17.2221  17.3126  17.3162  17.3366  17.3429  17.3942  17.4108  17.4256
    17.4358  17.4479  17.4485  17.4830  17.5501  17.5574  17.5894  17.6306
    17.7057  17.7068  17.7565  17.7766  17.7992  18.1132  18.1448  18.2081
    18.2469  18.2720  18.3121  18.3198  18.3427  18.3716  18.3862  18.3863
    18.4587  18.4705  18.4818  18.5052  18.5538  18.5750  18.7800  18.8927
    18.9275  18.9332  18.9955  19.0400  19.0784  19.0813  19.1278  19.1364
    19.2464  19.3803  19.4248  19.4951  19.5106  19.5490  19.6780  19.6948
    19.7016  19.7293  19.7508  19.8198  19.8377  19.8437  19.8507  19.9759
    19.9912  19.9959  20.0330  20.0429  20.1372  20.1414  20.1924  20.3632
    20.3799  20.3924  20.3981  20.4337  20.4874  20.4908  20.4921  20.4928
    20.5008  20.5127  20.6529  20.7269  20.7871  20.8152  20.8637  20.9681
    20.9715  21.0842  21.1167  21.1356  21.1366  21.1593  21.2261  21.3035
    21.3250  21.3325  21.3408  21.6528  21.6642  21.8101  22.1447  22.7428
    23.2497  23.3614  23.4940

          k = 0.0556 0.3889 0.3382 ( 34695 PWs)   bands (ev):

   -53.5261 -53.5042 -53.4545 -53.4455 -53.4411 -53.4346 -53.4277 -53.4183
   -53.4086 -53.4074 -53.4041 -53.4041 -53.4002 -53.3833 -53.3803 -53.3733
   -53.1509 -53.1493 -53.1391 -53.1381 -53.1153 -53.1149 -53.1147 -53.1144
   -53.1098 -53.1094 -53.1081 -53.1076 -53.0816 -53.0813 -53.0685 -53.0683
   -23.8285 -23.8157 -23.8140 -23.8002 -23.7836 -23.7807 -23.7599 -23.7469
   -23.7451 -23.7396 -23.7330 -23.7206 -23.7195 -23.7129 -23.6090 -23.6037
   -23.5448 -23.5295 -23.5240 -23.5161 -23.5038 -23.5010 -23.4943 -23.4901
   -23.4818 -23.4804 -23.4801 -23.4660 -23.4491 -23.4299 -23.3997 -23.3329
   -23.3152 -23.3102 -23.2873 -23.2859 -23.2625 -23.2514 -23.2490 -23.2476
   -23.2452 -23.2357 -23.2278 -23.2273 -23.2271 -23.2224 -23.2162 -23.2117
   -23.2067 -23.2018 -23.1963 -23.1954 -23.1710 -23.1623 -23.1541 -23.1511
   -23.1507 -23.1431 -23.1360 -23.1265 -23.1201 -23.1068 -23.1000 -23.0881
   -23.0100 -23.0084 -23.0064 -23.0042 -23.0034 -23.0017 -22.9972 -22.9956
   -22.9889 -22.9811 -22.9765 -22.9758 -22.9702 -22.9658 -22.9644 -22.9629
   -22.9454 -22.9422 -22.9413 -22.9286 -22.9168 -22.9127 -22.9038 -22.8991
   -22.8887 -22.8884 -22.8809 -22.8770 -22.8671 -22.8582 -22.8571 -22.8547
    12.8792  13.5047  13.9061  14.0749  14.0950  14.1957  14.2012  14.2895
    14.2982  14.3523  14.3931  14.4005  14.4322  14.4492  14.4643  14.4773
    14.5127  14.5554  14.6233  14.6903  14.7042  14.7455  14.8200  14.8968
    14.9711  15.1837  15.1984  15.2053  15.2502  15.2785  15.3188  15.3339
    15.3401  15.3769  15.3988  15.4201  15.4379  15.5686  15.5889  15.5944
    15.6411  15.6694  15.7146  15.7191  15.8163  15.8184  15.8256  15.8806
    16.1030  16.1385  16.2531  16.3392  16.5062  16.5279  16.5420  16.5928
    16.6380  16.7303  16.7704  16.9001  16.9067  16.9130  16.9153  16.9258
    16.9260  17.0879  17.1253  17.1367  17.1495  17.1844  17.2174  17.2789
    17.2942  17.2992  17.3055  17.3299  17.3331  17.3689  17.4565  17.4732
    17.4763  17.5062  17.5070  17.5462  17.5719  17.5767  17.6456  17.6521
    17.7078  17.7404  17.7503  17.7858  17.8464  17.9853  18.0139  18.0681
    18.0853  18.1488  18.1668  18.2471  18.2896  18.3058  18.3176  18.3226
    18.3935  18.4352  18.4592  18.5055  18.5158  18.5158  18.7327  18.8542
    18.8819  18.9179  18.9282  18.9318  18.9345  18.9705  18.9896  19.1921
    19.4238  19.4259  19.4497  19.4811  19.5517  19.5541  19.6542  19.6764
    19.7445  19.7674  19.7928  19.8534  19.9359  19.9878  19.9933  20.0291
    20.0621  20.0648  20.1022  20.2065  20.2374  20.2802  20.3011  20.3096
    20.3213  20.3432  20.3858  20.3951  20.4061  20.4336  20.4393  20.5026
    20.5042  20.5367  20.5734  20.7128  20.8074  20.8131  20.8192  20.9604
    20.9740  20.9866  21.0562  21.0600  21.0789  21.1083  21.1388  21.2443
    21.3261  21.3368  21.5752  21.6737  21.6978  21.7516  22.6167  22.6955
    23.0907  23.1037  23.7564

          k = 0.0556 0.3889-0.4348 ( 34698 PWs)   bands (ev):

   -53.5261 -53.5042 -53.4545 -53.4455 -53.4411 -53.4346 -53.4277 -53.4183
   -53.4086 -53.4074 -53.4041 -53.4041 -53.4002 -53.3833 -53.3803 -53.3733
   -53.1506 -53.1496 -53.1388 -53.1384 -53.1152 -53.1149 -53.1148 -53.1144
   -53.1098 -53.1094 -53.1081 -53.1076 -53.0816 -53.0813 -53.0685 -53.0683
   -23.8285 -23.8158 -23.8140 -23.8002 -23.7835 -23.7808 -23.7599 -23.7467
   -23.7451 -23.7396 -23.7329 -23.7206 -23.7195 -23.7128 -23.6090 -23.6037
   -23.5449 -23.5299 -23.5244 -23.5165 -23.5039 -23.5012 -23.4944 -23.4902
   -23.4819 -23.4808 -23.4802 -23.4661 -23.4489 -23.4298 -23.3997 -23.3329
   -23.3145 -23.3103 -23.2875 -23.2858 -23.2627 -23.2512 -23.2494 -23.2469
   -23.2452 -23.2352 -23.2270 -23.2270 -23.2267 -23.2229 -23.2167 -23.2117
   -23.2068 -23.2015 -23.1964 -23.1948 -23.1709 -23.1629 -23.1541 -23.1505
   -23.1505 -23.1429 -23.1353 -23.1264 -23.1199 -23.1070 -23.1001 -23.0887
   -23.0116 -23.0092 -23.0071 -23.0040 -23.0039 -23.0020 -22.9979 -22.9959
   -22.9888 -22.9807 -22.9758 -22.9755 -22.9697 -22.9654 -22.9640 -22.9638
   -22.9452 -22.9419 -22.9408 -22.9288 -22.9172 -22.9124 -22.9041 -22.8992
   -22.8885 -22.8881 -22.8807 -22.8771 -22.8673 -22.8580 -22.8569 -22.8549
    12.9055  13.5255  13.8730  14.0831  14.0996  14.1791  14.2011  14.2893
    14.3061  14.3529  14.3908  14.4020  14.4087  14.4600  14.4717  14.4790
    14.5138  14.5535  14.6201  14.6833  14.6882  14.7512  14.8165  14.8979
    14.9736  15.1679  15.2002  15.2059  15.2441  15.2961  15.3033  15.3199
    15.3345  15.3783  15.3963  15.4324  15.4389  15.5465  15.5521  15.5705
    15.6375  15.6493  15.6936  15.7282  15.7902  15.8089  15.8271  15.8607
    16.1050  16.1467  16.2627  16.3279  16.5276  16.5326  16.5680  16.6375
    16.6532  16.6809  16.8072  16.9110  16.9181  16.9212  16.9214  16.9458
    17.0307  17.0973  17.1373  17.1694  17.1900  17.1993  17.2318  17.2617
    17.2925  17.3064  17.3277  17.3327  17.3333  17.4056  17.4527  17.4814
    17.5012  17.5350  17.5405  17.5942  17.5962  17.6750  17.7070  17.7212
    17.7227  17.7284  17.7413  17.7760  17.7841  17.9055  17.9159  17.9637
    17.9786  18.1076  18.1706  18.1981  18.2428  18.2482  18.2699  18.3002
    18.4278  18.4338  18.4545  18.5050  18.5250  18.5326  18.7108  18.8239
    18.8309  18.8775  18.8916  18.8981  18.9135  18.9248  18.9462  19.2311
    19.3879  19.4680  19.4894  19.5115  19.5126  19.5725  19.6678  19.7137
    19.7223  19.7989  19.8249  19.8615  19.9654  19.9978  20.0502  20.0815
    20.0975  20.0988  20.1588  20.2435  20.2754  20.2842  20.2952  20.3052
    20.3192  20.3589  20.3935  20.4080  20.4270  20.4400  20.4405  20.4456
    20.5044  20.5070  20.5708  20.7290  20.7407  20.8113  20.8189  20.9207
    20.9627  20.9740  21.0300  21.0457  21.0736  21.0856  21.1396  21.1454
    21.2152  21.3347  21.5562  21.7228  21.9023  21.9804  22.3127  22.8811
    23.1476  23.1622  23.2905

          k = 0.0556-0.5000 0.0483 ( 34714 PWs)   bands (ev):

   -53.5161 -53.5161 -53.4504 -53.4504 -53.4381 -53.4381 -53.4233 -53.4233
   -53.4061 -53.4061 -53.4034 -53.4034 -53.3927 -53.3927 -53.3765 -53.3765
   -53.1466 -53.1466 -53.1432 -53.1432 -53.1153 -53.1153 -53.1144 -53.1144
   -53.1090 -53.1090 -53.1084 -53.1084 -53.0745 -53.0745 -53.0743 -53.0743
   -23.7979 -23.7979 -23.7822 -23.7822 -23.7809 -23.7809 -23.7679 -23.7679
   -23.7550 -23.7550 -23.7515 -23.7515 -23.7320 -23.7320 -23.6084 -23.6084
   -23.5188 -23.5188 -23.5101 -23.5101 -23.5018 -23.5018 -23.5010 -23.5010
   -23.4885 -23.4885 -23.4618 -23.4618 -23.4531 -23.4531 -23.3636 -23.3636
   -23.2965 -23.2965 -23.2770 -23.2770 -23.2610 -23.2610 -23.2392 -23.2392
   -23.2365 -23.2365 -23.2337 -23.2337 -23.2279 -23.2279 -23.2242 -23.2242
   -23.1935 -23.1935 -23.1915 -23.1915 -23.1800 -23.1800 -23.1787 -23.1787
   -23.1531 -23.1531 -23.1375 -23.1375 -23.1115 -23.1114 -23.0907 -23.0907
   -23.0001 -23.0001 -22.9995 -22.9995 -22.9974 -22.9974 -22.9966 -22.9966
   -22.9795 -22.9795 -22.9770 -22.9770 -22.9689 -22.9688 -22.9663 -22.9663
   -22.9281 -22.9281 -22.9153 -22.9153 -22.9130 -22.9130 -22.9023 -22.9023
   -22.8878 -22.8878 -22.8840 -22.8840 -22.8765 -22.8765 -22.8729 -22.8729
    13.0324  13.0324  14.1967  14.1967  14.2272  14.2272  14.2708  14.2708
    14.3036  14.3036  14.4255  14.4255  14.4356  14.4356  14.4969  14.4969
    14.5469  14.5469  14.6153  14.6153  14.6235  14.6235  14.8153  14.8153
    15.0875  15.0875  15.2358  15.2358  15.3357  15.3357  15.3775  15.3775
    15.4205  15.4205  15.5141  15.5141  15.5387  15.5387  15.5511  15.5511
    15.6593  15.6593  15.8154  15.8154  15.8166  15.8166  15.9735  15.9735
    16.1218  16.1218  16.2250  16.2250  16.4873  16.4873  16.5452  16.5452
    16.5500  16.5500  16.6115  16.6115  16.6413  16.6413  16.6928  16.6928
    16.9980  16.9980  17.0840  17.0840  17.0860  17.0860  17.1319  17.1319
    17.1356  17.1356  17.1789  17.1789  17.2223  17.2223  17.3804  17.3804
    17.4002  17.4002  17.4666  17.4666  17.4911  17.4911  17.6319  17.6319
    17.6551  17.6551  18.0871  18.0871  18.1408  18.1408  18.1724  18.1724
    18.3489  18.3489  18.4228  18.4228  18.4481  18.4481  18.4671  18.4671
    18.6141  18.6141  18.7449  18.7449  18.7990  18.7990  18.9629  18.9629
    18.9875  18.9875  19.0609  19.0609  19.0984  19.0984  19.2210  19.2210
    19.2263  19.2263  19.4220  19.4220  19.5779  19.5779  19.6055  19.6055
    19.6284  19.6284  19.7112  19.7112  19.7210  19.7210  19.7727  19.7727
    19.8095  19.8095  19.9070  19.9070  20.0694  20.0694  20.2280  20.2280
    20.3747  20.3747  20.4982  20.4982  20.6228  20.6228  20.6317  20.6317
    20.7445  20.7445  20.7591  20.7591  20.7626  20.7626  20.7994  20.7995
    20.9018  20.9018  21.0888  21.0888  21.1774  21.1774  21.2366  21.2366
    21.3843  21.3843  21.4849  21.4849  21.7171  21.7171  22.2246  22.2247
    22.2801  22.2801  22.8283

          k = 0.0556-0.5000 0.1449 ( 34744 PWs)   bands (ev):

   -53.5161 -53.5161 -53.4504 -53.4504 -53.4381 -53.4381 -53.4234 -53.4234
[...]
   -23.2422 -23.2422 -23.2422 -23.2422 -23.2422 -23.2422 -23.2422 -23.2422
   -23.2332 -23.2332 -23.2332 -23.2332 -23.2332 -23.2332 -23.2332 -23.2332
   -23.1839 -23.1839 -23.1839 -23.1839 -23.1523 -23.1523 -23.1523 -23.1523
   -23.1523 -23.1523 -23.1523 -23.1523 -23.1369 -23.1369 -23.1369 -23.1369
   -23.1271 -23.1271 -23.1271 -23.1271 -23.1271 -23.1271 -23.1271 -23.1271
   -23.0865 -23.0865 -23.0865 -23.0865 -23.0715 -23.0715 -23.0715 -23.0715
   -23.0425 -23.0425 -23.0425 -23.0425 -23.0148 -23.0148 -23.0148 -23.0148
   -22.9569 -22.9569 -22.9569 -22.9569 -22.9416 -22.9416 -22.9416 -22.9416
    13.9327  13.9327  13.9327  13.9327  14.4824  14.4824  14.4824  14.4824
    14.8341  14.8341  14.8341  14.8341  14.8463  14.8463  14.8463  14.8463
    15.1233  15.1233  15.1233  15.1233  15.1233  15.1233  15.1233  15.1233
    15.2889  15.2890  15.2890  15.2890  15.2890  15.2890  15.2890  15.2890
    15.4202  15.4203  15.4203  15.4203  15.4203  15.4203  15.4203  15.4203
    15.8289  15.8289  15.8289  15.8289  16.0033  16.0033  16.0033  16.0034
    16.0034  16.0034  16.0034  16.0034  16.0819  16.0819  16.0819  16.0819
    16.6698  16.6698  16.6698  16.6698  16.9095  16.9095  16.9095  16.9096
    16.9925  16.9925  16.9925  16.9925  17.3605  17.3605  17.3605  17.3605
    17.4853  17.4853  17.4853  17.4853  17.8420  17.8420  17.8420  17.8420
    17.8420  17.8420  17.8420  17.8420  17.8490  17.8490  17.8490  17.8490
    18.1130  18.1130  18.1130  18.1130  18.1413  18.1413  18.1413  18.1413
    18.1413  18.1413  18.1413  18.1413  18.1794  18.1794  18.1794  18.1794
    18.2912  18.2912  18.2912  18.2912  18.2912  18.2912  18.2912  18.2912
    18.5740  18.5740  18.5740  18.5740  18.9019  18.9019  18.9019  18.9019
    19.2243  19.2243  19.2243  19.2243  19.4041  19.4041  19.4041  19.4041
    19.4041  19.4041  19.4041  19.4041  19.6290  19.6290  19.6290  19.6290
    19.8965  19.8965  19.8965  19.8965  20.3041  20.3041  20.3041  20.3041
    20.4229  20.4229  20.4229  20.4229  20.4229  20.4229  20.4229  20.4229
    20.7326  20.7326  20.7326  20.7326  20.7427  20.7427  20.7427  20.7427
    20.7427  20.7427  20.7427  20.7427  20.8756  20.8756  20.8756  20.8756
    21.2639  21.2639  21.2639  21.2639  23.9468  23.9468  23.9468  23.9468
    23.9468  23.9468  23.9468

          k =-0.5000-0.5000 0.2415 ( 34688 PWs)   bands (ev):

   -53.3675 -53.3675 -53.3675 -53.3675 -53.3607 -53.3607 -53.3607 -53.3607
   -53.2884 -53.2884 -53.2884 -53.2884 -53.2816 -53.2816 -53.2816 -53.2816
   -53.2704 -53.2704 -53.2704 -53.2704 -53.2704 -53.2703 -53.2703 -53.2703
   -53.2693 -53.2693 -53.2693 -53.2693 -53.2693 -53.2693 -53.2693 -53.2693
   -23.6229 -23.6229 -23.6229 -23.6229 -23.6229 -23.6229 -23.6229 -23.6229
   -23.6105 -23.6105 -23.6105 -23.6105 -23.6105 -23.6105 -23.6105 -23.6105
   -23.5283 -23.5283 -23.5283 -23.5283 -23.5193 -23.5193 -23.5193 -23.5193
   -23.4370 -23.4370 -23.4370 -23.4370 -23.4121 -23.4121 -23.4121 -23.4121
   -23.2414 -23.2414 -23.2414 -23.2414 -23.2414 -23.2414 -23.2414 -23.2414
   -23.2347 -23.2347 -23.2347 -23.2347 -23.2347 -23.2347 -23.2347 -23.2347
   -23.1824 -23.1824 -23.1824 -23.1824 -23.1486 -23.1486 -23.1486 -23.1486
   -23.1486 -23.1486 -23.1486 -23.1486 -23.1483 -23.1483 -23.1483 -23.1483
   -23.1300 -23.1300 -23.1300 -23.1300 -23.1300 -23.1300 -23.1300 -23.1300
   -23.0848 -23.0848 -23.0848 -23.0848 -23.0736 -23.0736 -23.0736 -23.0736
   -23.0351 -23.0351 -23.0351 -23.0351 -23.0159 -23.0159 -23.0159 -23.0159
   -22.9547 -22.9547 -22.9547 -22.9547 -22.9434 -22.9434 -22.9434 -22.9434
    13.9817  13.9817  13.9817  13.9817  14.3672  14.3672  14.3672  14.3672
    14.8561  14.8561  14.8561  14.8561  14.8889  14.8889  14.8889  14.8889
    15.1045  15.1045  15.1045  15.1045  15.1045  15.1045  15.1045  15.1045
    15.2356  15.2356  15.2356  15.2356  15.2356  15.2356  15.2356  15.2356
    15.5318  15.5318  15.5318  15.5318  15.5319  15.5319  15.5319  15.5319
    15.8580  15.8580  15.8580  15.8580  15.9624  15.9624  15.9624  15.9624
    15.9624  15.9624  15.9624  15.9625  16.0529  16.0529  16.0529  16.0530
    16.6730  16.6730  16.6730  16.6730  16.8705  16.8705  16.8705  16.8705
    17.0612  17.0612  17.0612  17.0612  17.3595  17.3595  17.3595  17.3595
    17.5345  17.5345  17.5345  17.5345  17.8028  17.8028  17.8028  17.8028
    17.8915  17.8915  17.8915  17.8915  17.8915  17.8915  17.8915  17.8915
    18.1065  18.1065  18.1065  18.1065  18.1217  18.1217  18.1217  18.1217
    18.1217  18.1217  18.1217  18.1217  18.1482  18.1482  18.1482  18.1482
    18.3619  18.3619  18.3619  18.3619  18.3619  18.3619  18.3619  18.3619
    18.6483  18.6483  18.6483  18.6483  18.8908  18.8908  18.8908  18.8908
    19.1292  19.1292  19.1292  19.1292  19.1292  19.1292  19.1292  19.1292
    19.1894  19.1894  19.1894  19.1894  19.3858  19.3858  19.3858  19.3858
    19.9058  19.9058  19.9058  19.9058  20.1977  20.1977  20.1977  20.1977
    20.5999  20.5999  20.5999  20.5999  20.5999  20.5999  20.5999  20.5999
    20.7763  20.7763  20.7763  20.7763  20.7763  20.7763  20.7763  20.7763
    20.7961  20.7961  20.7961  20.7961  20.8848  20.8849  20.8849  20.8849
    21.8343  21.8343  21.8343  21.8343  24.0322  24.0322  24.0322  24.0322
    24.0322  24.0322  24.0322

          k =-0.5000-0.5000 0.3382 ( 34748 PWs)   bands (ev):

   -53.3660 -53.3660 -53.3660 -53.3660 -53.3624 -53.3624 -53.3624 -53.3624
   -53.2867 -53.2867 -53.2867 -53.2867 -53.2831 -53.2831 -53.2831 -53.2831
   -53.2704 -53.2704 -53.2704 -53.2704 -53.2704 -53.2704 -53.2704 -53.2704
   -53.2693 -53.2693 -53.2693 -53.2693 -53.2693 -53.2693 -53.2693 -53.2693
   -23.6200 -23.6200 -23.6200 -23.6200 -23.6200 -23.6200 -23.6200 -23.6200
   -23.6135 -23.6135 -23.6134 -23.6134 -23.6134 -23.6134 -23.6134 -23.6134
   -23.5287 -23.5287 -23.5287 -23.5287 -23.5244 -23.5244 -23.5244 -23.5244
   -23.4267 -23.4267 -23.4267 -23.4267 -23.4137 -23.4137 -23.4137 -23.4137
   -23.2401 -23.2401 -23.2401 -23.2401 -23.2401 -23.2401 -23.2401 -23.2401
   -23.2366 -23.2366 -23.2365 -23.2365 -23.2365 -23.2365 -23.2365 -23.2365
   -23.1784 -23.1784 -23.1784 -23.1784 -23.1605 -23.1605 -23.1605 -23.1605
   -23.1440 -23.1440 -23.1440 -23.1440 -23.1440 -23.1440 -23.1440 -23.1440
   -23.1341 -23.1341 -23.1341 -23.1341 -23.1341 -23.1341 -23.1341 -23.1341
   -23.0824 -23.0824 -23.0824 -23.0824 -23.0764 -23.0764 -23.0764 -23.0764
   -23.0280 -23.0280 -23.0280 -23.0280 -23.0183 -23.0183 -23.0183 -23.0183
   -22.9519 -22.9519 -22.9519 -22.9519 -22.9460 -22.9460 -22.9460 -22.9460
    14.0531  14.0531  14.0531  14.0531  14.2511  14.2511  14.2511  14.2511
    14.8813  14.8813  14.8813  14.8813  14.9066  14.9066  14.9066  14.9066
    15.1080  15.1080  15.1080  15.1080  15.1080  15.1080  15.1080  15.1080
    15.1796  15.1796  15.1796  15.1796  15.1796  15.1797  15.1797  15.1797
    15.6566  15.6566  15.6566  15.6566  15.6566  15.6566  15.6566  15.6566
    15.8863  15.8863  15.8863  15.8863  15.8863  15.8863  15.8863  15.8863
    15.9002  15.9002  15.9002  15.9002  16.0065  16.0066  16.0066  16.0066
    16.7042  16.7042  16.7042  16.7042  16.8170  16.8170  16.8170  16.8170
    17.1508  17.1508  17.1508  17.1508  17.3191  17.3191  17.3191  17.3191
    17.6021  17.6021  17.6021  17.6021  17.7421  17.7421  17.7421  17.7421
    17.9627  17.9627  17.9627  17.9627  17.9627  17.9627  17.9627  17.9627
    18.0873  18.0874  18.0874  18.0874  18.0874  18.0874  18.0874  18.0874
    18.1033  18.1033  18.1033  18.1033  18.1228  18.1228  18.1228  18.1228
    18.4739  18.4739  18.4739  18.4739  18.4739  18.4740  18.4740  18.4740
    18.7298  18.7298  18.7298  18.7298  18.8595  18.8595  18.8595  18.8595
    18.8649  18.8649  18.8649  18.8649  18.8649  18.8649  18.8649  18.8649
    19.1594  19.1594  19.1594  19.1594  19.2289  19.2289  19.2289  19.2289
    19.9388  19.9388  19.9388  19.9388  20.0919  20.0919  20.0919  20.0919
    20.7258  20.7258  20.7258  20.7258  20.7259  20.7259  20.7259  20.7259
    20.7999  20.7999  20.7999  20.7999  20.7999  20.7999  20.7999  20.7999
    20.8456  20.8456  20.8456  20.8456  20.8874  20.8874  20.8874  20.8874
    22.4813  22.4813  22.4814  22.4814  23.9169  23.9169  23.9169  23.9170
    24.1623  24.1623  24.1623

          k =-0.5000-0.5000-0.4348 ( 34784 PWs)   bands (ev):

   -53.3644 -53.3644 -53.3644 -53.3643 -53.3641 -53.3641 -53.3641 -53.3641
   -53.2849 -53.2849 -53.2849 -53.2849 -53.2848 -53.2848 -53.2848 -53.2848
   -53.2704 -53.2704 -53.2704 -53.2704 -53.2704 -53.2704 -53.2704 -53.2704
   -53.2693 -53.2693 -53.2693 -53.2693 -53.2693 -53.2693 -53.2693 -53.2693
   -23.6171 -23.6171 -23.6171 -23.6171 -23.6171 -23.6171 -23.6171 -23.6171
   -23.6164 -23.6164 -23.6164 -23.6164 -23.6164 -23.6164 -23.6164 -23.6164
   -23.5277 -23.5277 -23.5277 -23.5277 -23.5275 -23.5275 -23.5275 -23.5275
   -23.4187 -23.4187 -23.4187 -23.4187 -23.4183 -23.4183 -23.4183 -23.4183
   -23.2389 -23.2389 -23.2389 -23.2389 -23.2389 -23.2389 -23.2389 -23.2389
   -23.2379 -23.2379 -23.2379 -23.2379 -23.2379 -23.2379 -23.2379 -23.2379
   -23.1711 -23.1711 -23.1711 -23.1711 -23.1709 -23.1709 -23.1709 -23.1709
   -23.1393 -23.1393 -23.1393 -23.1393 -23.1393 -23.1393 -23.1393 -23.1393
   -23.1385 -23.1385 -23.1385 -23.1385 -23.1385 -23.1385 -23.1385 -23.1385
   -23.0797 -23.0797 -23.0797 -23.0797 -23.0794 -23.0794 -23.0794 -23.0794
   -23.0223 -23.0223 -23.0223 -23.0223 -23.0223 -23.0223 -23.0223 -23.0223
   -22.9489 -22.9489 -22.9489 -22.9489 -22.9489 -22.9489 -22.9489 -22.9489
    14.1426  14.1426  14.1426  14.1426  14.1460  14.1460  14.1460  14.1460
    14.9005  14.9005  14.9005  14.9005  14.9022  14.9022  14.9022  14.9022
    15.1336  15.1336  15.1336  15.1336  15.1336  15.1336  15.1336  15.1336
    15.1351  15.1351  15.1351  15.1351  15.1352  15.1352  15.1352  15.1352
    15.7792  15.7792  15.7792  15.7792  15.7792  15.7792  15.7792  15.7792
    15.7804  15.7804  15.7804  15.7804  15.7805  15.7805  15.7805  15.7805
    15.9504  15.9504  15.9504  15.9504  15.9535  15.9536  15.9536  15.9536
    16.7567  16.7567  16.7567  16.7567  16.7579  16.7579  16.7579  16.7579
    17.2423  17.2423  17.2423  17.2423  17.2455  17.2455  17.2455  17.2455
    17.6726  17.6726  17.6726  17.6726  17.6741  17.6741  17.6741  17.6742
    18.0321  18.0321  18.0321  18.0321  18.0321  18.0321  18.0321  18.0321
    18.0354  18.0354  18.0354  18.0354  18.0355  18.0355  18.0355  18.0355
    18.1075  18.1075  18.1075  18.1075  18.1082  18.1082  18.1082  18.1082
    18.6408  18.6408  18.6408  18.6408  18.6408  18.6408  18.6409  18.6409
    18.6410  18.6410  18.6410  18.6410  18.6410  18.6410  18.6410  18.6410
    18.8032  18.8032  18.8032  18.8032  18.8048  18.8048  18.8048  18.8048
    19.1598  19.1598  19.1598  19.1598  19.1636  19.1636  19.1636  19.1637
    20.0014  20.0014  20.0014  20.0014  20.0027  20.0027  20.0027  20.0027
    20.7886  20.7886  20.7886  20.7886  20.7886  20.7886  20.7886  20.7886
    20.7908  20.7908  20.7908  20.7908  20.7908  20.7908  20.7908  20.7908
    20.8756  20.8756  20.8756  20.8756  20.8762  20.8762  20.8762  20.8762
    23.1811  23.1811  23.1811  23.1811  23.1814  23.1814  23.1814  23.1814
    24.3299  24.3299  24.3299

     the Fermi energy is    19.4542 ev

!    total energy              =  -13812.55023970 Ry

     total all-electron energy =   -289988.940579 Ry
     estimated scf accuracy    <          2.2E-09 Ry
     smearing contrib. (-TS)   =       0.06257109 Ry
     internal energy E=F+TS    =  -13812.61281079 Ry

     The total energy is F=E-TS. E is the sum of the following terms:
     one-electron contribution =   -1461.71963346 Ry
     hartree contribution      =    1082.53517160 Ry
     xc contribution           =    -924.29160866 Ry
     ewald contribution        =   -4919.83256084 Ry
     one-center paw contrib.   =   -7589.30417943 Ry

     convergence has been achieved in  10 iterations

     Forces acting on atoms (cartesian axes, Ry/au):

     atom    1 type  1   force =     0.00000000    0.00000000   -0.00015383
     atom    2 type  1   force =     0.00000293    0.00000293   -0.00015275
     atom    3 type  1   force =     0.00000235    0.00000000   -0.00001482
     atom    4 type  1   force =     0.00000000    0.00000235   -0.00001482
     atom    5 type  1   force =     0.00000000    0.00000000    0.00001075
     atom    6 type  1   force =     0.00000219    0.00000219    0.00001225
     atom    7 type  1   force =     0.00000296    0.00000000    0.00015515
     atom    8 type  1   force =     0.00000000    0.00000296    0.00015515
     atom    9 type  1   force =     0.00000000    0.00000000   -0.00015189
     atom   10 type  1   force =     0.00000293   -0.00000293   -0.00015275
     atom   11 type  1   force =     0.00000268    0.00000000   -0.00001704
     atom   12 type  1   force =     0.00000000   -0.00000235   -0.00001482
     atom   13 type  1   force =     0.00000000    0.00000000    0.00001363
     atom   14 type  1   force =     0.00000219   -0.00000219    0.00001225
     atom   15 type  1   force =     0.00000347    0.00000000    0.00015667
     atom   16 type  1   force =     0.00000000   -0.00000296    0.00015515
     atom   17 type  1   force =     0.00000000    0.00000000   -0.00015189
     atom   18 type  1   force =    -0.00000293    0.00000293   -0.00015275
     atom   19 type  1   force =    -0.00000235    0.00000000   -0.00001482
     atom   20 type  1   force =     0.00000000    0.00000268   -0.00001704
     atom   21 type  1   force =     0.00000000    0.00000000    0.00001363
     atom   22 type  1   force =    -0.00000219    0.00000219    0.00001225
     atom   23 type  1   force =    -0.00000296    0.00000000    0.00015515
     atom   24 type  1   force =     0.00000000    0.00000347    0.00015667
     atom   25 type  1   force =     0.00000000    0.00000000   -0.00015287
     atom   26 type  1   force =    -0.00000293   -0.00000293   -0.00015275
     atom   27 type  1   force =    -0.00000268    0.00000000   -0.00001704
     atom   28 type  1   force =     0.00000000   -0.00000268   -0.00001704
     atom   29 type  1   force =     0.00000000    0.00000000    0.00001465
     atom   30 type  1   force =    -0.00000219   -0.00000219    0.00001225
     atom   31 type  1   force =    -0.00000347    0.00000000    0.00015667
     atom   32 type  1   force =     0.00000000   -0.00000347    0.00015667

     Total force =     0.000620     Total SCF correction =     0.000463
     SCF correction compared to forces is large: reduce conv_thr to get better values


     Computing stress (Cartesian axis) and pressure

          total   stress  (Ry/bohr**3)                   (kbar)     P=     -231.41
  -0.00101388   0.00000000   0.00000000         -149.15        0.00        0.00
   0.00000000  -0.00101388   0.00000000            0.00     -149.15        0.00
   0.00000000   0.00000000  -0.00269161            0.00        0.00     -395.95

     Energy error            =      5.5E-06
     Gradient error          =      1.6E-04

     bfgs converged in  13 scf cycles and  12 bfgs steps
     (criteria: energy <  1.0E-04 Ry, force <  1.0E-03 Ry/Bohr)

     End of BFGS Geometry Optimization

     Final energy   =  -13812.5502396999 Ry

     File /scratch/JSFIIuvteuzTCqLK.bfgs deleted, as requested
Begin final coordinates

ATOMIC_POSITIONS (crystal)
Ru            0.0000000000        0.0000000000        0.0328479738
Ru            0.2499996512        0.2499996512        0.0328477185
Ru            0.2499999931        0.0000000000        0.2500154555
Ru           -0.0000000000        0.2499999931        0.2500154555
Ru            0.0000000000        0.0000000000        0.5325946132
Ru            0.2499995764        0.2499995764        0.5325941478
Ru            0.2500000363        0.0000000000        0.7497610023
Ru            0.0000000000        0.2500000363        0.7497610023
Ru            0.0000000000        0.5000000000        0.0328463837
Ru            0.2499996512        0.7500003488        0.0328477185
Ru            0.2499992928        0.5000000000        0.2500160558
Ru            0.0000000000        0.7500000069        0.2500154555
Ru            0.0000000000        0.5000000000        0.5325927727
Ru            0.2499995764        0.7500004236        0.5325941478
Ru            0.2499992931        0.5000000000        0.7497597890
Ru            0.0000000000        0.7499999637        0.7497610023
Ru            0.5000000000        0.0000000000        0.0328463837
Ru            0.7500003488        0.2499996512        0.0328477185
Ru            0.7500000069       -0.0000000000        0.2500154555
Ru            0.5000000000        0.2499992928        0.2500160558
Ru            0.5000000000        0.0000000000        0.5325927727
Ru            0.7500004236        0.2499995764        0.5325941478
Ru            0.7499999637        0.0000000000        0.7497610023
Ru            0.5000000000        0.2499992931        0.7497597890
Ru            0.5000000000        0.5000000000        0.0328482813
Ru            0.7500003488        0.7500003488        0.0328477185
Ru            0.7500007072        0.5000000000        0.2500160558
Ru            0.5000000000        0.7500007072        0.2500160558
Ru            0.5000000000        0.5000000000        0.5325932740
Ru            0.7500004236        0.7500004236        0.5325941478
Ru            0.7500007069        0.5000000000        0.7497597890
Ru            0.5000000000        0.7500007069        0.7497597890
End final coordinates



     Writing output data file /scratch/JSFIIuvteuzTCqLK.save/
 
     init_run     :     31.62s CPU     32.67s WALL (       1 calls)
     electrons    :  14233.68s CPU  14425.45s WALL (      13 calls)
     update_pot   :      2.78s CPU      2.87s WALL (      12 calls)
     forces       :    159.35s CPU    160.69s WALL (      13 calls)
     stress       :   1101.73s CPU   1109.56s WALL (      13 calls)

     Called by init_run:
     wfcinit      :     31.03s CPU     32.01s WALL (       1 calls)
     potinit      :      0.15s CPU      0.18s WALL (       1 calls)
     hinit0       :      0.10s CPU      0.10s WALL (       1 calls)

     Called by electrons:
     c_bands      :  12734.55s CPU  12897.24s WALL (     178 calls)
     sum_band     :   1474.02s CPU   1499.33s WALL (     178 calls)
     v_of_rho     :      2.56s CPU      2.68s WALL (     190 calls)
     newd         :      5.25s CPU      7.23s WALL (     190 calls)
     PAW_pot      :     17.18s CPU     18.12s WALL (     202 calls)
     mix_rho      :      1.27s CPU      1.62s WALL (     178 calls)

     Called by c_bands:
     init_us_2    :     64.58s CPU     65.49s WALL (   29625 calls)
     cegterg      :  12505.27s CPU  12653.30s WALL (   13350 calls)

     Called by *egterg:
     cdiaghg      :   1270.75s CPU   1280.19s WALL (   45881 calls)
     h_psi        :   6703.42s CPU   6804.60s WALL (   46931 calls)
     s_psi        :    549.73s CPU    553.28s WALL (   46931 calls)
     g_psi        :     16.74s CPU     17.01s WALL (   33506 calls)

     Called by h_psi:
     h_psi:calbec :    975.35s CPU    982.44s WALL (   46931 calls)
     vloc_psi     :   5153.73s CPU   5238.66s WALL (   46931 calls)
     add_vuspsi   :    535.35s CPU    544.16s WALL (   46931 calls)

     General routines
     calbec       :   1615.56s CPU   1627.29s WALL (   66056 calls)
     fft          :      4.27s CPU      4.37s WALL (    2782 calls)
     ffts         :      0.25s CPU      0.26s WALL (     368 calls)
     fftw         :   5945.47s CPU   6042.57s WALL (25322608 calls)
     interpolate  :      0.67s CPU      0.69s WALL (     190 calls)
 
     Parallel routines
     fft_scatt_xy :    435.52s CPU    442.36s WALL (25325758 calls)
     fft_scatt_yz :   4737.02s CPU   4816.10s WALL (25325758 calls)
 
     PWSCF        :      4h19m CPU      4h23m WALL

 
   This run was terminated on:   1: 0:31  27Nov2021            

=------------------------------------------------------------------------------=
   JOB DONE.
=------------------------------------------------------------------------------=
