
     Program PWSCF v.6.7MaX starts on  1Dec2021 at 16:47:27 

     This program is part of the open-source Quantum ESPRESSO suite
     for quantum simulation of materials; please cite
         "P. Giannozzi et al., J. Phys.:Condens. Matter 21 395502 (2009);
         "P. Giannozzi et al., J. Phys.:Condens. Matter 29 465901 (2017);
          URL http://www.quantum-espresso.org", 
     in publications or presentations arising from this work. More details at
     http://www.quantum-espresso.org/quote

     Parallel version (MPI & OpenMP), running on      72 processor cores
     Number of MPI processes:                72
     Threads/MPI process:                     1

     MPI processes distributed on     1 nodes
     R & G space division:  proc/nbgrp/npool/nimage =      72
     Reading input from relax_5.in
Warning: card &CELL ignored
Warning: card CELL_DYNAMICS = 'BFGS', ignored
Warning: card CELL_FACTOR = 2.0, ignored
Warning: card PRESS = 0.0, ignored
Warning: card / ignored

     Current dimensions of program PWSCF are:
     Max number of different atomic species (ntypx) = 10
     Max number of k-points (npk) =  40000
     Max angular momentum in pseudopotentials (lmaxx) =  3
     file Ru.pbe-spn-kjpaw_psl.1.0.0.UPF: wavefunction(s)  4D renormalized

     Subspace diagonalization in iterative solution of the eigenvalue problem:
     one sub-group per band group will be used
     ELPA distributed-memory algorithm (size of sub-group:  8*  8 procs)

     Found symmetry operation: I + (  0.2500  0.2500  0.0000)
     This is a supercell, fractional translations are disabled
     Message from routine setup:
     using ibrav=0 with symmetry is DISCOURAGED, use correct ibrav instead
 
     Parallelization info
     --------------------
     sticks:   dense  smooth     PW     G-vecs:    dense   smooth      PW
     Min          98      65     17                 7492     4022     566
     Max          99      67     19                 7497     4027     572
     Sum        7113    4693   1281               539635   289761   40985
 


     bravais-lattice index     =            0
     lattice parameter (alat)  =      14.4007  a.u.
     unit-cell volume          =    3583.7344 (a.u.)^3
     number of atoms/cell      =           32
     number of atomic types    =            1
     number of electrons       =       512.00
     number of Kohn-Sham states=          307
     kinetic-energy cutoff     =      71.0000  Ry
     charge density cutoff     =     430.0000  Ry
     scf convergence threshold =      1.0E-06
     mixing beta               =       0.1000
     number of iterations used =           10  TF        mixing
     energy convergence thresh.=      1.0E-04
     force convergence thresh. =      1.0E-03
     Exchange-correlation= SLA  PW   PBX  PBC
                           (   1   4   3   4   0   0   0)
     nstep                     =           40


     celldm(1)=  14.400742  celldm(2)=   0.000000  celldm(3)=   0.000000
     celldm(4)=   0.000000  celldm(5)=   0.000000  celldm(6)=   0.000000

     crystal axes: (cart. coord. in units of alat)
               a(1) = (   1.000000   0.000000   0.000000 )  
               a(2) = (   0.000000   1.000000   0.000000 )  
               a(3) = (   0.000000   0.000000   1.200000 )  

     reciprocal axes: (cart. coord. in units 2 pi/alat)
               b(1) = (  1.000000  0.000000  0.000000 )  
               b(2) = (  0.000000  1.000000  0.000000 )  
               b(3) = (  0.000000  0.000000  0.833333 )  


     PseudoPot. # 1 for Ru read from file:
     /rds/homes/b/bxp912/pp/Ru.pbe-spn-kjpaw_psl.1.0.0.UPF
     MD5 check sum: 0ae1f594dea09af7be8575c3a481d1ae
     Pseudo is Projector augmented-wave + core cor, Zval = 16.0
     Generated using "atomic" code by A. Dal Corso  v.5.1
     Shape of augmentation charge: PSQ
     Using radial grid of 1233 points,  6 beta functions with: 
                l(1) =   0
                l(2) =   0
                l(3) =   1
                l(4) =   1
                l(5) =   2
                l(6) =   2
     Q(r) pseudized with 0 coefficients 


     atomic species   valence    mass     pseudopotential
        Ru            16.00   101.07000     Ru( 1.00)

      8 Sym. Ops. (no inversion) found



   Cartesian axes

     site n.     atom                  positions (alat units)
         1           Ru  tau(   1) = (   0.0000000   0.0000000   0.0000000  )
         2           Ru  tau(   2) = (   0.2500000   0.2500000   0.0000000  )
         3           Ru  tau(   3) = (   0.2500000   0.0000000   0.2500000  )
         4           Ru  tau(   4) = (   0.0000000   0.2500000   0.2500000  )
         5           Ru  tau(   5) = (   0.0000000   0.0000000   0.7000000  )
         6           Ru  tau(   6) = (   0.2500000   0.2500000   0.7000000  )
         7           Ru  tau(   7) = (   0.2500000   0.0000000   0.9500000  )
         8           Ru  tau(   8) = (   0.0000000   0.2500000   0.9500000  )
         9           Ru  tau(   9) = (   0.0000000   0.5000000   0.0000000  )
        10           Ru  tau(  10) = (   0.2500000   0.7500000   0.0000000  )
        11           Ru  tau(  11) = (   0.2500000   0.5000000   0.2500000  )
        12           Ru  tau(  12) = (   0.0000000   0.7500000   0.2500000  )
        13           Ru  tau(  13) = (   0.0000000   0.5000000   0.7000000  )
        14           Ru  tau(  14) = (   0.2500000   0.7500000   0.7000000  )
        15           Ru  tau(  15) = (   0.2500000   0.5000000   0.9500000  )
        16           Ru  tau(  16) = (   0.0000000   0.7500000   0.9500000  )
        17           Ru  tau(  17) = (   0.5000000   0.0000000   0.0000000  )
        18           Ru  tau(  18) = (   0.7500000   0.2500000   0.0000000  )
        19           Ru  tau(  19) = (   0.7500000   0.0000000   0.2500000  )
        20           Ru  tau(  20) = (   0.5000000   0.2500000   0.2500000  )
        21           Ru  tau(  21) = (   0.5000000   0.0000000   0.7000000  )
        22           Ru  tau(  22) = (   0.7500000   0.2500000   0.7000000  )
        23           Ru  tau(  23) = (   0.7500000   0.0000000   0.9500000  )
        24           Ru  tau(  24) = (   0.5000000   0.2500000   0.9500000  )
        25           Ru  tau(  25) = (   0.5000000   0.5000000   0.0000000  )
        26           Ru  tau(  26) = (   0.7500000   0.7500000   0.0000000  )
        27           Ru  tau(  27) = (   0.7500000   0.5000000   0.2500000  )
        28           Ru  tau(  28) = (   0.5000000   0.7500000   0.2500000  )
        29           Ru  tau(  29) = (   0.5000000   0.5000000   0.7000000  )
        30           Ru  tau(  30) = (   0.7500000   0.7500000   0.7000000  )
        31           Ru  tau(  31) = (   0.7500000   0.5000000   0.9500000  )
        32           Ru  tau(  32) = (   0.5000000   0.7500000   0.9500000  )

     number of k points=    75  Marzari-Vanderbilt smearing, width (Ry)=  0.0400
                       cart. coord. in units 2pi/alat
        k(    1) = (   0.0555556   0.0555556   0.0462963), wk =   0.0219479
        k(    2) = (   0.0555556   0.0555556   0.1388889), wk =   0.0219479
        k(    3) = (   0.0555556   0.0555556   0.2314815), wk =   0.0219479
        k(    4) = (   0.0555556   0.0555556   0.3240741), wk =   0.0219479
        k(    5) = (   0.0555556   0.0555556  -0.4166667), wk =   0.0109739
        k(    6) = (   0.0555556   0.1666667   0.0462963), wk =   0.0438957
        k(    7) = (   0.0555556   0.1666667   0.1388889), wk =   0.0438957
        k(    8) = (   0.0555556   0.1666667   0.2314815), wk =   0.0438957
        k(    9) = (   0.0555556   0.1666667   0.3240741), wk =   0.0438957
        k(   10) = (   0.0555556   0.1666667  -0.4166667), wk =   0.0219479
        k(   11) = (   0.0555556   0.2777778   0.0462963), wk =   0.0438957
        k(   12) = (   0.0555556   0.2777778   0.1388889), wk =   0.0438957
        k(   13) = (   0.0555556   0.2777778   0.2314815), wk =   0.0438957
        k(   14) = (   0.0555556   0.2777778   0.3240741), wk =   0.0438957
        k(   15) = (   0.0555556   0.2777778  -0.4166667), wk =   0.0219479
        k(   16) = (   0.0555556   0.3888889   0.0462963), wk =   0.0438957
        k(   17) = (   0.0555556   0.3888889   0.1388889), wk =   0.0438957
        k(   18) = (   0.0555556   0.3888889   0.2314815), wk =   0.0438957
        k(   19) = (   0.0555556   0.3888889   0.3240741), wk =   0.0438957
        k(   20) = (   0.0555556   0.3888889  -0.4166667), wk =   0.0219479
        k(   21) = (   0.0555556  -0.5000000   0.0462963), wk =   0.0219479
        k(   22) = (   0.0555556  -0.5000000   0.1388889), wk =   0.0219479
        k(   23) = (   0.0555556  -0.5000000   0.2314815), wk =   0.0219479
        k(   24) = (   0.0555556  -0.5000000   0.3240741), wk =   0.0219479
        k(   25) = (   0.0555556  -0.5000000  -0.4166667), wk =   0.0109739
        k(   26) = (   0.1666667   0.1666667   0.0462963), wk =   0.0219479
        k(   27) = (   0.1666667   0.1666667   0.1388889), wk =   0.0219479
        k(   28) = (   0.1666667   0.1666667   0.2314815), wk =   0.0219479
        k(   29) = (   0.1666667   0.1666667   0.3240741), wk =   0.0219479
        k(   30) = (   0.1666667   0.1666667  -0.4166667), wk =   0.0109739
        k(   31) = (   0.1666667   0.2777778   0.0462963), wk =   0.0438957
        k(   32) = (   0.1666667   0.2777778   0.1388889), wk =   0.0438957
        k(   33) = (   0.1666667   0.2777778   0.2314815), wk =   0.0438957
        k(   34) = (   0.1666667   0.2777778   0.3240741), wk =   0.0438957
        k(   35) = (   0.1666667   0.2777778  -0.4166667), wk =   0.0219479
        k(   36) = (   0.1666667   0.3888889   0.0462963), wk =   0.0438957
        k(   37) = (   0.1666667   0.3888889   0.1388889), wk =   0.0438957
        k(   38) = (   0.1666667   0.3888889   0.2314815), wk =   0.0438957
        k(   39) = (   0.1666667   0.3888889   0.3240741), wk =   0.0438957
        k(   40) = (   0.1666667   0.3888889  -0.4166667), wk =   0.0219479
        k(   41) = (   0.1666667  -0.5000000   0.0462963), wk =   0.0219479
        k(   42) = (   0.1666667  -0.5000000   0.1388889), wk =   0.0219479
        k(   43) = (   0.1666667  -0.5000000   0.2314815), wk =   0.0219479
        k(   44) = (   0.1666667  -0.5000000   0.3240741), wk =   0.0219479
        k(   45) = (   0.1666667  -0.5000000  -0.4166667), wk =   0.0109739
        k(   46) = (   0.2777778   0.2777778   0.0462963), wk =   0.0219479
        k(   47) = (   0.2777778   0.2777778   0.1388889), wk =   0.0219479
        k(   48) = (   0.2777778   0.2777778   0.2314815), wk =   0.0219479
        k(   49) = (   0.2777778   0.2777778   0.3240741), wk =   0.0219479
        k(   50) = (   0.2777778   0.2777778  -0.4166667), wk =   0.0109739
        k(   51) = (   0.2777778   0.3888889   0.0462963), wk =   0.0438957
        k(   52) = (   0.2777778   0.3888889   0.1388889), wk =   0.0438957
        k(   53) = (   0.2777778   0.3888889   0.2314815), wk =   0.0438957
        k(   54) = (   0.2777778   0.3888889   0.3240741), wk =   0.0438957
        k(   55) = (   0.2777778   0.3888889  -0.4166667), wk =   0.0219479
        k(   56) = (   0.2777778  -0.5000000   0.0462963), wk =   0.0219479
        k(   57) = (   0.2777778  -0.5000000   0.1388889), wk =   0.0219479
        k(   58) = (   0.2777778  -0.5000000   0.2314815), wk =   0.0219479
        k(   59) = (   0.2777778  -0.5000000   0.3240741), wk =   0.0219479
        k(   60) = (   0.2777778  -0.5000000  -0.4166667), wk =   0.0109739
        k(   61) = (   0.3888889   0.3888889   0.0462963), wk =   0.0219479
        k(   62) = (   0.3888889   0.3888889   0.1388889), wk =   0.0219479
        k(   63) = (   0.3888889   0.3888889   0.2314815), wk =   0.0219479
        k(   64) = (   0.3888889   0.3888889   0.3240741), wk =   0.0219479
        k(   65) = (   0.3888889   0.3888889  -0.4166667), wk =   0.0109739
        k(   66) = (   0.3888889  -0.5000000   0.0462963), wk =   0.0219479
        k(   67) = (   0.3888889  -0.5000000   0.1388889), wk =   0.0219479
        k(   68) = (   0.3888889  -0.5000000   0.2314815), wk =   0.0219479
        k(   69) = (   0.3888889  -0.5000000   0.3240741), wk =   0.0219479
        k(   70) = (   0.3888889  -0.5000000  -0.4166667), wk =   0.0109739
        k(   71) = (  -0.5000000  -0.5000000   0.0462963), wk =   0.0054870
        k(   72) = (  -0.5000000  -0.5000000   0.1388889), wk =   0.0054870
        k(   73) = (  -0.5000000  -0.5000000   0.2314815), wk =   0.0054870
        k(   74) = (  -0.5000000  -0.5000000   0.3240741), wk =   0.0054870
        k(   75) = (  -0.5000000  -0.5000000  -0.4166667), wk =   0.0027435

     Dense  grid:   539635 G-vectors     FFT dimensions: (  96,  96, 120)

     Smooth grid:   289761 G-vectors     FFT dimensions: (  80,  80,  96)

     Estimated max dynamical RAM per process >     221.82 MB

     Estimated total dynamical RAM >      15.60 GB

     Check: negative core charge=   -0.000002

     Initial potential from superposition of free atoms

     starting charge  511.97959, renormalised to  512.00000
     Starting wfcs are  320 randomized atomic wfcs
     Checking if some PAW data can be deallocated... 

     total cpu time spent up to now is       29.9 secs

     Self-consistent Calculation

     iteration #  1     ecut=    71.00 Ry     beta= 0.10
     Davidson diagonalization with overlap
     ethr =  1.00E-02,  avg # of iterations =  3.6

     total cpu time spent up to now is      126.1 secs

     total energy              =  -13812.53776269 Ry
     estimated scf accuracy    <       8.33589772 Ry

     iteration #  2     ecut=    71.00 Ry     beta= 0.10
     Davidson diagonalization with overlap
     ethr =  1.63E-03,  avg # of iterations =  2.0

     total cpu time spent up to now is      200.1 secs

     total energy              =  -13812.32371228 Ry
     estimated scf accuracy    <       5.57511847 Ry

     iteration #  3     ecut=    71.00 Ry     beta= 0.10
     Davidson diagonalization with overlap
     ethr =  1.09E-03,  avg # of iterations =  1.6

     total cpu time spent up to now is      266.2 secs

     total energy              =  -13812.17149448 Ry
     estimated scf accuracy    <       1.68179084 Ry

     iteration #  4     ecut=    71.00 Ry     beta= 0.10
     Davidson diagonalization with overlap
     ethr =  3.28E-04,  avg # of iterations =  2.7

     total cpu time spent up to now is      337.5 secs

     total energy              =  -13811.92029931 Ry
     estimated scf accuracy    <       0.92743349 Ry

     iteration #  5     ecut=    71.00 Ry     beta= 0.10
     Davidson diagonalization with overlap
     ethr =  1.81E-04,  avg # of iterations =  4.5

     total cpu time spent up to now is      428.2 secs

     total energy              =  -13812.06309524 Ry
     estimated scf accuracy    <       0.27328499 Ry

     iteration #  6     ecut=    71.00 Ry     beta= 0.10
     Davidson diagonalization with overlap
     ethr =  5.34E-05,  avg # of iterations =  3.1

     total cpu time spent up to now is      504.9 secs

     total energy              =  -13812.03408763 Ry
     estimated scf accuracy    <       0.08885130 Ry

     iteration #  7     ecut=    71.00 Ry     beta= 0.10
     Davidson diagonalization with overlap
     ethr =  1.74E-05,  avg # of iterations =  4.1

     total cpu time spent up to now is      611.5 secs

     total energy              =  -13812.07560196 Ry
     estimated scf accuracy    <       0.06913834 Ry

     iteration #  8     ecut=    71.00 Ry     beta= 0.10
     Davidson diagonalization with overlap
     ethr =  1.35E-05,  avg # of iterations =  1.0

     total cpu time spent up to now is      676.3 secs

     total energy              =  -13812.05473818 Ry
     estimated scf accuracy    <       0.05373853 Ry

     iteration #  9     ecut=    71.00 Ry     beta= 0.10
     Davidson diagonalization with overlap
     ethr =  1.05E-05,  avg # of iterations =  2.5

     total cpu time spent up to now is      757.6 secs

     total energy              =  -13812.06133215 Ry
     estimated scf accuracy    <       0.00156737 Ry

     iteration # 10     ecut=    71.00 Ry     beta= 0.10
     Davidson diagonalization with overlap
     c_bands:  1 eigenvalues not converged
     ethr =  3.06E-07,  avg # of iterations =  4.9

     total cpu time spent up to now is      865.3 secs

     total energy              =  -13812.06197562 Ry
     estimated scf accuracy    <       0.00044760 Ry

     iteration # 11     ecut=    71.00 Ry     beta= 0.10
     Davidson diagonalization with overlap
     ethr =  8.74E-08,  avg # of iterations =  2.2

     total cpu time spent up to now is      947.4 secs

     total energy              =  -13812.06183742 Ry
     estimated scf accuracy    <       0.00064480 Ry

     iteration # 12     ecut=    71.00 Ry     beta= 0.10
     Davidson diagonalization with overlap
     ethr =  8.74E-08,  avg # of iterations =  2.2

     total cpu time spent up to now is     1021.8 secs

     total energy              =  -13812.06188244 Ry
     estimated scf accuracy    <       0.00015643 Ry

     iteration # 13     ecut=    71.00 Ry     beta= 0.10
     Davidson diagonalization with overlap
     ethr =  3.06E-08,  avg # of iterations =  2.1

     total cpu time spent up to now is     1107.6 secs

     total energy              =  -13812.06191174 Ry
     estimated scf accuracy    <       0.00000756 Ry

     iteration # 14     ecut=    71.00 Ry     beta= 0.10
     Davidson diagonalization with overlap
     ethr =  1.48E-09,  avg # of iterations =  4.2

     total cpu time spent up to now is     1211.5 secs

     total energy              =  -13812.06190880 Ry
     estimated scf accuracy    <       0.00001104 Ry

     iteration # 15     ecut=    71.00 Ry     beta= 0.10
     Davidson diagonalization with overlap
     ethr =  1.48E-09,  avg # of iterations =  2.7

     total cpu time spent up to now is     1306.8 secs

     total energy              =  -13812.06191200 Ry
     estimated scf accuracy    <       0.00000319 Ry

     iteration # 16     ecut=    71.00 Ry     beta= 0.10
     Davidson diagonalization with overlap
     ethr =  6.23E-10,  avg # of iterations =  2.0

     total cpu time spent up to now is     1378.6 secs

     total energy              =  -13812.06191222 Ry
     estimated scf accuracy    <       0.00000111 Ry

     iteration # 17     ecut=    71.00 Ry     beta= 0.10
     Davidson diagonalization with overlap
     ethr =  2.17E-10,  avg # of iterations =  2.0

     total cpu time spent up to now is     1447.7 secs

     End of self-consistent calculation

          k = 0.0556 0.0556 0.0463 ( 36198 PWs)   bands (ev):

   -54.5432 -54.4631 -54.4631 -54.4479 -54.4479 -54.4350 -54.4306 -54.4248
   -54.4248 -54.4208 -54.4028 -54.4028 -54.3972 -54.3972 -54.3707 -54.3707
   -54.1099 -54.1071 -54.0645 -54.0645 -54.0639 -54.0639 -54.0619 -54.0618
   -54.0611 -54.0611 -54.0556 -54.0556 -54.0552 -54.0552 -54.0074 -54.0074
   -24.8681 -24.8676 -24.8676 -24.8625 -24.8291 -24.8291 -24.7698 -24.6612
   -24.6612 -24.6573 -24.6572 -24.6140 -24.6140 -24.5902 -24.5902 -24.5769
   -24.5769 -24.5628 -24.5628 -24.5254 -24.5254 -24.5160 -24.5137 -24.5137
   -24.5070 -24.4636 -24.4636 -24.4342 -24.4342 -24.4015 -24.3632 -24.3632
   -24.3510 -24.3510 -24.3222 -24.3222 -24.2849 -24.2846 -24.2491 -24.2491
   -24.2439 -24.2439 -24.2334 -24.2334 -24.2145 -24.2145 -24.1660 -24.1522
   -24.1522 -24.1382 -24.1308 -24.1308 -24.1307 -24.1222 -24.1222 -24.1136
   -24.0644 -24.0644 -24.0558 -24.0558 -24.0359 -24.0359 -24.0205 -24.0205
   -24.0198 -24.0198 -24.0188 -24.0188 -23.9913 -23.9900 -23.9900 -23.9839
   -23.9839 -23.9597 -23.9597 -23.9534 -23.9475 -23.9475 -23.9412 -23.9348
   -23.9348 -23.9216 -23.9216 -23.9165 -23.9165 -23.9081 -23.9081 -23.8914
   -23.8077 -23.8049 -23.7979 -23.7936 -23.7804 -23.7804 -23.7767 -23.7767
    11.3122  12.6212  12.7465  12.7465  13.0105  13.0250  13.0293  13.0293
    13.0515  13.2002  13.2398  13.2398  13.4669  13.4669  13.4982  13.6488
    13.6488  13.9516  13.9516  13.9634  14.1122  14.1122  14.1440  14.1440
    14.3066  14.3066  14.3920  14.4056  14.4205  14.4205  14.4333  14.4333
    14.6385  14.6385  14.6761  14.6762  14.6973  14.6973  14.7983  14.7983
    14.8494  14.8494  14.9734  14.9808  14.9808  15.1088  15.1088  15.1197
    15.1197  15.3768  15.3768  15.4090  15.4090  15.4112  15.4295  15.4295
    15.5148  15.5149  15.6497  15.7156  15.7156  15.7342  15.8166  15.8289
    15.8289  15.8408  15.8408  15.8571  15.8658  15.8658  16.0090  16.0090
    16.1606  16.1606  16.2125  16.2281  16.2394  16.2472  16.3381  16.3381
    16.3475  16.3596  16.3758  16.6591  16.6591  16.7936  16.7936  16.9994
    16.9994  17.0562  17.0562  17.1322  17.1322  17.2348  17.2348  17.2916
    17.2916  17.2923  17.3096  17.3344  17.3344  17.3379  17.3379  17.5051
    17.5051  17.5079  17.5272  17.5272  17.5504  17.5719  17.6929  17.6929
    17.7842  17.7842  17.9284  17.9284  17.9675  17.9675  18.0161  18.1759
    18.1759  18.2820  18.2820  18.2906  18.2906  18.4290  18.4291  18.5415
    18.6949  18.6949  18.7395  18.7395  18.7800  18.7800  18.8048  18.8139
    18.8139  18.8499  18.8499  18.8644  18.8935  18.9332  19.0173  19.1457
    19.1457  19.1789  19.1912  19.4551  19.4551  19.6769  19.6769  19.7155
    19.7358  19.7358  19.8210  19.8797  19.9695  20.0355  20.0764  20.1141
    20.1141  20.1248  20.1248  20.2495  20.3477  20.4681  20.4681  20.5730
    20.5730  20.8077  20.8077  20.9236  20.9236  21.0699  21.2316  21.2316
    21.5498  21.5498  21.8663

          k = 0.0556 0.0556 0.1389 ( 36209 PWs)   bands (ev):

   -54.5432 -54.4631 -54.4631 -54.4479 -54.4479 -54.4350 -54.4306 -54.4248
   -54.4248 -54.4208 -54.4028 -54.4028 -54.3972 -54.3972 -54.3707 -54.3707
   -54.1098 -54.1071 -54.0645 -54.0645 -54.0640 -54.0640 -54.0619 -54.0618
   -54.0611 -54.0611 -54.0556 -54.0555 -54.0552 -54.0552 -54.0074 -54.0074
   -24.8681 -24.8675 -24.8675 -24.8625 -24.8291 -24.8291 -24.7695 -24.6612
   -24.6612 -24.6573 -24.6573 -24.6141 -24.6141 -24.5903 -24.5903 -24.5770
   -24.5770 -24.5628 -24.5628 -24.5254 -24.5254 -24.5162 -24.5138 -24.5138
   -24.5071 -24.4636 -24.4636 -24.4342 -24.4342 -24.4022 -24.3632 -24.3632
   -24.3510 -24.3510 -24.3223 -24.3223 -24.2849 -24.2845 -24.2488 -24.2488
   -24.2440 -24.2440 -24.2334 -24.2334 -24.2148 -24.2148 -24.1657 -24.1519
   -24.1519 -24.1383 -24.1308 -24.1308 -24.1305 -24.1222 -24.1222 -24.1136
   -24.0639 -24.0639 -24.0557 -24.0557 -24.0354 -24.0354 -24.0205 -24.0205
   -24.0200 -24.0200 -24.0191 -24.0191 -23.9906 -23.9906 -23.9897 -23.9839
   -23.9839 -23.9597 -23.9597 -23.9536 -23.9476 -23.9476 -23.9412 -23.9351
   -23.9351 -23.9218 -23.9218 -23.9161 -23.9161 -23.9077 -23.9077 -23.8928
   -23.8076 -23.8048 -23.7980 -23.7937 -23.7803 -23.7803 -23.7768 -23.7767
    11.3354  12.6139  12.7519  12.7519  13.0177  13.0334  13.0373  13.0373
    13.0526  13.1018  13.2464  13.2464  13.4772  13.4772  13.5423  13.6584
    13.6584  13.9403  13.9403  13.9586  14.1134  14.1134  14.1465  14.1465
    14.3069  14.3069  14.3549  14.3813  14.3879  14.3879  14.4230  14.4230
    14.6386  14.6386  14.6713  14.6713  14.6946  14.6946  14.7666  14.7666
    14.8632  14.8632  14.9783  14.9783  14.9815  15.1044  15.1044  15.1165
    15.1165  15.3716  15.3716  15.3911  15.4020  15.4020  15.4181  15.4181
    15.5020  15.5020  15.6372  15.6372  15.6464  15.7294  15.7949  15.7949
    15.8056  15.8258  15.8258  15.8558  15.9356  15.9356  16.0859  16.0859
    16.1976  16.1976  16.2407  16.2487  16.2652  16.3367  16.3766  16.3789
    16.4011  16.4011  16.4420  16.7257  16.7257  16.7914  16.7914  16.9696
    16.9696  16.9983  16.9983  17.0490  17.0490  17.0993  17.0993  17.2684
    17.2684  17.2874  17.3054  17.3310  17.3310  17.4642  17.4642  17.5067
    17.5368  17.5767  17.5767  17.6327  17.6327  17.6619  17.7214  17.7214
    17.7937  17.7937  17.9318  17.9318  17.9635  17.9635  18.0102  18.1299
    18.1299  18.2524  18.2524  18.3243  18.3243  18.4638  18.4638  18.5417
    18.6627  18.6627  18.7131  18.7662  18.7662  18.7858  18.7858  18.8148
    18.8369  18.8369  18.8840  18.8940  18.9427  18.9427  18.9595  19.0241
    19.0619  19.0619  19.1951  19.3588  19.3588  19.6453  19.6453  19.7157
    19.7673  19.7673  19.8146  19.8754  19.8984  20.0349  20.0908  20.0908
    20.1016  20.1016  20.2351  20.2556  20.5115  20.5115  20.5755  20.5755
    20.6522  20.6522  20.6599  20.7625  20.9256  20.9256  20.9358  20.9358
    21.8193  21.8814  21.8814

          k = 0.0556 0.0556 0.2315 ( 36230 PWs)   bands (ev):

   -54.5432 -54.4631 -54.4631 -54.4479 -54.4479 -54.4350 -54.4306 -54.4248
   -54.4248 -54.4208 -54.4028 -54.4028 -54.3972 -54.3972 -54.3707 -54.3707
   -54.1097 -54.1073 -54.0644 -54.0644 -54.0640 -54.0640 -54.0619 -54.0618
   -54.0611 -54.0611 -54.0555 -54.0555 -54.0553 -54.0553 -54.0074 -54.0074
   -24.8680 -24.8674 -24.8674 -24.8624 -24.8290 -24.8290 -24.7692 -24.6613
   -24.6613 -24.6573 -24.6573 -24.6141 -24.6141 -24.5903 -24.5903 -24.5771
   -24.5771 -24.5628 -24.5628 -24.5254 -24.5254 -24.5165 -24.5141 -24.5141
   -24.5074 -24.4636 -24.4636 -24.4340 -24.4340 -24.4032 -24.3633 -24.3633
   -24.3510 -24.3510 -24.3223 -24.3223 -24.2849 -24.2845 -24.2484 -24.2484
   -24.2441 -24.2441 -24.2335 -24.2335 -24.2152 -24.2152 -24.1651 -24.1516
   -24.1516 -24.1383 -24.1308 -24.1308 -24.1302 -24.1223 -24.1221 -24.1136
   -24.0631 -24.0631 -24.0555 -24.0555 -24.0345 -24.0345 -24.0207 -24.0207
   -24.0204 -24.0204 -24.0195 -24.0195 -23.9915 -23.9915 -23.9871 -23.9840
   -23.9840 -23.9597 -23.9597 -23.9540 -23.9479 -23.9478 -23.9412 -23.9356
   -23.9356 -23.9220 -23.9220 -23.9156 -23.9156 -23.9071 -23.9071 -23.8949
   -23.8074 -23.8046 -23.7982 -23.7939 -23.7804 -23.7804 -23.7768 -23.7767
    11.3738  12.5961  12.7605  12.7605  12.9876  13.0299  13.0459  13.0499
    13.0499  13.0544  13.2566  13.2566  13.4936  13.4936  13.5794  13.6738
    13.6738  13.9230  13.9230  13.9514  14.1152  14.1152  14.1501  14.1501
    14.3059  14.3071  14.3071  14.3387  14.3396  14.3396  14.4061  14.4061
    14.6392  14.6392  14.6660  14.6660  14.6899  14.6899  14.7201  14.7201
    14.8841  14.8841  14.9734  14.9734  14.9941  15.0973  15.0973  15.1115
    15.1115  15.3604  15.3604  15.3682  15.3940  15.3940  15.4013  15.4013
    15.4874  15.4874  15.5706  15.5706  15.6414  15.7219  15.7257  15.7257
    15.7927  15.8223  15.8223  15.8556  16.0358  16.0358  16.1701  16.1702
    16.2237  16.2237  16.2427  16.2511  16.3132  16.3838  16.4277  16.5138
    16.5329  16.5329  16.5894  16.7828  16.7828  16.8308  16.8308  16.8333
    16.8333  16.9355  16.9355  16.9879  16.9879  17.0392  17.0392  17.2735
    17.2735  17.2800  17.2986  17.3272  17.3272  17.4822  17.5165  17.5374
    17.5374  17.6417  17.6417  17.7383  17.7383  17.7718  17.7718  17.8369
    17.8369  17.8768  17.9384  17.9384  17.9542  17.9542  18.0017  18.0809
    18.0809  18.1931  18.1931  18.3482  18.3482  18.4380  18.4380  18.4695
    18.5198  18.5198  18.5419  18.5540  18.8129  18.8129  18.8304  18.8735
    18.8735  18.9127  18.9502  18.9502  18.9947  19.0282  19.0282  19.0345
    19.1313  19.1313  19.2025  19.2147  19.2147  19.5917  19.5917  19.7022
    19.7157  19.7814  19.7814  19.8048  19.8684  20.0342  20.0536  20.0536
    20.0629  20.0629  20.1672  20.1672  20.2123  20.4202  20.4972  20.5767
    20.5767  20.5784  20.5784  20.9262  20.9262  20.9281  20.9282  21.0548
    21.7372  22.2458  22.2458

          k = 0.0556 0.0556 0.3241 ( 36251 PWs)   bands (ev):

   -54.5432 -54.4631 -54.4631 -54.4479 -54.4479 -54.4350 -54.4306 -54.4248
   -54.4248 -54.4208 -54.4028 -54.4028 -54.3972 -54.3972 -54.3707 -54.3707
   -54.1096 -54.1074 -54.0644 -54.0644 -54.0641 -54.0641 -54.0619 -54.0618
   -54.0611 -54.0611 -54.0555 -54.0555 -54.0553 -54.0553 -54.0074 -54.0074
   -24.8680 -24.8674 -24.8674 -24.8623 -24.8290 -24.8290 -24.7690 -24.6613
   -24.6613 -24.6573 -24.6573 -24.6141 -24.6141 -24.5904 -24.5904 -24.5772
   -24.5772 -24.5628 -24.5628 -24.5254 -24.5254 -24.5168 -24.5144 -24.5144
   -24.5076 -24.4636 -24.4636 -24.4339 -24.4339 -24.4041 -24.3634 -24.3633
   -24.3510 -24.3510 -24.3224 -24.3224 -24.2849 -24.2845 -24.2480 -24.2480
   -24.2442 -24.2442 -24.2335 -24.2335 -24.2156 -24.2156 -24.1647 -24.1512
   -24.1512 -24.1383 -24.1308 -24.1308 -24.1299 -24.1223 -24.1220 -24.1137
   -24.0624 -24.0624 -24.0554 -24.0554 -24.0337 -24.0337 -24.0209 -24.0209
   -24.0208 -24.0208 -24.0199 -24.0199 -23.9923 -23.9923 -23.9847 -23.9841
   -23.9841 -23.9597 -23.9597 -23.9544 -23.9480 -23.9480 -23.9412 -23.9360
   -23.9360 -23.9222 -23.9222 -23.9152 -23.9152 -23.9067 -23.9067 -23.8967
   -23.8072 -23.8044 -23.7984 -23.7941 -23.7804 -23.7804 -23.7768 -23.7767
    11.4110  12.5701  12.7681  12.7681  12.9091  13.0419  13.0559  13.0564
    13.0615  13.0615  13.2659  13.2659  13.5087  13.5087  13.5993  13.6879
    13.6879  13.9077  13.9077  13.9452  14.1165  14.1165  14.1530  14.1530
    14.2671  14.2984  14.2984  14.2991  14.3069  14.3069  14.3904  14.3904
    14.6406  14.6406  14.6630  14.6630  14.6808  14.6808  14.6848  14.6848
    14.9036  14.9036  14.9670  14.9670  15.0052  15.0906  15.0906  15.1070
    15.1070  15.3489  15.3489  15.3531  15.3874  15.3874  15.3879  15.3879
    15.4779  15.4779  15.5283  15.5283  15.6374  15.6768  15.6768  15.7151
    15.7839  15.8198  15.8198  15.8557  16.1212  16.1212  16.2350  16.2350
    16.2427  16.2427  16.2445  16.2531  16.3311  16.3881  16.4895  16.6738
    16.6738  16.6937  16.7109  16.7109  16.7303  16.7937  16.7937  16.8067
    16.8067  16.9281  16.9281  16.9815  16.9815  17.0306  17.0306  17.2737
    17.2789  17.2789  17.2925  17.3274  17.3274  17.4582  17.4990  17.5899
    17.5899  17.6543  17.6543  17.8040  17.8040  17.8340  17.8340  17.8991
    17.8991  17.9402  17.9402  17.9640  17.9640  17.9918  18.0350  18.0350
    18.1241  18.1241  18.1917  18.2225  18.2225  18.2404  18.2967  18.3517
    18.3517  18.5421  18.5714  18.5715  18.8443  18.8540  18.8540  18.9072
    18.9072  18.9367  18.9868  19.0256  19.0256  19.0435  19.0900  19.0900
    19.1805  19.1805  19.2110  19.3797  19.3827  19.3827  19.5386  19.5386
    19.7153  19.7827  19.7827  19.7962  19.8236  19.8236  19.8620  20.0193
    20.0193  20.0322  20.0322  20.0339  20.1913  20.2302  20.2302  20.2395
    20.5804  20.5804  20.7101  20.9299  20.9299  21.1884  21.1884  21.3863
    21.6757  22.1020  22.1020

          k = 0.0556 0.0556-0.4167 ( 36256 PWs)   bands (ev):

   -54.5432 -54.4631 -54.4631 -54.4479 -54.4479 -54.4350 -54.4306 -54.4248
   -54.4248 -54.4208 -54.4028 -54.4028 -54.3972 -54.3972 -54.3707 -54.3707
   -54.1095 -54.1074 -54.0643 -54.0643 -54.0641 -54.0641 -54.0619 -54.0618
   -54.0611 -54.0611 -54.0554 -54.0554 -54.0553 -54.0553 -54.0074 -54.0074
   -24.8680 -24.8674 -24.8674 -24.8623 -24.8290 -24.8290 -24.7689 -24.6613
   -24.6613 -24.6573 -24.6573 -24.6141 -24.6141 -24.5904 -24.5904 -24.5772
   -24.5772 -24.5628 -24.5628 -24.5253 -24.5253 -24.5169 -24.5145 -24.5145
   -24.5077 -24.4636 -24.4636 -24.4339 -24.4339 -24.4044 -24.3634 -24.3634
   -24.3510 -24.3510 -24.3224 -24.3224 -24.2850 -24.2845 -24.2478 -24.2478
   -24.2442 -24.2442 -24.2335 -24.2335 -24.2158 -24.2158 -24.1646 -24.1511
   -24.1511 -24.1383 -24.1308 -24.1308 -24.1298 -24.1223 -24.1220 -24.1137
   -24.0621 -24.0621 -24.0553 -24.0553 -24.0333 -24.0333 -24.0210 -24.0210
   -24.0209 -24.0209 -24.0200 -24.0200 -23.9926 -23.9926 -23.9842 -23.9842
   -23.9837 -23.9598 -23.9598 -23.9546 -23.9481 -23.9481 -23.9412 -23.9361
   -23.9361 -23.9223 -23.9223 -23.9150 -23.9150 -23.9065 -23.9065 -23.8975
   -23.8071 -23.8043 -23.7985 -23.7942 -23.7804 -23.7804 -23.7768 -23.7767
    11.4268  12.5562  12.7712  12.7712  12.8832  13.0472  13.0565  13.0603
    13.0662  13.0662  13.2696  13.2696  13.5149  13.5149  13.6052  13.6937
    13.6937  13.9017  13.9017  13.9427  14.1170  14.1170  14.1541  14.1541
    14.2527  14.2825  14.2825  14.2829  14.3067  14.3067  14.3840  14.3840
    14.6415  14.6415  14.6621  14.6621  14.6657  14.6657  14.6825  14.6825
    14.9123  14.9123  14.9633  14.9633  15.0097  15.0879  15.0879  15.1053
    15.1053  15.3443  15.3443  15.3481  15.3821  15.3821  15.3852  15.3852
    15.4747  15.4747  15.5141  15.5141  15.6360  15.6592  15.6592  15.7124
    15.7809  15.8188  15.8188  15.8558  16.1582  16.1582  16.2382  16.2382
    16.2452  16.2539  16.2750  16.2750  16.3356  16.3898  16.5146  16.6679
    16.6679  16.7369  16.7369  16.7545  16.7545  16.7772  16.7911  16.7913
    16.7913  16.9682  16.9682  16.9791  16.9791  17.0274  17.0274  17.2712
    17.2811  17.2811  17.2901  17.3297  17.3297  17.4485  17.4922  17.6235
    17.6235  17.6393  17.6393  17.8308  17.8308  17.8642  17.8642  17.9135
    17.9135  17.9328  17.9328  17.9888  18.0101  18.0101  18.0166  18.0166
    18.0673  18.0673  18.1302  18.1307  18.1307  18.2067  18.3503  18.3503
    18.4330  18.5422  18.5920  18.5920  18.8500  18.8706  18.8706  18.8708
    18.9210  18.9210  18.9458  19.0271  19.0271  19.0416  19.0416  19.0470
    19.2149  19.2334  19.3931  19.3931  19.5157  19.5157  19.5557  19.5557
    19.5756  19.5756  19.7150  19.7819  19.7819  19.7928  19.8593  20.0057
    20.0057  20.0176  20.0176  20.0271  20.0271  20.0338  20.1828  20.1918
    20.5810  20.5810  20.8029  20.9306  20.9306  21.3126  21.3126  21.4657
    21.7316  22.0207  22.0207

          k = 0.0556 0.1667 0.0463 ( 36190 PWs)   bands (ev):

   -54.5405 -54.4780 -54.4619 -54.4471 -54.4364 -54.4339 -54.4331 -54.4289
   -54.4193 -54.4171 -54.4085 -54.4033 -54.3980 -54.3918 -54.3732 -54.3715
   -54.1084 -54.1057 -54.0732 -54.0724 -54.0645 -54.0639 -54.0626 -54.0625
   -54.0602 -54.0602 -54.0558 -54.0554 -54.0467 -54.0464 -54.0091 -54.0091
   -24.8634 -24.8593 -24.8577 -24.8487 -24.8213 -24.8207 -24.7652 -24.6761
   -24.6745 -24.6741 -24.6670 -24.6654 -24.6455 -24.6397 -24.5875 -24.5819
   -24.5700 -24.5683 -24.5165 -24.5148 -24.5137 -24.5062 -24.4947 -24.4828
   -24.4822 -24.4787 -24.4706 -24.4494 -24.4164 -24.4031 -24.3958 -24.3695
   -24.3412 -24.3411 -24.2981 -24.2931 -24.2818 -24.2733 -24.2553 -24.2524
   -24.2428 -24.2408 -24.2299 -24.2252 -24.2105 -24.2081 -24.1802 -24.1738
   -24.1564 -24.1515 -24.1460 -24.1294 -24.1281 -24.1183 -24.1181 -24.1114
   -24.0921 -24.0912 -24.0897 -24.0688 -24.0657 -24.0545 -24.0531 -24.0398
   -24.0039 -23.9912 -23.9904 -23.9884 -23.9773 -23.9640 -23.9632 -23.9598
   -23.9586 -23.9585 -23.9558 -23.9534 -23.9487 -23.9423 -23.9417 -23.9357
   -23.9354 -23.9267 -23.9185 -23.9142 -23.9033 -23.9024 -23.9012 -23.8981
   -23.8155 -23.8104 -23.8063 -23.7972 -23.7919 -23.7915 -23.7812 -23.7809
    11.3942  12.6874  12.7991  12.8050  13.0350  13.0659  13.0779  13.0914
    13.1098  13.1677  13.2668  13.2740  13.2778  13.4757  13.5690  13.6619
    13.6808  13.9634  14.0109  14.0118  14.0161  14.0186  14.1078  14.1128
    14.1539  14.1911  14.2024  14.3559  14.3680  14.3740  14.3962  14.4426
    14.4525  14.5048  14.5953  14.6016  14.7177  14.7502  14.7646  14.7989
    14.8099  14.8161  14.8200  15.0043  15.1004  15.1274  15.1397  15.1767
    15.2485  15.2566  15.2774  15.3232  15.3355  15.4286  15.4350  15.4613
    15.5437  15.5950  15.7178  15.7711  15.7752  15.7771  15.7911  15.8247
    15.8404  15.8621  15.8704  15.9643  15.9897  16.0278  16.0565  16.0576
    16.1067  16.1340  16.1462  16.2052  16.2547  16.3203  16.3357  16.3696
    16.3704  16.3850  16.3865  16.5502  16.5948  16.6540  16.7606  16.7760
    16.9492  16.9612  16.9706  17.0713  17.0964  17.1577  17.2414  17.3215
    17.3367  17.3426  17.3816  17.4296  17.4464  17.4507  17.4570  17.4782
    17.4798  17.5130  17.5239  17.5748  17.6054  17.6062  17.6160  17.7129
    17.8745  17.9077  17.9385  17.9916  18.0843  18.1013  18.2713  18.2879
    18.3096  18.3514  18.4149  18.4190  18.4281  18.4430  18.5105  18.5448
    18.5808  18.5887  18.5945  18.6141  18.6178  18.6895  18.7276  18.7821
    18.8987  18.9185  18.9669  18.9843  19.0008  19.0243  19.0814  19.1110
    19.1746  19.2150  19.2988  19.3749  19.3931  19.4073  19.6015  19.6302
    19.6505  19.6709  19.6909  19.7101  19.7143  19.9741  20.0741  20.0798
    20.1123  20.1329  20.1402  20.2439  20.2516  20.4527  20.4555  20.5000
    20.6749  20.7167  20.7789  20.7874  20.8984  21.0506  21.2135  21.3551
    21.5169  21.7425  21.8991

          k = 0.0556 0.1667 0.1389 ( 36198 PWs)   bands (ev):

   -54.5405 -54.4780 -54.4619 -54.4471 -54.4364 -54.4339 -54.4331 -54.4289
   -54.4193 -54.4171 -54.4085 -54.4033 -54.3980 -54.3918 -54.3732 -54.3715
   -54.1083 -54.1058 -54.0732 -54.0724 -54.0644 -54.0639 -54.0626 -54.0625
   -54.0602 -54.0602 -54.0558 -54.0555 -54.0467 -54.0465 -54.0091 -54.0091
   -24.8633 -24.8593 -24.8576 -24.8486 -24.8212 -24.8207 -24.7650 -24.6761
   -24.6746 -24.6741 -24.6669 -24.6654 -24.6455 -24.6398 -24.5875 -24.5819
   -24.5701 -24.5684 -24.5164 -24.5150 -24.5139 -24.5064 -24.4948 -24.4828
   -24.4821 -24.4787 -24.4706 -24.4494 -24.4170 -24.4032 -24.3957 -24.3695
   -24.3412 -24.3411 -24.2981 -24.2931 -24.2818 -24.2733 -24.2553 -24.2525
   -24.2425 -24.2408 -24.2296 -24.2252 -24.2108 -24.2084 -24.1799 -24.1735
   -24.1563 -24.1515 -24.1458 -24.1294 -24.1279 -24.1183 -24.1181 -24.1113
   -24.0920 -24.0908 -24.0893 -24.0689 -24.0654 -24.0547 -24.0534 -24.0400
   -24.0034 -23.9917 -23.9909 -23.9882 -23.9759 -23.9643 -23.9639 -23.9598
   -23.9588 -23.9586 -23.9555 -23.9537 -23.9487 -23.9423 -23.9421 -23.9357
   -23.9355 -23.9264 -23.9185 -23.9140 -23.9031 -23.9021 -23.9011 -23.8995
   -23.8154 -23.8105 -23.8062 -23.7974 -23.7919 -23.7915 -23.7811 -23.7809
    11.4170  12.6803  12.8047  12.8102  13.0408  13.0741  13.0847  13.0995
    13.1108  13.1692  13.1798  13.2804  13.2836  13.4821  13.6125  13.6675
    13.6904  13.9634  14.0000  14.0064  14.0078  14.0171  14.1103  14.1123
    14.1435  14.1937  14.1983  14.3335  14.3409  14.3518  14.3829  14.4026
    14.4275  14.5135  14.5906  14.6164  14.7249  14.7503  14.7671  14.7694
    14.7852  14.8117  14.8350  15.0121  15.0926  15.1246  15.1271  15.1952
    15.2399  15.2465  15.2514  15.3081  15.3302  15.3929  15.4068  15.4642
    15.5406  15.5884  15.7181  15.7533  15.7722  15.7744  15.7755  15.8158
    15.8503  15.8756  15.8984  15.9284  16.0201  16.0595  16.0739  16.1258
    16.1370  16.1697  16.1971  16.2665  16.2864  16.3383  16.3592  16.4049
    16.4087  16.4137  16.4388  16.5566  16.6618  16.7182  16.7495  16.7644
    16.9026  16.9387  16.9446  16.9710  17.0164  17.1324  17.3023  17.3294
    17.3356  17.3382  17.3488  17.3781  17.4248  17.4250  17.4409  17.5057
    17.5123  17.5221  17.5305  17.5819  17.6218  17.6391  17.6730  17.7868
    17.8956  17.9161  17.9759  18.0034  18.0782  18.0841  18.2057  18.2288
    18.3275  18.3588  18.3727  18.3800  18.4379  18.4419  18.4519  18.4651
    18.5417  18.5528  18.6106  18.6757  18.7042  18.7147  18.7594  18.8314
    18.9239  18.9407  18.9739  18.9823  19.0037  19.0271  19.0787  19.1214
    19.1649  19.1941  19.2680  19.2780  19.3076  19.4056  19.5713  19.6285
    19.6482  19.7021  19.7094  19.7149  19.7488  19.9763  20.0554  20.0588
    20.0898  20.1116  20.1635  20.1674  20.2374  20.2670  20.4556  20.4910
    20.7205  20.7246  20.7902  20.8130  20.9222  21.1059  21.2902  21.3333
    21.3897  21.4479  21.8487

          k = 0.0556 0.1667 0.2315 ( 36226 PWs)   bands (ev):

   -54.5405 -54.4780 -54.4619 -54.4471 -54.4364 -54.4339 -54.4331 -54.4289
   -54.4192 -54.4171 -54.4085 -54.4033 -54.3981 -54.3919 -54.3732 -54.3715
   -54.1082 -54.1059 -54.0731 -54.0725 -54.0644 -54.0640 -54.0626 -54.0625
   -54.0602 -54.0602 -54.0557 -54.0555 -54.0467 -54.0465 -54.0091 -54.0091
   -24.8633 -24.8592 -24.8575 -24.8486 -24.8212 -24.8207 -24.7647 -24.6761
   -24.6746 -24.6741 -24.6670 -24.6654 -24.6456 -24.6398 -24.5875 -24.5820
   -24.5702 -24.5685 -24.5164 -24.5153 -24.5143 -24.5066 -24.4950 -24.4828
   -24.4821 -24.4788 -24.4707 -24.4493 -24.4178 -24.4033 -24.3954 -24.3694
   -24.3412 -24.3412 -24.2982 -24.2931 -24.2819 -24.2733 -24.2555 -24.2527
   -24.2420 -24.2409 -24.2292 -24.2252 -24.2112 -24.2088 -24.1793 -24.1731
   -24.1563 -24.1515 -24.1455 -24.1293 -24.1277 -24.1183 -24.1181 -24.1111
   -24.0917 -24.0903 -24.0887 -24.0690 -24.0647 -24.0548 -24.0538 -24.0404
   -24.0026 -23.9927 -23.9915 -23.9879 -23.9736 -23.9648 -23.9647 -23.9597
   -23.9594 -23.9587 -23.9550 -23.9541 -23.9488 -23.9427 -23.9423 -23.9360
   -23.9354 -23.9260 -23.9186 -23.9136 -23.9028 -23.9017 -23.9015 -23.9010
   -23.8152 -23.8106 -23.8060 -23.7976 -23.7918 -23.7915 -23.7811 -23.7809
    11.4548  12.6630  12.8135  12.8182  13.0513  13.0552  13.0853  13.0963
    13.1115  13.1130  13.1992  13.2904  13.2927  13.4923  13.6492  13.6764
    13.7059  13.9632  13.9818  13.9913  13.9995  14.0173  14.1107  14.1141
    14.1275  14.1925  14.1982  14.2868  14.3005  14.3455  14.3488  14.3523
    14.3821  14.5269  14.5801  14.6512  14.7261  14.7365  14.7399  14.7498
    14.7697  14.8145  14.8504  15.0243  15.0808  15.1054  15.1222  15.2136
    15.2219  15.2295  15.2301  15.2918  15.3370  15.3385  15.3748  15.4630
    15.5377  15.5810  15.7089  15.7166  15.7644  15.7702  15.7828  15.8018
    15.8358  15.8599  15.8824  15.9304  16.0279  16.1377  16.1508  16.1949
    16.2087  16.2244  16.2424  16.2751  16.3590  16.3710  16.4498  16.4712
    16.4837  16.4930  16.5525  16.5678  16.7192  16.7420  16.7687  16.8138
    16.8195  16.8404  16.9168  16.9232  16.9726  17.1175  17.1318  17.3329
    17.3337  17.3350  17.3654  17.3732  17.3882  17.4193  17.4332  17.4916
    17.5075  17.5415  17.5844  17.5901  17.6654  17.7586  17.7764  17.8440
    17.9205  17.9635  17.9935  18.0166  18.0598  18.0694  18.1618  18.1728
    18.1927  18.2352  18.2808  18.3099  18.3206  18.3591  18.4117  18.4658
    18.5048  18.5372  18.7441  18.7464  18.7466  18.8021  18.8151  18.8727
    18.9476  18.9505  18.9715  19.0072  19.0333  19.0944  19.1400  19.1488
    19.1625  19.1627  19.2114  19.2136  19.3451  19.4545  19.5230  19.5820
    19.6677  19.6996  19.7054  19.7543  19.7736  19.8357  19.9825  20.0174
    20.0257  20.0540  20.0852  20.1644  20.2146  20.2587  20.2934  20.4590
    20.5705  20.7259  20.7937  20.8449  20.8530  21.0839  21.1191  21.4069
    21.4082  21.7756  21.8040

          k = 0.0556 0.1667 0.3241 ( 36241 PWs)   bands (ev):

   -54.5405 -54.4780 -54.4619 -54.4471 -54.4364 -54.4339 -54.4331 -54.4289
   -54.4192 -54.4171 -54.4085 -54.4033 -54.3980 -54.3919 -54.3732 -54.3715
   -54.1081 -54.1060 -54.0730 -54.0726 -54.0643 -54.0641 -54.0626 -54.0625
   -54.0602 -54.0602 -54.0557 -54.0556 -54.0466 -54.0465 -54.0091 -54.0091
   -24.8632 -24.8592 -24.8575 -24.8485 -24.8212 -24.8206 -24.7645 -24.6761
   -24.6746 -24.6741 -24.6670 -24.6655 -24.6455 -24.6399 -24.5875 -24.5821
   -24.5703 -24.5686 -24.5163 -24.5156 -24.5145 -24.5068 -24.4952 -24.4828
   -24.4821 -24.4789 -24.4707 -24.4492 -24.4187 -24.4033 -24.3952 -24.3694
   -24.3413 -24.3412 -24.2983 -24.2931 -24.2820 -24.2734 -24.2556 -24.2527
   -24.2416 -24.2410 -24.2288 -24.2252 -24.2116 -24.2091 -24.1789 -24.1727
   -24.1562 -24.1515 -24.1452 -24.1292 -24.1274 -24.1183 -24.1181 -24.1109
   -24.0914 -24.0898 -24.0882 -24.0692 -24.0642 -24.0549 -24.0543 -24.0408
   -24.0017 -23.9939 -23.9919 -23.9877 -23.9714 -23.9655 -23.9651 -23.9600
   -23.9597 -23.9587 -23.9547 -23.9544 -23.9488 -23.9432 -23.9423 -23.9363
   -23.9352 -23.9256 -23.9186 -23.9132 -23.9035 -23.9025 -23.9013 -23.9009
   -23.8150 -23.8108 -23.8058 -23.7977 -23.7918 -23.7916 -23.7811 -23.7810
    11.4913  12.6378  12.8214  12.8254  12.9771  13.0625  13.0938  13.1079
    13.1143  13.1215  13.2173  13.2995  13.3008  13.5015  13.6687  13.6845
    13.7202  13.9626  13.9658  13.9770  13.9934  14.0159  14.1087  14.1136
    14.1173  14.1880  14.2025  14.2531  14.2668  14.3130  14.3137  14.3396
    14.3401  14.5389  14.5743  14.6870  14.6894  14.7016  14.7473  14.7487
    14.7693  14.8171  14.8591  15.0351  15.0704  15.0832  15.1230  15.2025
    15.2151  15.2152  15.2285  15.2816  15.2871  15.3437  15.3692  15.4589
    15.5374  15.5762  15.6781  15.7142  15.7573  15.7660  15.7891  15.7902
    15.7921  15.8553  15.8649  15.8867  16.1244  16.1954  16.2083  16.2309
    16.2512  16.2578  16.2620  16.2798  16.3690  16.4543  16.5657  16.5797
    16.5823  16.5866  16.6008  16.6611  16.6728  16.6842  16.7421  16.8094
    16.8278  16.8689  16.9106  16.9129  16.9712  16.9800  17.1112  17.3040
    17.3302  17.3308  17.3352  17.3715  17.4163  17.4240  17.4306  17.4735
    17.4972  17.5445  17.6014  17.6385  17.7193  17.7869  17.8929  17.9372
    17.9500  17.9572  17.9629  18.0096  18.0206  18.0377  18.0623  18.0677
    18.1177  18.1729  18.1754  18.1989  18.2537  18.2885  18.4379  18.4741
    18.5297  18.5542  18.7446  18.7574  18.7928  18.8508  18.8546  18.8948
    18.9947  18.9980  19.0304  19.0391  19.0577  19.0600  19.1191  19.1642
    19.1742  19.1888  19.2198  19.3645  19.4774  19.5256  19.5301  19.5399
    19.6194  19.6773  19.6811  19.7015  19.7536  19.8002  19.8091  19.9968
    19.9989  20.0149  20.0212  20.0513  20.1915  20.2335  20.3110  20.3718
    20.4612  20.4927  20.7302  20.7435  20.7961  20.9834  21.1182  21.6426
    21.7545  21.7843  22.2496

          k = 0.0556 0.1667-0.4167 ( 36258 PWs)   bands (ev):

   -54.5405 -54.4780 -54.4619 -54.4471 -54.4364 -54.4339 -54.4331 -54.4289
   -54.4193 -54.4171 -54.4085 -54.4033 -54.3980 -54.3918 -54.3732 -54.3715
   -54.1081 -54.1060 -54.0730 -54.0726 -54.0643 -54.0641 -54.0626 -54.0625
   -54.0602 -54.0602 -54.0557 -54.0556 -54.0466 -54.0466 -54.0091 -54.0091
   -24.8632 -24.8592 -24.8575 -24.8484 -24.8212 -24.8206 -24.7644 -24.6761
   -24.6746 -24.6741 -24.6669 -24.6655 -24.6455 -24.6399 -24.5875 -24.5821
   -24.5703 -24.5686 -24.5163 -24.5158 -24.5147 -24.5069 -24.4952 -24.4827
   -24.4820 -24.4789 -24.4707 -24.4491 -24.4190 -24.4034 -24.3951 -24.3694
   -24.3413 -24.3412 -24.2983 -24.2931 -24.2820 -24.2734 -24.2556 -24.2528
   -24.2415 -24.2410 -24.2287 -24.2252 -24.2117 -24.2093 -24.1787 -24.1726
   -24.1562 -24.1516 -24.1451 -24.1292 -24.1273 -24.1184 -24.1181 -24.1108
   -24.0913 -24.0896 -24.0879 -24.0692 -24.0640 -24.0548 -24.0545 -24.0409
   -24.0012 -23.9944 -23.9920 -23.9877 -23.9706 -23.9658 -23.9652 -23.9602
   -23.9597 -23.9587 -23.9546 -23.9546 -23.9488 -23.9433 -23.9423 -23.9364
   -23.9352 -23.9254 -23.9186 -23.9131 -23.9043 -23.9024 -23.9012 -23.9009
   -23.8149 -23.8109 -23.8057 -23.7978 -23.7918 -23.7916 -23.7811 -23.7810
    11.5068  12.6242  12.8246  12.8283  12.9513  13.0676  13.0967  13.1130
    13.1149  13.1251  13.2248  13.3031  13.3040  13.5052  13.6745  13.6878
    13.7261  13.9594  13.9622  13.9714  13.9911  14.0147  14.1076  14.1081
    14.1185  14.1864  14.2043  14.2417  14.2541  14.2973  14.3000  14.3219
    14.3379  14.5437  14.5726  14.6753  14.6868  14.7040  14.7480  14.7517
    14.7671  14.8181  14.8616  15.0394  15.0662  15.0734  15.1245  15.1960
    15.2093  15.2126  15.2381  15.2589  15.2783  15.3300  15.3878  15.4567
    15.5379  15.5747  15.6676  15.7130  15.7544  15.7643  15.7732  15.7889
    15.7915  15.8239  15.8662  15.8882  16.1681  16.2201  16.2250  16.2376
    16.2651  16.2673  16.2747  16.2813  16.3720  16.5071  16.5843  16.6161
    16.6269  16.6283  16.6290  16.6492  16.6803  16.7064  16.7294  16.7909
    16.8015  16.9059  16.9108  16.9167  16.9514  16.9705  17.1095  17.2763
    17.3294  17.3297  17.3355  17.3735  17.4148  17.4336  17.4392  17.4665
    17.4908  17.5450  17.6061  17.6603  17.7471  17.7890  17.8756  17.8987
    17.9189  17.9346  17.9427  18.0071  18.0283  18.0419  18.0510  18.0645
    18.1033  18.1694  18.1735  18.1803  18.2187  18.2713  18.4442  18.4701
    18.5216  18.5741  18.7393  18.7410  18.8001  18.8541  18.8628  18.8685
    18.9914  19.0088  19.0301  19.0400  19.0709  19.1316  19.1649  19.1885
    19.2211  19.2261  19.2555  19.3686  19.4588  19.5061  19.5255  19.5836
    19.6125  19.6497  19.6801  19.6982  19.7523  19.7737  19.8071  19.9915
    19.9985  20.0078  20.0128  20.0376  20.0393  20.1775  20.3169  20.3410
    20.4247  20.4619  20.5697  20.7317  20.7969  21.0515  21.0905  21.6121
    21.9007  22.0310  22.5028

          k = 0.0556 0.2778 0.0463 ( 36206 PWs)   bands (ev):

   -54.5352 -54.4924 -54.4597 -54.4455 -54.4422 -54.4329 -54.4316 -54.4191
   -54.4141 -54.4141 -54.4136 -54.4044 -54.3997 -54.3869 -54.3782 -54.3731
   -54.1055 -54.1030 -54.0815 -54.0803 -54.0644 -54.0639 -54.0631 -54.0630
   -54.0593 -54.0593 -54.0562 -54.0559 -54.0381 -54.0380 -54.0123 -54.0123
   -24.8499 -24.8412 -24.8391 -24.8269 -24.8058 -24.8044 -24.7562 -24.7142
   -24.7075 -24.6992 -24.6912 -24.6904 -24.6900 -24.6831 -24.5995 -24.5895
   -24.5564 -24.5451 -24.5114 -24.5079 -24.4943 -24.4813 -24.4795 -24.4791
   -24.4776 -24.4662 -24.4481 -24.4400 -24.4398 -24.4396 -24.3947 -24.3531
   -24.3251 -24.3094 -24.3089 -24.2668 -24.2663 -24.2602 -24.2570 -24.2477
   -24.2434 -24.2302 -24.2209 -24.2048 -24.2010 -24.1958 -24.1941 -24.1923
   -24.1807 -24.1790 -24.1716 -24.1318 -24.1314 -24.1271 -24.1192 -24.1146
   -24.1141 -24.1136 -24.0948 -24.0940 -24.0901 -24.0868 -24.0782 -24.0534
   -23.9723 -23.9693 -23.9623 -23.9611 -23.9594 -23.9593 -23.9585 -23.9575
   -23.9566 -23.9498 -23.9457 -23.9386 -23.9374 -23.9362 -23.9337 -23.9316
   -23.9302 -23.9186 -23.9102 -23.9067 -23.9009 -23.8966 -23.8877 -23.8774
   -23.8306 -23.8292 -23.8116 -23.8110 -23.8095 -23.8083 -23.7935 -23.7924
    11.5554  12.8072  12.8169  12.9015  12.9193  13.0999  13.1517  13.1679
    13.1951  13.2258  13.3416  13.3554  13.3959  13.4699  13.5840  13.6543
    13.7072  13.7523  13.7775  13.8954  13.9099  13.9247  14.0831  14.1051
    14.1300  14.1476  14.1815  14.2596  14.2789  14.2860  14.3632  14.3695
    14.3892  14.4013  14.4556  14.4878  14.6354  14.6979  14.7516  14.7627
    14.8016  14.8503  14.9337  14.9869  15.0352  15.0592  15.0650  15.0967
    15.1155  15.1442  15.1774  15.3440  15.3720  15.4516  15.4773  15.5828
    15.5889  15.5928  15.7027  15.7157  15.8319  15.8517  15.8593  15.8608
    15.8907  15.8911  15.8995  15.9322  16.0393  16.1118  16.1123  16.1691
    16.2329  16.2546  16.2870  16.2888  16.2976  16.3493  16.3533  16.3645
    16.3980  16.4502  16.4588  16.4674  16.4803  16.6036  16.6386  16.6935
    16.7594  16.8376  16.8775  16.8815  16.9561  17.0956  17.2590  17.3482
    17.3787  17.4276  17.4420  17.4777  17.4843  17.4932  17.5143  17.5176
    17.5405  17.5755  17.5883  17.5928  17.6512  17.7040  17.9017  17.9356
    18.0097  18.0466  18.0850  18.1532  18.1743  18.2116  18.2183  18.2257
    18.3117  18.3763  18.3774  18.3786  18.3878  18.3910  18.4617  18.5163
    18.5228  18.5819  18.6117  18.6498  18.6758  18.7805  18.8147  18.8995
    18.9093  18.9973  19.0339  19.0431  19.1010  19.1132  19.1415  19.1984
    19.2063  19.2193  19.2243  19.2905  19.3563  19.4031  19.4439  19.5687
    19.5946  19.6429  19.6502  19.6562  19.7234  19.7394  19.8646  19.9998
    20.0096  20.1273  20.1423  20.1742  20.2334  20.2396  20.2773  20.4585
    20.5706  20.5990  20.6685  20.7220  20.8442  20.9437  21.1779  21.2657
    21.3907  21.4505  22.0049

          k = 0.0556 0.2778 0.1389 ( 36213 PWs)   bands (ev):

   -54.5352 -54.4924 -54.4597 -54.4455 -54.4421 -54.4329 -54.4316 -54.4191
   -54.4141 -54.4141 -54.4136 -54.4044 -54.3997 -54.3869 -54.3782 -54.3731
   -54.1054 -54.1031 -54.0814 -54.0804 -54.0643 -54.0639 -54.0631 -54.0630
   -54.0593 -54.0593 -54.0562 -54.0559 -54.0381 -54.0380 -54.0123 -54.0123
   -24.8499 -24.8412 -24.8391 -24.8269 -24.8058 -24.8044 -24.7561 -24.7143
   -24.7075 -24.6992 -24.6912 -24.6905 -24.6900 -24.6831 -24.5995 -24.5896
   -24.5565 -24.5452 -24.5116 -24.5081 -24.4943 -24.4812 -24.4796 -24.4792
   -24.4777 -24.4661 -24.4481 -24.4401 -24.4400 -24.4399 -24.3946 -24.3528
   -24.3251 -24.3094 -24.3089 -24.2669 -24.2663 -24.2603 -24.2571 -24.2478
   -24.2434 -24.2300 -24.2209 -24.2047 -24.2012 -24.1956 -24.1943 -24.1920
   -24.1803 -24.1790 -24.1716 -24.1318 -24.1314 -24.1269 -24.1191 -24.1145
   -24.1138 -24.1134 -24.0947 -24.0936 -24.0904 -24.0867 -24.0784 -24.0537
   -23.9740 -23.9682 -23.9630 -23.9616 -23.9593 -23.9588 -23.9579 -23.9572
   -23.9567 -23.9505 -23.9461 -23.9384 -23.9371 -23.9356 -23.9337 -23.9314
   -23.9302 -23.9184 -23.9114 -23.9066 -23.9008 -23.8965 -23.8877 -23.8773
   -23.8307 -23.8290 -23.8115 -23.8110 -23.8095 -23.8084 -23.7935 -23.7924
    11.5775  12.8102  12.8217  12.9074  12.9238  13.1038  13.1586  13.1729
    13.2025  13.2267  13.3001  13.3477  13.3600  13.4705  13.5931  13.6541
    13.7494  13.7522  13.7756  13.8875  13.9136  13.9205  14.0797  14.1011
    14.1170  14.1374  14.1604  14.2425  14.2634  14.2835  14.3225  14.3858
    14.3890  14.4156  14.4260  14.4692  14.6542  14.7008  14.7432  14.7598
    14.7764  14.8211  14.9421  14.9873  15.0241  15.0505  15.0662  15.0834
    15.0872  15.1228  15.1782  15.3265  15.3693  15.4484  15.5159  15.5906
    15.6060  15.6147  15.6921  15.7047  15.8557  15.8596  15.8643  15.8751
    15.8998  15.9497  15.9546  15.9932  16.0831  16.1054  16.1247  16.1858
    16.2466  16.2705  16.2714  16.2983  16.3003  16.3510  16.3939  16.3942
    16.4222  16.4586  16.4604  16.4705  16.5477  16.5911  16.6522  16.6978
    16.7941  16.8254  16.8612  16.8946  16.9476  17.0098  17.2805  17.2950
    17.3653  17.4219  17.4719  17.4726  17.4771  17.4806  17.4846  17.5060
    17.5138  17.5237  17.5476  17.5682  17.6732  17.6845  17.8898  17.9827
    18.0271  18.0430  18.0548  18.0730  18.0732  18.1497  18.1619  18.2399
    18.2543  18.3037  18.3352  18.3745  18.4193  18.4494  18.4713  18.5165
    18.5559  18.6473  18.6791  18.6983  18.7259  18.7850  18.8074  18.9349
    18.9565  18.9628  19.0341  19.1352  19.1353  19.1544  19.1748  19.1823
    19.2032  19.2086  19.2355  19.3451  19.3684  19.4111  19.4180  19.4989
    19.5837  19.6230  19.6628  19.7094  19.7330  19.7717  19.8693  19.8926
    19.9840  19.9995  20.1072  20.1405  20.2159  20.2246  20.2379  20.4503
    20.4603  20.5746  20.7558  20.7800  20.8969  20.9384  21.1528  21.3466
    21.5270  21.7820  21.8804

          k = 0.0556 0.2778 0.2315 ( 36207 PWs)   bands (ev):

   -54.5352 -54.4924 -54.4597 -54.4455 -54.4421 -54.4329 -54.4316 -54.4191
   -54.4141 -54.4141 -54.4136 -54.4044 -54.3997 -54.3869 -54.3782 -54.3731
   -54.1053 -54.1032 -54.0813 -54.0805 -54.0643 -54.0640 -54.0631 -54.0630
   -54.0593 -54.0593 -54.0562 -54.0560 -54.0381 -54.0380 -54.0123 -54.0123
   -24.8498 -24.8412 -24.8390 -24.8268 -24.8058 -24.8043 -24.7558 -24.7143
   -24.7074 -24.6993 -24.6912 -24.6905 -24.6900 -24.6831 -24.5995 -24.5896
   -24.5566 -24.5454 -24.5119 -24.5084 -24.4945 -24.4812 -24.4796 -24.4792
   -24.4778 -24.4661 -24.4479 -24.4408 -24.4400 -24.4399 -24.3945 -24.3524
   -24.3251 -24.3094 -24.3089 -24.2670 -24.2664 -24.2604 -24.2571 -24.2479
   -24.2435 -24.2295 -24.2209 -24.2045 -24.2016 -24.1952 -24.1945 -24.1915
   -24.1798 -24.1790 -24.1716 -24.1316 -24.1314 -24.1266 -24.1191 -24.1143
   -24.1133 -24.1130 -24.0946 -24.0931 -24.0909 -24.0865 -24.0785 -24.0541
   -23.9757 -23.9673 -23.9639 -23.9624 -23.9592 -23.9584 -23.9583 -23.9567
   -23.9552 -23.9515 -23.9466 -23.9382 -23.9367 -23.9347 -23.9337 -23.9310
   -23.9301 -23.9181 -23.9135 -23.9065 -23.9006 -23.8963 -23.8878 -23.8772
   -23.8309 -23.8288 -23.8113 -23.8109 -23.8096 -23.8086 -23.7934 -23.7925
    11.6139  12.7939  12.8454  12.9166  12.9307  13.1114  13.1674  13.1823
    13.1869  13.2127  13.2295  13.3574  13.3671  13.4715  13.6078  13.6537
    13.7519  13.7701  13.7850  13.8761  13.9143  13.9193  14.0741  14.0949
    14.0971  14.1076  14.1224  14.2226  14.2693  14.2815  14.2835  14.3660
    14.3707  14.4100  14.4275  14.4682  14.6711  14.7025  14.7241  14.7392
    14.7548  14.7781  14.9496  14.9873  15.0103  15.0297  15.0541  15.0699
    15.0773  15.0893  15.1839  15.3075  15.3633  15.4500  15.5835  15.5921
    15.6260  15.6495  15.6781  15.6932  15.8478  15.8479  15.8706  15.8890
    15.9047  16.0292  16.0547  16.0941  16.1026  16.1447  16.1780  16.2010
    16.2096  16.2693  16.3019  16.3031  16.3097  16.3674  16.4511  16.4571
    16.4691  16.4894  16.4960  16.5005  16.5764  16.6172  16.6568  16.7908
    16.8173  16.8227  16.8352  16.8987  16.9315  16.9386  17.1958  17.2743
    17.3176  17.3770  17.3870  17.4150  17.4509  17.4581  17.4684  17.4854
    17.4903  17.5243  17.5496  17.5737  17.6740  17.7257  17.8354  17.8540
    17.9068  18.0251  18.0417  18.0571  18.0854  18.1100  18.1299  18.1732
    18.1808  18.2463  18.3493  18.3797  18.4149  18.4568  18.4674  18.5225
    18.6707  18.6819  18.6958  18.7665  18.7759  18.8500  18.9290  18.9821
    19.0328  19.0432  19.0472  19.0513  19.0603  19.1518  19.1732  19.2222
    19.2547  19.2608  19.2631  19.3302  19.3804  19.4294  19.4873  19.5479
    19.5798  19.5817  19.6701  19.6840  19.7230  19.7326  19.8208  19.9483
    19.9691  19.9839  20.0765  20.1064  20.1501  20.2013  20.2016  20.2427
    20.4628  20.5622  20.5790  20.7350  20.7649  21.2933  21.3376  21.3641
    21.5793  21.6914  21.8714

          k = 0.0556 0.2778 0.3241 ( 36203 PWs)   bands (ev):

   -54.5352 -54.4924 -54.4597 -54.4455 -54.4421 -54.4329 -54.4316 -54.4191
   -54.4141 -54.4141 -54.4136 -54.4044 -54.3997 -54.3869 -54.3782 -54.3731
   -54.1052 -54.1033 -54.0813 -54.0805 -54.0642 -54.0640 -54.0631 -54.0630
   -54.0593 -54.0593 -54.0561 -54.0560 -54.0381 -54.0380 -54.0123 -54.0123
   -24.8498 -24.8412 -24.8389 -24.8267 -24.8058 -24.8043 -24.7557 -24.7144
   -24.7074 -24.6992 -24.6912 -24.6906 -24.6900 -24.6830 -24.5995 -24.5896
   -24.5567 -24.5456 -24.5122 -24.5087 -24.4946 -24.4811 -24.4797 -24.4793
   -24.4779 -24.4660 -24.4478 -24.4415 -24.4400 -24.4400 -24.3944 -24.3520
   -24.3251 -24.3094 -24.3089 -24.2671 -24.2664 -24.2606 -24.2573 -24.2480
   -24.2435 -24.2291 -24.2208 -24.2043 -24.2020 -24.1948 -24.1947 -24.1910
   -24.1793 -24.1790 -24.1716 -24.1315 -24.1314 -24.1263 -24.1190 -24.1142
   -24.1128 -24.1127 -24.0946 -24.0925 -24.0913 -24.0865 -24.0787 -24.0545
   -23.9770 -23.9667 -23.9645 -23.9630 -23.9591 -23.9589 -23.9580 -23.9568
   -23.9533 -23.9523 -23.9470 -23.9381 -23.9363 -23.9340 -23.9337 -23.9307
   -23.9301 -23.9179 -23.9155 -23.9064 -23.9004 -23.8962 -23.8878 -23.8771
   -23.8310 -23.8287 -23.8112 -23.8109 -23.8096 -23.8088 -23.7934 -23.7925
    11.6492  12.7701  12.8677  12.9250  12.9370  13.1099  13.1202  13.1733
    13.1925  13.2201  13.2305  13.3661  13.3731  13.4725  13.6216  13.6535
    13.7512  13.7614  13.8037  13.8667  13.9089  13.9244  14.0593  14.0689
    14.0795  14.0895  14.1096  14.2177  14.2602  14.2746  14.2808  14.3353
    14.3428  14.3819  14.4316  14.5142  14.6799  14.6966  14.7004  14.7075
    14.7418  14.7494  14.9518  14.9868  15.0059  15.0134  15.0319  15.0539
    15.0622  15.0871  15.1936  15.2942  15.3600  15.4668  15.5565  15.6356
    15.6671  15.6851  15.6856  15.6891  15.8243  15.8401  15.8726  15.9068
    15.9107  15.9703  16.0971  16.1552  16.1565  16.2033  16.2108  16.2269
    16.2275  16.2898  16.3104  16.3151  16.3261  16.3959  16.4512  16.5145
    16.5367  16.5368  16.5534  16.5705  16.5978  16.6484  16.7617  16.8101
    16.8175  16.8414  16.8761  16.8820  16.8870  16.9375  17.1288  17.1338
    17.2198  17.2999  17.3256  17.4119  17.4311  17.4386  17.4508  17.4553
    17.4614  17.5745  17.5944  17.6352  17.6373  17.6753  17.6773  17.7234
    17.9341  17.9865  18.0185  18.0215  18.0413  18.0490  18.0649  18.2023
    18.2314  18.2672  18.2944  18.3681  18.4240  18.4764  18.4812  18.5129
    18.6549  18.6819  18.7817  18.8272  18.8812  18.8992  18.9224  18.9524
    18.9886  19.1117  19.1212  19.1289  19.1753  19.2025  19.2349  19.2353
    19.2469  19.2833  19.3144  19.3170  19.3490  19.3661  19.4511  19.5013
    19.5212  19.5274  19.7044  19.7136  19.7391  19.7959  19.8518  19.9583
    19.9711  19.9855  20.0584  20.0749  20.1227  20.1888  20.2203  20.2454
    20.2494  20.4649  20.5817  20.6911  20.7930  20.8870  21.2317  21.3597
    21.7745  22.0609  22.2393

          k = 0.0556 0.2778-0.4167 ( 36188 PWs)   bands (ev):

   -54.5352 -54.4924 -54.4597 -54.4455 -54.4421 -54.4329 -54.4316 -54.4191
   -54.4141 -54.4141 -54.4136 -54.4044 -54.3997 -54.3869 -54.3782 -54.3731
   -54.1051 -54.1033 -54.0812 -54.0806 -54.0642 -54.0641 -54.0631 -54.0630
   -54.0593 -54.0593 -54.0561 -54.0561 -54.0381 -54.0380 -54.0123 -54.0123
   -24.8498 -24.8411 -24.8388 -24.8266 -24.8058 -24.8043 -24.7556 -24.7143
   -24.7074 -24.6993 -24.6912 -24.6906 -24.6900 -24.6830 -24.5994 -24.5897
   -24.5567 -24.5457 -24.5123 -24.5088 -24.4946 -24.4810 -24.4797 -24.4793
   -24.4779 -24.4660 -24.4478 -24.4417 -24.4400 -24.4400 -24.3944 -24.3519
   -24.3251 -24.3094 -24.3089 -24.2672 -24.2665 -24.2606 -24.2573 -24.2481
   -24.2435 -24.2289 -24.2208 -24.2042 -24.2022 -24.1947 -24.1947 -24.1908
   -24.1791 -24.1789 -24.1717 -24.1314 -24.1314 -24.1262 -24.1190 -24.1141
   -24.1126 -24.1126 -24.0945 -24.0924 -24.0915 -24.0864 -24.0788 -24.0546
   -23.9775 -23.9666 -23.9647 -23.9632 -23.9591 -23.9591 -23.9578 -23.9569
   -23.9526 -23.9525 -23.9471 -23.9380 -23.9362 -23.9338 -23.9337 -23.9305
   -23.9301 -23.9178 -23.9163 -23.9063 -23.9004 -23.8961 -23.8879 -23.8771
   -23.8310 -23.8286 -23.8111 -23.8109 -23.8096 -23.8089 -23.7933 -23.7926
    11.6641  12.7574  12.8770  12.9284  12.9395  13.0842  13.1243  13.1750
    13.1973  13.2225  13.2310  13.3696  13.3755  13.4728  13.6274  13.6534
    13.7507  13.7566  13.8092  13.8632  13.9069  13.9263  14.0417  14.0667
    14.0725  14.0873  14.1047  14.2167  14.2541  14.2767  14.2807  14.3202
    14.3380  14.3583  14.4405  14.5377  14.6799  14.6823  14.6952  14.6986
    14.7278  14.7469  14.9517  14.9866  15.0023  15.0234  15.0245  15.0261
    15.0599  15.0910  15.1985  15.2894  15.3596  15.4908  15.5264  15.6383
    15.6630  15.6822  15.7035  15.7464  15.8158  15.8369  15.8729  15.9124
    15.9132  15.9421  16.0359  16.1636  16.1954  16.2191  16.2333  16.2509
    16.2693  16.2978  16.3141  16.3169  16.3333  16.4207  16.4348  16.5427
    16.5636  16.5711  16.5804  16.5845  16.5924  16.7556  16.7995  16.8064
    16.8203  16.8481  16.8649  16.8780  16.9110  16.9382  17.0281  17.1116
    17.1489  17.2728  17.3263  17.4022  17.4103  17.4234  17.4488  17.4490
    17.4576  17.5287  17.5963  17.6152  17.6226  17.6705  17.6787  17.7178
    17.9479  17.9691  17.9752  17.9944  18.0240  18.0331  18.0502  18.2105
    18.2217  18.2627  18.3444  18.3703  18.4203  18.4406  18.4988  18.5317
    18.6449  18.6772  18.7928  18.8601  18.8779  18.9035  18.9668  18.9789
    19.0202  19.1194  19.1340  19.1342  19.1621  19.2352  19.2402  19.2576
    19.2647  19.2703  19.2946  19.3318  19.3379  19.4605  19.4697  19.4782
    19.5056  19.5395  19.6295  19.7093  19.7128  19.7400  19.8621  19.9649
    19.9714  20.0205  20.0620  20.0800  20.1316  20.1614  20.2342  20.2462
    20.3311  20.4657  20.5825  20.5857  20.6693  20.8140  21.2016  21.2025
    22.1075  22.3707  22.4607

          k = 0.0556 0.3889 0.0463 ( 36228 PWs)   bands (ev):

   -54.5274 -54.5057 -54.4565 -54.4475 -54.4431 -54.4367 -54.4284 -54.4194
   -54.4106 -54.4095 -54.4062 -54.4060 -54.4022 -54.3855 -54.3824 -54.3755
   -54.1012 -54.0990 -54.0890 -54.0875 -54.0642 -54.0638 -54.0636 -54.0634
   -54.0585 -54.0583 -54.0569 -54.0566 -54.0302 -54.0301 -54.0170 -54.0170
   -24.8275 -24.8143 -24.8128 -24.7986 -24.7834 -24.7810 -24.7586 -24.7440
   -24.7434 -24.7377 -24.7312 -24.7205 -24.7205 -24.7097 -24.6037 -24.5971
   -24.5366 -24.5200 -24.5048 -24.4998 -24.4877 -24.4846 -24.4797 -24.4796
   -24.4661 -24.4648 -24.4580 -24.4577 -24.4341 -24.4200 -24.3997 -24.3332
   -24.3087 -24.3075 -24.2786 -24.2754 -24.2555 -24.2429 -24.2413 -24.2373
   -24.2220 -24.2210 -24.2190 -24.2118 -24.2081 -24.2072 -24.2029 -24.1969
   -24.1841 -24.1832 -24.1702 -24.1595 -24.1513 -24.1376 -24.1352 -24.1291
   -24.1263 -24.1228 -24.1160 -24.1142 -24.1024 -24.0854 -24.0816 -24.0630
   -23.9603 -23.9588 -23.9577 -23.9570 -23.9555 -23.9541 -23.9512 -23.9486
   -23.9467 -23.9427 -23.9412 -23.9378 -23.9368 -23.9295 -23.9292 -23.9252
   -23.9069 -23.9031 -23.9024 -23.8878 -23.8758 -23.8705 -23.8616 -23.8572
   -23.8548 -23.8487 -23.8371 -23.8331 -23.8259 -23.8213 -23.8134 -23.8106
    11.7901  12.4355  13.0036  13.0471  13.0834  13.1981  13.2806  13.2931
    13.3369  13.3981  13.4148  13.4161  13.4415  13.4748  13.5035  13.5174
    13.5769  13.5783  13.6568  13.7117  13.7290  13.8410  13.8951  13.9050
    14.0355  14.2445  14.3010  14.3087  14.3293  14.3296  14.3395  14.3407
    14.3912  14.4026  14.4325  14.4353  14.5322  14.6528  14.6610  14.7038
    14.7469  14.7938  14.8096  14.8626  14.8980  14.9104  14.9474  15.0133
    15.1092  15.1199  15.2476  15.4379  15.4489  15.4884  15.5631  15.6034
    15.6233  15.6328  15.6427  15.7029  15.7064  15.8075  15.8094  15.8871
    15.9824  16.0056  16.0060  16.0067  16.0435  16.1842  16.1883  16.1939
    16.1975  16.3131  16.3140  16.3364  16.3442  16.3532  16.3645  16.3756
    16.3756  16.4010  16.4068  16.5523  16.5672  16.6008  16.6103  16.6877
    16.7575  16.7964  16.8494  16.9158  16.9525  17.1202  17.2741  17.3282
    17.4142  17.4337  17.4361  17.4718  17.4778  17.4791  17.4861  17.5374
    17.5773  17.5872  17.6719  17.7695  17.9056  17.9193  17.9433  17.9492
    17.9527  18.0327  18.0414  18.1148  18.1278  18.1920  18.2731  18.2775
    18.2814  18.2946  18.3283  18.3333  18.3873  18.3984  18.5045  18.5075
    18.6011  18.6975  18.7161  18.7523  18.7668  18.7814  18.7847  18.8580
    18.8603  18.8829  18.9925  19.0140  19.0391  19.0599  19.1219  19.3063
    19.3222  19.3900  19.4159  19.4175  19.4487  19.4923  19.5024  19.5821
    19.6153  19.6795  19.7025  19.7376  19.7483  19.7807  19.8001  19.9004
    19.9017  19.9467  19.9953  20.1522  20.1614  20.1843  20.2231  20.2316
    20.3180  20.3552  20.4188  20.6389  20.8713  20.9671  21.0344  21.1258
    21.3410  21.3488  21.5626

          k = 0.0556 0.3889 0.1389 ( 36194 PWs)   bands (ev):

   -54.5274 -54.5057 -54.4565 -54.4475 -54.4431 -54.4367 -54.4284 -54.4194
   -54.4106 -54.4095 -54.4062 -54.4060 -54.4022 -54.3855 -54.3825 -54.3755
   -54.1011 -54.0991 -54.0889 -54.0876 -54.0642 -54.0638 -54.0636 -54.0634
   -54.0584 -54.0583 -54.0568 -54.0566 -54.0302 -54.0301 -54.0170 -54.0170
   -24.8275 -24.8143 -24.8128 -24.7985 -24.7833 -24.7809 -24.7586 -24.7440
   -24.7433 -24.7377 -24.7312 -24.7205 -24.7205 -24.7097 -24.6037 -24.5971
   -24.5367 -24.5202 -24.5050 -24.5000 -24.4878 -24.4847 -24.4797 -24.4797
   -24.4665 -24.4647 -24.4580 -24.4577 -24.4340 -24.4200 -24.3997 -24.3332
   -24.3083 -24.3075 -24.2787 -24.2754 -24.2556 -24.2429 -24.2413 -24.2372
   -24.2220 -24.2206 -24.2188 -24.2116 -24.2081 -24.2072 -24.2026 -24.1969
   -24.1845 -24.1831 -24.1701 -24.1593 -24.1513 -24.1375 -24.1351 -24.1288
   -24.1266 -24.1227 -24.1158 -24.1139 -24.1024 -24.0855 -24.0816 -24.0633
   -23.9608 -23.9592 -23.9585 -23.9575 -23.9561 -23.9542 -23.9519 -23.9490
   -23.9464 -23.9422 -23.9404 -23.9366 -23.9365 -23.9289 -23.9288 -23.9262
   -23.9068 -23.9030 -23.9022 -23.8878 -23.8759 -23.8704 -23.8617 -23.8573
   -23.8547 -23.8486 -23.8370 -23.8332 -23.8261 -23.8211 -23.8133 -23.8106
    11.8110  12.4526  12.9975  13.0535  13.0868  13.1995  13.2851  13.2957
    13.3426  13.3989  13.4137  13.4228  13.4472  13.4779  13.4861  13.4997
    13.5182  13.5747  13.6534  13.7101  13.7336  13.8399  13.8951  13.9444
    13.9614  14.2418  14.2861  14.3130  14.3189  14.3197  14.3375  14.3537
    14.3967  14.4056  14.4289  14.4366  14.5168  14.6435  14.6660  14.6903
    14.7260  14.7828  14.7903  14.8511  14.8715  14.8984  14.9188  14.9959
    15.1098  15.1254  15.2606  15.4227  15.4906  15.4922  15.5612  15.6180
    15.6360  15.6578  15.6924  15.7185  15.7781  15.8355  15.8403  15.9525
    15.9955  16.0121  16.0170  16.0195  16.1068  16.1923  16.1954  16.1998
    16.2044  16.3157  16.3202  16.3354  16.3544  16.3866  16.3899  16.4016
    16.4034  16.4191  16.4236  16.5591  16.5700  16.5877  16.6519  16.6858
    16.7555  16.7920  16.8236  16.8467  16.9182  17.1614  17.2982  17.3157
    17.3178  17.4055  17.4185  17.4511  17.4541  17.4553  17.4702  17.4815
    17.5179  17.5227  17.5599  17.7055  17.7646  17.7992  17.8379  17.9439
    18.0369  18.0551  18.0619  18.1009  18.1044  18.1396  18.2468  18.2479
    18.2566  18.3557  18.3560  18.3807  18.4106  18.5016  18.5023  18.6062
    18.6978  18.7396  18.7549  18.7749  18.7855  18.8034  18.8060  18.9044
    18.9240  18.9523  18.9591  18.9969  18.9997  19.0512  19.1457  19.3228
    19.3365  19.3926  19.4051  19.4258  19.4588  19.4969  19.4990  19.5183
    19.5577  19.6400  19.6692  19.7220  19.7391  19.7577  19.8930  19.9266
    19.9492  19.9567  19.9914  20.1532  20.1600  20.1815  20.2079  20.2415
    20.3417  20.3585  20.3933  20.5354  20.8072  20.8518  20.8647  21.3513
    21.4832  21.6790  21.8495

          k = 0.0556 0.3889 0.2315 ( 36204 PWs)   bands (ev):

   -54.5274 -54.5057 -54.4565 -54.4475 -54.4431 -54.4367 -54.4284 -54.4194
   -54.4106 -54.4095 -54.4062 -54.4059 -54.4022 -54.3855 -54.3825 -54.3755
   -54.1010 -54.0992 -54.0889 -54.0877 -54.0641 -54.0639 -54.0635 -54.0634
   -54.0584 -54.0583 -54.0568 -54.0566 -54.0302 -54.0301 -54.0170 -54.0170
   -24.8275 -24.8143 -24.8127 -24.7984 -24.7833 -24.7809 -24.7586 -24.7440
   -24.7432 -24.7378 -24.7311 -24.7205 -24.7205 -24.7096 -24.6036 -24.5971
   -24.5368 -24.5206 -24.5052 -24.5003 -24.4879 -24.4847 -24.4798 -24.4797
   -24.4671 -24.4646 -24.4581 -24.4577 -24.4339 -24.4199 -24.3997 -24.3333
   -24.3077 -24.3075 -24.2788 -24.2754 -24.2557 -24.2431 -24.2414 -24.2372
   -24.2220 -24.2200 -24.2185 -24.2112 -24.2081 -24.2072 -24.2023 -24.1969
   -24.1849 -24.1832 -24.1699 -24.1589 -24.1513 -24.1375 -24.1349 -24.1284
   -24.1271 -24.1225 -24.1155 -24.1134 -24.1023 -24.0857 -24.0817 -24.0636
   -23.9617 -23.9607 -23.9599 -23.9574 -23.9570 -23.9543 -23.9528 -23.9494
   -23.9461 -23.9415 -23.9388 -23.9361 -23.9350 -23.9282 -23.9280 -23.9280
   -23.9066 -23.9029 -23.9020 -23.8879 -23.8762 -23.8702 -23.8618 -23.8575
   -23.8545 -23.8483 -23.8370 -23.8332 -23.8263 -23.8209 -23.8132 -23.8107
    11.8454  12.4805  12.9827  13.0636  13.0921  13.2031  13.2904  13.3016
    13.3496  13.3752  13.4024  13.4100  13.4358  13.4562  13.4824  13.4899
    13.5194  13.5716  13.6481  13.7076  13.7407  13.8377  13.8658  13.9005
    13.9778  14.2373  14.2634  14.2915  14.3062  14.3329  14.3540  14.3778
    14.3804  14.3859  14.4369  14.4506  14.4791  14.6246  14.6690  14.6708
    14.6877  14.7614  14.7702  14.8322  14.8409  14.8790  14.8825  14.9688
    15.1109  15.1340  15.2820  15.4024  15.5097  15.5383  15.5860  15.5994
    15.6345  15.7213  15.7347  15.8186  15.8643  15.8741  15.8849  15.9669
    15.9759  16.0690  16.0729  16.1114  16.1820  16.1997  16.2140  16.2231
    16.2365  16.3163  16.3193  16.3277  16.3546  16.4001  16.4279  16.4485
    16.4567  16.4626  16.5140  16.5557  16.5718  16.5758  16.6495  16.6874
    16.7315  16.7532  16.7837  16.8394  16.9241  17.1867  17.1937  17.2318
    17.3042  17.3200  17.3387  17.3976  17.4002  17.4113  17.4394  17.4605
    17.4743  17.4868  17.4919  17.5166  17.6109  17.6637  17.7829  17.9366
    18.0196  18.0513  18.0518  18.0881  18.1338  18.1480  18.1564  18.1674
    18.2292  18.3688  18.3973  18.4305  18.4867  18.5473  18.6185  18.6965
    18.7391  18.7671  18.7917  18.8078  18.8390  18.8932  18.8938  18.9748
    18.9788  18.9833  19.0122  19.0340  19.0613  19.1146  19.1366  19.3444
    19.3473  19.3519  19.3921  19.3972  19.4284  19.4301  19.4711  19.4730
    19.5039  19.5289  19.6108  19.7250  19.7578  19.7734  19.8752  19.9654
    19.9856  20.0797  20.1294  20.1321  20.1457  20.1494  20.1548  20.2103
    20.2797  20.2972  20.3607  20.5648  20.6737  20.8127  20.9035  21.7220
    21.8000  21.9014  22.1182

          k = 0.0556 0.3889 0.3241 ( 36212 PWs)   bands (ev):

   -54.5274 -54.5057 -54.4565 -54.4475 -54.4431 -54.4367 -54.4284 -54.4194
   -54.4106 -54.4095 -54.4062 -54.4059 -54.4022 -54.3855 -54.3825 -54.3755
   -54.1009 -54.0993 -54.0888 -54.0878 -54.0641 -54.0639 -54.0635 -54.0634
   -54.0584 -54.0584 -54.0568 -54.0567 -54.0302 -54.0301 -54.0170 -54.0170
   -24.8275 -24.8143 -24.8126 -24.7984 -24.7833 -24.7810 -24.7586 -24.7439
   -24.7430 -24.7378 -24.7311 -24.7205 -24.7205 -24.7096 -24.6036 -24.5972
   -24.5368 -24.5208 -24.5055 -24.5005 -24.4881 -24.4848 -24.4798 -24.4797
   -24.4676 -24.4645 -24.4581 -24.4577 -24.4338 -24.4198 -24.3998 -24.3333
   -24.3075 -24.3073 -24.2789 -24.2753 -24.2559 -24.2432 -24.2414 -24.2372
   -24.2220 -24.2194 -24.2183 -24.2108 -24.2082 -24.2073 -24.2019 -24.1970
   -24.1852 -24.1835 -24.1698 -24.1586 -24.1513 -24.1374 -24.1347 -24.1280
   -24.1275 -24.1224 -24.1153 -24.1129 -24.1023 -24.0858 -24.0818 -24.0640
   -23.9624 -23.9624 -23.9605 -23.9577 -23.9572 -23.9545 -23.9536 -23.9497
   -23.9459 -23.9409 -23.9369 -23.9357 -23.9339 -23.9301 -23.9277 -23.9273
   -23.9064 -23.9028 -23.9019 -23.8880 -23.8764 -23.8701 -23.8619 -23.8576
   -23.8544 -23.8482 -23.8369 -23.8333 -23.8265 -23.8208 -23.8131 -23.8108
    11.8786  12.5071  12.9612  13.0728  13.0970  13.2076  13.2932  13.3007
    13.3085  13.3538  13.4027  13.4069  13.4479  13.4644  13.4756  13.4859
    13.5202  13.5689  13.6434  13.7050  13.7471  13.8027  13.8352  13.8997
    13.9950  14.2331  14.2434  14.2864  14.2953  14.3434  14.3620  14.3689
    14.3763  14.4148  14.4308  14.4326  14.4609  14.6031  14.6439  14.6491
    14.6723  14.7364  14.7659  14.7989  14.8365  14.8565  14.8588  14.9446
    15.1122  15.1417  15.2988  15.3866  15.5477  15.5591  15.5852  15.6184
    15.6457  15.7318  15.7816  15.8948  15.9129  15.9192  15.9555  15.9595
    15.9789  16.1497  16.1513  16.1725  16.1730  16.2065  16.2437  16.2920
    16.2965  16.3134  16.3249  16.3328  16.3531  16.3944  16.4606  16.4889
    16.4929  16.5017  16.5337  16.5682  16.5875  16.5891  16.6232  16.6948
    16.7525  16.7750  16.8036  16.8288  16.9341  17.0045  17.0921  17.2083
    17.2098  17.2458  17.2612  17.3041  17.3731  17.3748  17.3817  17.3845
    17.4442  17.4683  17.4959  17.5159  17.5278  17.5673  17.7597  17.9321
    17.9721  18.0073  18.0421  18.0438  18.0557  18.0727  18.0798  18.1830
    18.3424  18.4162  18.4379  18.4760  18.4764  18.6520  18.6881  18.6907
    18.7183  18.7549  18.7614  18.8711  18.9010  19.0089  19.0113  19.0122
    19.0259  19.0409  19.1277  19.1387  19.1672  19.1830  19.1962  19.2253
    19.2947  19.3158  19.3184  19.3747  19.3918  19.4191  19.4342  19.4667
    19.5096  19.5133  19.5206  19.7149  19.7778  19.7818  19.8198  19.9575
    19.9691  19.9819  20.0862  20.1004  20.1069  20.1488  20.1562  20.2590
    20.3039  20.3608  20.4890  20.5344  20.6022  20.7738  21.3198  21.3592
    21.9706  22.0687  22.4103

          k = 0.0556 0.3889-0.4167 ( 36204 PWs)   bands (ev):

   -54.5275 -54.5057 -54.4565 -54.4475 -54.4431 -54.4367 -54.4284 -54.4194
   -54.4106 -54.4095 -54.4062 -54.4059 -54.4022 -54.3855 -54.3825 -54.3755
   -54.1009 -54.0993 -54.0888 -54.0878 -54.0640 -54.0640 -54.0635 -54.0634
   -54.0584 -54.0583 -54.0567 -54.0567 -54.0301 -54.0301 -54.0170 -54.0170
   -24.8274 -24.8143 -24.8126 -24.7983 -24.7833 -24.7810 -24.7586 -24.7439
   -24.7430 -24.7378 -24.7311 -24.7205 -24.7204 -24.7096 -24.6036 -24.5972
   -24.5369 -24.5210 -24.5056 -24.5006 -24.4881 -24.4848 -24.4798 -24.4798
   -24.4678 -24.4644 -24.4581 -24.4577 -24.4337 -24.4198 -24.3998 -24.3333
   -24.3075 -24.3071 -24.2789 -24.2753 -24.2559 -24.2432 -24.2415 -24.2372
   -24.2220 -24.2192 -24.2182 -24.2107 -24.2082 -24.2073 -24.2018 -24.1969
   -24.1853 -24.1836 -24.1697 -24.1585 -24.1513 -24.1374 -24.1346 -24.1278
   -24.1277 -24.1223 -24.1152 -24.1128 -24.1023 -24.0859 -24.0818 -24.0641
   -23.9631 -23.9626 -23.9607 -23.9580 -23.9571 -23.9546 -23.9539 -23.9498
   -23.9458 -23.9407 -23.9356 -23.9356 -23.9336 -23.9315 -23.9275 -23.9270
   -23.9063 -23.9027 -23.9018 -23.8880 -23.8765 -23.8700 -23.8620 -23.8577
   -23.8543 -23.8481 -23.8368 -23.8333 -23.8266 -23.8208 -23.8131 -23.8108
    11.8926  12.5183  12.9497  13.0765  13.0989  13.2098  13.2755  13.2938
    13.3119  13.3549  13.4031  13.4057  13.4530  13.4676  13.4680  13.4872
    13.5205  13.5679  13.6415  13.7040  13.7496  13.7806  13.8341  13.9000
    14.0000  14.2314  14.2355  14.2901  14.2913  14.3466  14.3472  14.3794
    14.3902  14.3981  14.4268  14.4335  14.4636  14.5934  14.6216  14.6408
    14.6723  14.7266  14.7666  14.7860  14.8356  14.8476  14.8492  14.9351
    15.1128  15.1448  15.3041  15.3807  15.5622  15.5752  15.5799  15.6331
    15.6529  15.7194  15.8113  15.9058  15.9202  15.9314  15.9475  15.9561
    16.1015  16.1297  16.1861  16.1952  16.2025  16.2243  16.2338  16.2706
    16.3114  16.3191  16.3342  16.3492  16.3520  16.3758  16.4498  16.4732
    16.5089  16.5183  16.5277  16.5984  16.5997  16.6710  16.6999  16.7457
    16.7529  16.7709  16.7963  16.8230  16.8328  16.9411  17.0589  17.1506
    17.1621  17.1867  17.2131  17.3080  17.3527  17.3666  17.3685  17.3969
    17.4238  17.4332  17.4654  17.5266  17.5364  17.5585  17.7495  17.9305
    17.9532  17.9896  18.0030  18.0227  18.0411  18.0438  18.0513  18.2135
    18.3183  18.4554  18.4748  18.4916  18.5105  18.6750  18.6838  18.7021
    18.7152  18.7385  18.7755  18.8670  18.9605  19.0007  19.0400  19.0472
    19.0698  19.0833  19.1270  19.1844  19.1914  19.2211  19.2247  19.2290
    19.2717  19.2991  19.3851  19.3912  19.3967  19.4061  19.4124  19.4133
    19.4138  19.5119  19.5194  19.7140  19.7582  19.7838  19.7843  19.9223
    19.9699  19.9826  20.0811  20.0884  20.0982  20.1398  20.1567  20.1825
    20.2419  20.3604  20.5830  20.6665  20.7562  20.8659  20.8988  21.6721
    21.9207  21.9959  22.0883

          k = 0.0556-0.5000 0.0463 ( 36212 PWs)   bands (ev):

   -54.5175 -54.5175 -54.4523 -54.4523 -54.4402 -54.4402 -54.4242 -54.4242
   -54.4080 -54.4080 -54.4055 -54.4055 -54.3949 -54.3949 -54.3786 -54.3786
   -54.0956 -54.0956 -54.0938 -54.0938 -54.0639 -54.0639 -54.0636 -54.0636
   -54.0576 -54.0576 -54.0574 -54.0574 -54.0230 -54.0230 -54.0230 -54.0230
   -24.7967 -24.7967 -24.7804 -24.7804 -24.7795 -24.7795 -24.7656 -24.7656
   -24.7546 -24.7545 -24.7521 -24.7521 -24.7276 -24.7276 -24.6024 -24.6024
   -24.5115 -24.5115 -24.4965 -24.4965 -24.4934 -24.4934 -24.4905 -24.4905
   -24.4671 -24.4671 -24.4426 -24.4426 -24.4406 -24.4406 -24.3637 -24.3637
   -24.2918 -24.2918 -24.2642 -24.2642 -24.2451 -24.2451 -24.2353 -24.2353
   -24.2291 -24.2291 -24.2232 -24.2232 -24.2162 -24.2162 -24.1880 -24.1880
   -24.1771 -24.1771 -24.1613 -24.1613 -24.1586 -24.1586 -24.1432 -24.1432
   -24.1356 -24.1356 -24.1234 -24.1234 -24.0929 -24.0929 -24.0716 -24.0716
   -23.9575 -23.9575 -23.9563 -23.9562 -23.9537 -23.9537 -23.9513 -23.9513
   -23.9415 -23.9415 -23.9373 -23.9373 -23.9297 -23.9297 -23.9283 -23.9283
   -23.8872 -23.8872 -23.8734 -23.8734 -23.8687 -23.8687 -23.8605 -23.8605
   -23.8490 -23.8490 -23.8397 -23.8397 -23.8357 -23.8357 -23.8343 -23.8343
    12.0886  12.0886  13.2247  13.2247  13.2375  13.2375  13.2875  13.2875
    13.3137  13.3137  13.4397  13.4397  13.4502  13.4502  13.5117  13.5117
    13.5716  13.5716  13.6235  13.6235  13.6371  13.6371  13.7989  13.7989
    14.1464  14.1464  14.3071  14.3071  14.3753  14.3753  14.3862  14.3862
    14.4290  14.4290  14.5117  14.5117  14.5506  14.5506  14.5692  14.5692
    14.6564  14.6564  14.8102  14.8102  14.8303  14.8303  14.9545  14.9545
    15.1509  15.1509  15.3331  15.3331  15.5378  15.5378  15.5548  15.5548
    15.6193  15.6193  15.7175  15.7175  15.7597  15.7597  15.7710  15.7710
    16.1148  16.1148  16.1420  16.1420  16.1590  16.1590  16.1647  16.1647
    16.1680  16.1680  16.1842  16.1842  16.2652  16.2652  16.4042  16.4042
    16.4932  16.4932  16.5194  16.5194  16.5296  16.5296  16.6641  16.6641
    16.6777  16.6777  17.1661  17.1661  17.1811  17.1811  17.2160  17.2160
    17.3694  17.3694  17.4252  17.4252  17.4808  17.4808  17.4885  17.4885
    17.6218  17.6218  17.7353  17.7353  17.7808  17.7808  17.9304  17.9304
    18.0155  18.0155  18.0461  18.0461  18.1503  18.1503  18.2298  18.2298
    18.3087  18.3087  18.5295  18.5295  18.5316  18.5316  18.5342  18.5342
[...]
   -24.3197 -24.3197 -24.3197 -24.3197 -24.3196 -24.3196 -24.3196 -24.3196
   -24.1491 -24.1491 -24.1491 -24.1491 -24.1459 -24.1459 -24.1459 -24.1459
   -24.1459 -24.1459 -24.1459 -24.1459 -24.1275 -24.1275 -24.1275 -24.1275
   -24.1274 -24.1274 -24.1274 -24.1274 -24.1137 -24.1137 -24.1137 -24.1137
   -24.1064 -24.1064 -24.1064 -24.1064 -24.0770 -24.0770 -24.0770 -24.0770
   -24.0379 -24.0379 -24.0379 -24.0378 -24.0378 -24.0378 -24.0378 -24.0378
   -23.9759 -23.9759 -23.9759 -23.9758 -23.9588 -23.9588 -23.9588 -23.9588
   -23.8742 -23.8742 -23.8742 -23.8742 -23.8692 -23.8692 -23.8692 -23.8692
    12.8431  12.8431  12.8431  12.8431  13.5700  13.5701  13.5701  13.5701
    13.6271  13.6271  13.6271  13.6271  13.7892  13.7892  13.7892  13.7892
    13.8854  13.8854  13.8854  13.8854  13.8855  13.8855  13.8855  13.8855
    14.1736  14.1736  14.1736  14.1736  14.1736  14.1736  14.1736  14.1736
    14.5042  14.5042  14.5042  14.5042  14.5043  14.5043  14.5043  14.5043
    14.6374  14.6374  14.6374  14.6374  14.9098  14.9098  14.9098  14.9098
    14.9098  14.9098  14.9098  14.9098  15.0534  15.0534  15.0534  15.0534
    15.7212  15.7212  15.7212  15.7212  15.8980  15.8980  15.8980  15.8980
    16.0162  16.0162  16.0162  16.0162  16.4815  16.4815  16.4815  16.4815
    16.7843  16.7843  16.7843  16.7843  16.7843  16.7843  16.7843  16.7843
    16.8425  16.8425  16.8425  16.8425  16.8770  16.8770  16.8771  16.8771
    16.9763  16.9763  16.9763  16.9763  17.0607  17.0607  17.0607  17.0607
    17.2906  17.2906  17.2906  17.2906  17.2906  17.2906  17.2906  17.2906
    17.4334  17.4334  17.4334  17.4334  17.4334  17.4334  17.4334  17.4334
    17.4646  17.4646  17.4646  17.4646  17.7678  17.7678  17.7678  17.7678
    18.1010  18.1010  18.1010  18.1010  18.4712  18.4712  18.4712  18.4712
    18.4712  18.4712  18.4712  18.4712  18.6659  18.6659  18.6659  18.6659
    19.0108  19.0108  19.0108  19.0108  19.2156  19.2156  19.2156  19.2156
    19.2156  19.2156  19.2156  19.2156  19.3586  19.3586  19.3586  19.3586
    19.8914  19.8914  19.8914  19.8914  19.9119  19.9119  19.9119  19.9119
    19.9120  19.9120  19.9120  19.9120  19.9304  19.9304  19.9304  19.9304
    20.0418  20.0418  20.0418  20.0418  23.0066  23.0066  23.0066  23.0066
    23.0066  23.0066  23.0066

          k =-0.5000-0.5000 0.2315 ( 36244 PWs)   bands (ev):

   -54.4295 -54.4295 -54.4295 -54.4295 -54.4064 -54.4064 -54.4064 -54.4064
   -54.3516 -54.3516 -54.3516 -54.3516 -54.3516 -54.3516 -54.3516 -54.3516
   -54.1897 -54.1897 -54.1897 -54.1897 -54.1884 -54.1884 -54.1884 -54.1884
   -54.1453 -54.1453 -54.1453 -54.1453 -54.1453 -54.1453 -54.1453 -54.1453
   -24.7151 -24.7151 -24.7151 -24.7151 -24.7151 -24.7151 -24.7151 -24.7150
   -24.5977 -24.5977 -24.5977 -24.5977 -24.5921 -24.5921 -24.5921 -24.5921
   -24.5921 -24.5921 -24.5921 -24.5921 -24.5805 -24.5805 -24.5805 -24.5805
   -24.4900 -24.4900 -24.4900 -24.4900 -24.4281 -24.4281 -24.4281 -24.4281
   -24.3197 -24.3197 -24.3197 -24.3197 -24.3197 -24.3197 -24.3197 -24.3197
   -24.1491 -24.1491 -24.1491 -24.1491 -24.1460 -24.1460 -24.1460 -24.1460
   -24.1460 -24.1460 -24.1460 -24.1460 -24.1273 -24.1273 -24.1273 -24.1273
   -24.1272 -24.1272 -24.1272 -24.1272 -24.1137 -24.1137 -24.1137 -24.1137
   -24.1058 -24.1058 -24.1058 -24.1058 -24.0793 -24.0793 -24.0793 -24.0793
   -24.0379 -24.0379 -24.0379 -24.0379 -24.0379 -24.0379 -24.0379 -24.0379
   -23.9741 -23.9741 -23.9741 -23.9741 -23.9594 -23.9594 -23.9594 -23.9594
   -23.8739 -23.8739 -23.8739 -23.8739 -23.8695 -23.8695 -23.8695 -23.8695
    12.8575  12.8575  12.8575  12.8575  13.5192  13.5192  13.5192  13.5192
    13.6258  13.6258  13.6258  13.6258  13.8241  13.8241  13.8241  13.8241
    13.8849  13.8849  13.8849  13.8849  13.8850  13.8850  13.8850  13.8850
    14.1537  14.1537  14.1537  14.1537  14.1538  14.1538  14.1538  14.1538
    14.5472  14.5472  14.5472  14.5472  14.5472  14.5472  14.5472  14.5472
    14.6332  14.6332  14.6332  14.6332  14.8868  14.8868  14.8868  14.8868
    14.8868  14.8868  14.8868  14.8868  15.0639  15.0639  15.0639  15.0639
    15.7365  15.7365  15.7365  15.7365  15.8747  15.8747  15.8747  15.8747
    16.0516  16.0516  16.0516  16.0516  16.4865  16.4865  16.4865  16.4865
    16.7911  16.7911  16.7911  16.7911  16.7911  16.7911  16.7911  16.7911
    16.8309  16.8309  16.8309  16.8309  16.8760  16.8760  16.8760  16.8760
    16.9682  16.9682  16.9682  16.9682  17.0630  17.0630  17.0630  17.0630
    17.2927  17.2927  17.2927  17.2927  17.2928  17.2928  17.2928  17.2928
    17.4836  17.4836  17.4836  17.4836  17.5004  17.5004  17.5004  17.5004
    17.5004  17.5004  17.5004  17.5004  17.7641  17.7641  17.7641  17.7641
    17.9934  17.9934  17.9934  17.9934  18.2514  18.2514  18.2514  18.2514
    18.2514  18.2514  18.2514  18.2514  18.5244  18.5244  18.5244  18.5244
    19.0172  19.0172  19.0172  19.0172  19.3235  19.3235  19.3235  19.3235
    19.3662  19.3662  19.3662  19.3662  19.3662  19.3662  19.3662  19.3662
    19.9139  19.9139  19.9139  19.9139  19.9282  19.9282  19.9282  19.9282
    19.9282  19.9282  19.9282  19.9282  20.0422  20.0422  20.0422  20.0422
    20.4509  20.4509  20.4509  20.4509  23.0733  23.0733  23.0733  23.0733
    23.0733  23.0733  23.0733

          k =-0.5000-0.5000 0.3241 ( 36220 PWs)   bands (ev):

   -54.4295 -54.4295 -54.4295 -54.4295 -54.4064 -54.4064 -54.4064 -54.4064
   -54.3516 -54.3516 -54.3516 -54.3516 -54.3516 -54.3516 -54.3516 -54.3516
   -54.1895 -54.1895 -54.1895 -54.1895 -54.1886 -54.1886 -54.1886 -54.1886
   -54.1453 -54.1453 -54.1453 -54.1453 -54.1453 -54.1453 -54.1453 -54.1453
   -24.7151 -24.7151 -24.7151 -24.7151 -24.7150 -24.7150 -24.7150 -24.7150
   -24.5977 -24.5977 -24.5977 -24.5977 -24.5922 -24.5922 -24.5922 -24.5922
   -24.5922 -24.5922 -24.5922 -24.5922 -24.5812 -24.5812 -24.5812 -24.5812
   -24.4891 -24.4891 -24.4891 -24.4891 -24.4279 -24.4279 -24.4279 -24.4279
   -24.3197 -24.3197 -24.3197 -24.3197 -24.3197 -24.3197 -24.3197 -24.3197
   -24.1490 -24.1490 -24.1490 -24.1490 -24.1460 -24.1460 -24.1460 -24.1460
   -24.1460 -24.1460 -24.1460 -24.1460 -24.1271 -24.1271 -24.1271 -24.1271
   -24.1271 -24.1271 -24.1271 -24.1271 -24.1138 -24.1138 -24.1138 -24.1138
   -24.1051 -24.1051 -24.1051 -24.1051 -24.0814 -24.0814 -24.0814 -24.0814
   -24.0380 -24.0380 -24.0380 -24.0380 -24.0380 -24.0380 -24.0380 -24.0380
   -23.9725 -23.9725 -23.9725 -23.9725 -23.9600 -23.9600 -23.9600 -23.9600
   -23.8736 -23.8736 -23.8736 -23.8736 -23.8697 -23.8697 -23.8697 -23.8697
    12.8712  12.8712  12.8712  12.8712  13.4781  13.4781  13.4781  13.4781
    13.6289  13.6289  13.6289  13.6289  13.8457  13.8457  13.8457  13.8457
    13.8851  13.8851  13.8851  13.8851  13.8851  13.8851  13.8851  13.8851
    14.1367  14.1367  14.1367  14.1367  14.1367  14.1367  14.1367  14.1367
    14.5911  14.5911  14.5911  14.5911  14.5912  14.5912  14.5912  14.5912
    14.6297  14.6297  14.6297  14.6297  14.8590  14.8590  14.8590  14.8590
    14.8590  14.8590  14.8590  14.8590  15.0719  15.0719  15.0719  15.0719
    15.7628  15.7628  15.7628  15.7628  15.8418  15.8418  15.8418  15.8418
    16.0899  16.0899  16.0899  16.0900  16.4877  16.4877  16.4877  16.4877
    16.7978  16.7978  16.7978  16.7978  16.7978  16.7978  16.7978  16.7978
    16.8086  16.8086  16.8086  16.8086  16.8751  16.8751  16.8751  16.8751
    16.9614  16.9614  16.9614  16.9614  17.0746  17.0746  17.0746  17.0746
    17.2946  17.2946  17.2946  17.2946  17.2946  17.2946  17.2946  17.2946
    17.5007  17.5007  17.5007  17.5007  17.5917  17.5917  17.5917  17.5917
    17.5917  17.5917  17.5917  17.5917  17.7600  17.7600  17.7600  17.7600
    17.8948  17.8948  17.8948  17.8948  18.0580  18.0580  18.0580  18.0580
    18.0580  18.0580  18.0580  18.0580  18.4570  18.4570  18.4570  18.4570
    19.0247  19.0247  19.0247  19.0247  19.2923  19.2923  19.2923  19.2923
    19.4657  19.4657  19.4657  19.4657  19.4657  19.4657  19.4657  19.4657
    19.9329  19.9329  19.9329  19.9329  19.9428  19.9428  19.9428  19.9428
    19.9428  19.9428  19.9428  19.9428  20.0420  20.0420  20.0420  20.0420
    21.0310  21.0310  21.0310  21.0310  22.4337  22.4337  22.4337  22.4337
    23.1580  23.1580  23.1580

          k =-0.5000-0.5000-0.4167 ( 36168 PWs)   bands (ev):

   -54.4295 -54.4295 -54.4295 -54.4295 -54.4064 -54.4064 -54.4064 -54.4064
   -54.3516 -54.3516 -54.3516 -54.3516 -54.3516 -54.3516 -54.3516 -54.3516
   -54.1894 -54.1894 -54.1894 -54.1894 -54.1887 -54.1887 -54.1887 -54.1887
   -54.1453 -54.1453 -54.1453 -54.1453 -54.1453 -54.1453 -54.1453 -54.1453
   -24.7151 -24.7151 -24.7151 -24.7151 -24.7150 -24.7150 -24.7150 -24.7150
   -24.5978 -24.5978 -24.5978 -24.5978 -24.5922 -24.5922 -24.5922 -24.5922
   -24.5922 -24.5922 -24.5922 -24.5922 -24.5814 -24.5814 -24.5814 -24.5814
   -24.4887 -24.4887 -24.4887 -24.4887 -24.4279 -24.4279 -24.4279 -24.4279
   -24.3197 -24.3197 -24.3197 -24.3197 -24.3197 -24.3197 -24.3197 -24.3197
   -24.1490 -24.1490 -24.1490 -24.1490 -24.1460 -24.1460 -24.1460 -24.1460
   -24.1460 -24.1460 -24.1460 -24.1460 -24.1270 -24.1270 -24.1270 -24.1270
   -24.1270 -24.1270 -24.1270 -24.1270 -24.1138 -24.1138 -24.1138 -24.1138
   -24.1048 -24.1048 -24.1048 -24.1048 -24.0822 -24.0822 -24.0822 -24.0822
   -24.0380 -24.0380 -24.0380 -24.0380 -24.0380 -24.0380 -24.0380 -24.0380
   -23.9718 -23.9718 -23.9718 -23.9718 -23.9604 -23.9604 -23.9604 -23.9604
   -23.8735 -23.8735 -23.8735 -23.8735 -23.8699 -23.8699 -23.8699 -23.8699
    12.8769  12.8769  12.8769  12.8769  13.4626  13.4626  13.4626  13.4626
    13.6305  13.6305  13.6305  13.6305  13.8529  13.8529  13.8529  13.8529
    13.8853  13.8853  13.8853  13.8853  13.8854  13.8854  13.8854  13.8854
    14.1300  14.1300  14.1300  14.1300  14.1300  14.1300  14.1300  14.1300
    14.6115  14.6115  14.6115  14.6115  14.6116  14.6116  14.6116  14.6116
    14.6284  14.6284  14.6284  14.6284  14.8446  14.8447  14.8447  14.8447
    14.8447  14.8447  14.8447  14.8447  15.0748  15.0748  15.0748  15.0748
    15.7879  15.7879  15.7879  15.7879  15.8143  15.8143  15.8143  15.8143
    16.1074  16.1074  16.1074  16.1074  16.4869  16.4869  16.4869  16.4869
    16.7966  16.7966  16.7966  16.7966  16.8007  16.8007  16.8007  16.8007
    16.8007  16.8007  16.8007  16.8007  16.8748  16.8748  16.8748  16.8748
    16.9587  16.9587  16.9587  16.9587  17.0817  17.0817  17.0817  17.0817
    17.2953  17.2953  17.2953  17.2953  17.2953  17.2953  17.2953  17.2953
    17.5076  17.5076  17.5076  17.5076  17.6523  17.6523  17.6523  17.6523
    17.6523  17.6523  17.6523  17.6524  17.7581  17.7581  17.7581  17.7582
    17.8562  17.8562  17.8562  17.8562  17.9616  17.9616  17.9616  17.9616
    17.9616  17.9616  17.9616  17.9616  18.4373  18.4373  18.4373  18.4373
    19.0283  19.0283  19.0283  19.0283  19.2797  19.2797  19.2797  19.2797
    19.5001  19.5001  19.5001  19.5001  19.5002  19.5002  19.5002  19.5002
    19.9403  19.9403  19.9403  19.9403  19.9487  19.9487  19.9487  19.9487
    19.9487  19.9487  19.9487  19.9487  20.0417  20.0417  20.0417  20.0417
    21.5049  21.5049  21.5049  21.5049  21.9163  21.9163  21.9163  21.9163
    23.2072  23.2072  23.2072

     the Fermi energy is    18.4875 ev

!    total energy              =  -13812.17419591 Ry

     total all-electron energy =   -289988.564535 Ry
     estimated scf accuracy    <          1.1E-09 Ry
     smearing contrib. (-TS)   =       0.04185042 Ry
     internal energy E=F+TS    =  -13812.21604634 Ry

     The total energy is F=E-TS. E is the sum of the following terms:
     one-electron contribution =   -2113.65250035 Ry
     hartree contribution      =    1389.98345269 Ry
     xc contribution           =    -924.87905758 Ry
     ewald contribution        =   -4574.34682953 Ry
     one-center paw contrib.   =   -7589.32111156 Ry

     convergence has been achieved in  10 iterations

     Forces acting on atoms (cartesian axes, Ry/au):

     atom    1 type  1   force =     0.00000000    0.00000000   -0.00024328
     atom    2 type  1   force =    -0.00000070   -0.00000070   -0.00024381
     atom    3 type  1   force =    -0.00000136    0.00000000    0.00019194
     atom    4 type  1   force =     0.00000000   -0.00000136    0.00019194
     atom    5 type  1   force =     0.00000000    0.00000000   -0.00020943
     atom    6 type  1   force =     0.00000022    0.00000022   -0.00020666
     atom    7 type  1   force =     0.00000106    0.00000000    0.00025984
     atom    8 type  1   force =     0.00000000    0.00000106    0.00025984
     atom    9 type  1   force =     0.00000000    0.00000000   -0.00024258
     atom   10 type  1   force =    -0.00000070    0.00000070   -0.00024381
     atom   11 type  1   force =    -0.00000320    0.00000000    0.00019031
     atom   12 type  1   force =     0.00000000    0.00000136    0.00019194
     atom   13 type  1   force =     0.00000000    0.00000000   -0.00020595
     atom   14 type  1   force =     0.00000022   -0.00000022   -0.00020666
     atom   15 type  1   force =    -0.00000010    0.00000000    0.00025881
     atom   16 type  1   force =     0.00000000   -0.00000106    0.00025984
     atom   17 type  1   force =     0.00000000    0.00000000   -0.00024258
     atom   18 type  1   force =     0.00000070   -0.00000070   -0.00024381
     atom   19 type  1   force =     0.00000136    0.00000000    0.00019194
     atom   20 type  1   force =     0.00000000   -0.00000320    0.00019031
     atom   21 type  1   force =     0.00000000    0.00000000   -0.00020595
     atom   22 type  1   force =    -0.00000022    0.00000022   -0.00020666
     atom   23 type  1   force =    -0.00000106    0.00000000    0.00025984
     atom   24 type  1   force =     0.00000000   -0.00000010    0.00025881
     atom   25 type  1   force =     0.00000000    0.00000000   -0.00024701
     atom   26 type  1   force =     0.00000070    0.00000070   -0.00024381
     atom   27 type  1   force =     0.00000320    0.00000000    0.00019031
     atom   28 type  1   force =     0.00000000    0.00000320    0.00019031
     atom   29 type  1   force =     0.00000000    0.00000000   -0.00020489
     atom   30 type  1   force =    -0.00000022   -0.00000022   -0.00020666
     atom   31 type  1   force =     0.00000010    0.00000000    0.00025881
     atom   32 type  1   force =     0.00000000    0.00000010    0.00025881

     Total force =     0.001284     Total SCF correction =     0.000195
     SCF correction compared to forces is large: reduce conv_thr to get better values


     Computing stress (Cartesian axis) and pressure

          total   stress  (Ry/bohr**3)                   (kbar)     P=     -167.52
  -0.00073813   0.00000000   0.00000000         -108.58        0.00        0.00
   0.00000000  -0.00073813   0.00000000            0.00     -108.58        0.00
   0.00000000   0.00000000  -0.00194005            0.00        0.00     -285.39

     Energy error            =      1.4E-05
     Gradient error          =      2.6E-04

     bfgs converged in  11 scf cycles and  10 bfgs steps
     (criteria: energy <  1.0E-04 Ry, force <  1.0E-03 Ry/Bohr)

     End of BFGS Geometry Optimization

     Final energy   =  -13812.1741959143 Ry

     File /scratch/RabKNegDmVvRMVYm.bfgs deleted, as requested
Begin final coordinates

ATOMIC_POSITIONS (crystal)
Ru            0.0000000000        0.0000000000        0.0188194195
Ru            0.2500001863        0.2500001863        0.0188189486
Ru            0.2500002648        0.0000000000        0.2191772257
Ru            0.0000000000        0.2500002648        0.2191772257
Ru            0.0000000000        0.0000000000        0.5724917854
Ru            0.2499996775        0.2499996775        0.5724916685
Ru            0.2499997323        0.0000000000        0.7728449867
Ru            0.0000000000        0.2499997323        0.7728449867
Ru            0.0000000000        0.5000000000        0.0188185728
Ru            0.2500001863        0.7499998137        0.0188189486
Ru            0.2500005252        0.5000000000        0.2191774408
Ru            0.0000000000        0.7499997352        0.2191772257
Ru            0.0000000000        0.5000000000        0.5724915412
Ru            0.2499996775        0.7500003225        0.5724916685
Ru            0.2499998553        0.5000000000        0.7728457837
Ru            0.0000000000        0.7500002677        0.7728449867
Ru            0.5000000000        0.0000000000        0.0188185728
Ru            0.7499998137        0.2500001863        0.0188189486
Ru            0.7499997352        0.0000000000        0.2191772257
Ru            0.5000000000        0.2500005252        0.2191774408
Ru            0.5000000000        0.0000000000        0.5724915412
Ru            0.7500003225        0.2499996775        0.5724916685
Ru            0.7500002677        0.0000000000        0.7728449867
Ru            0.5000000000        0.2499998553        0.7728457837
Ru            0.5000000000        0.5000000000        0.0188193066
Ru            0.7499998137        0.7499998137        0.0188189486
Ru            0.7499994748        0.5000000000        0.2191774408
Ru            0.5000000000        0.7499994748        0.2191774408
Ru            0.5000000000        0.5000000000        0.5724917114
Ru            0.7500003225        0.7500003225        0.5724916685
Ru            0.7500001447        0.5000000000        0.7728457837
Ru            0.5000000000        0.7500001447        0.7728457837
End final coordinates



     Writing output data file /scratch/RabKNegDmVvRMVYm.save/
 
     init_run     :     26.42s CPU     27.13s WALL (       1 calls)
     electrons    :  11688.58s CPU  11844.20s WALL (      11 calls)
     update_pot   :      2.28s CPU      2.38s WALL (      10 calls)
     forces       :    141.44s CPU    142.54s WALL (      11 calls)
     stress       :    990.52s CPU    997.47s WALL (      11 calls)

     Called by init_run:
     wfcinit      :     25.76s CPU     26.29s WALL (       1 calls)
     potinit      :      0.15s CPU      0.17s WALL (       1 calls)
     hinit0       :      0.09s CPU      0.18s WALL (       1 calls)

     Called by electrons:
     c_bands      :  10420.79s CPU  10553.05s WALL (     139 calls)
     sum_band     :   1246.68s CPU   1267.07s WALL (     139 calls)
     v_of_rho     :      2.03s CPU      2.11s WALL (     149 calls)
     newd         :      4.51s CPU      6.26s WALL (     149 calls)
     PAW_pot      :     13.82s CPU     14.56s WALL (     159 calls)
     mix_rho      :      1.18s CPU      1.25s WALL (     139 calls)

     Called by c_bands:
     init_us_2    :     53.23s CPU     53.94s WALL (   23325 calls)
     cegterg      :  10228.72s CPU  10357.32s WALL (   10425 calls)

     Called by *egterg:
     cdiaghg      :   1022.88s CPU   1033.32s WALL (   35614 calls)
     h_psi        :   5364.12s CPU   5448.08s WALL (   36514 calls)
     s_psi        :    440.33s CPU    443.24s WALL (   36514 calls)
     g_psi        :     12.23s CPU     12.43s WALL (   26014 calls)

     Called by h_psi:
     h_psi:calbec :    794.67s CPU    800.56s WALL (   36514 calls)
     vloc_psi     :   4113.03s CPU   4183.98s WALL (   36514 calls)
     add_vuspsi   :    425.71s CPU    432.56s WALL (   36514 calls)

     General routines
     calbec       :   1374.74s CPU   1384.88s WALL (   51814 calls)
     fft          :      4.26s CPU      4.36s WALL (    2201 calls)
     ffts         :      0.26s CPU      0.27s WALL (     288 calls)
     fftw         :   4805.95s CPU   4888.33s WALL (19471715 calls)
     interpolate  :      0.94s CPU      0.95s WALL (     149 calls)
 
     Parallel routines
     fft_scatt_xy :    334.69s CPU    339.86s WALL (19474204 calls)
     fft_scatt_yz :   3895.71s CPU   3964.80s WALL (19474204 calls)
 
     PWSCF        :      3h34m CPU      3h37m WALL

 
   This run was terminated on:  20:25:17   1Dec2021            

=------------------------------------------------------------------------------=
   JOB DONE.
=------------------------------------------------------------------------------=
