
     Program PWSCF v.6.7MaX starts on  2Dec2021 at  9:14:56 

     This program is part of the open-source Quantum ESPRESSO suite
     for quantum simulation of materials; please cite
         "P. Giannozzi et al., J. Phys.:Condens. Matter 21 395502 (2009);
         "P. Giannozzi et al., J. Phys.:Condens. Matter 29 465901 (2017);
          URL http://www.quantum-espresso.org", 
     in publications or presentations arising from this work. More details at
     http://www.quantum-espresso.org/quote

     Parallel version (MPI & OpenMP), running on      72 processor cores
     Number of MPI processes:                72
     Threads/MPI process:                     1

     MPI processes distributed on     1 nodes
     R & G space division:  proc/nbgrp/npool/nimage =      72
     Reading input from relax_10.in
Warning: card &CELL ignored
Warning: card CELL_DYNAMICS = 'BFGS', ignored
Warning: card CELL_FACTOR = 2.0, ignored
Warning: card PRESS = 0.0, ignored
Warning: card / ignored

     Current dimensions of program PWSCF are:
     Max number of different atomic species (ntypx) = 10
     Max number of k-points (npk) =  40000
     Max angular momentum in pseudopotentials (lmaxx) =  3
     file Ru.pbe-spn-kjpaw_psl.1.0.0.UPF: wavefunction(s)  4D renormalized

     Subspace diagonalization in iterative solution of the eigenvalue problem:
     one sub-group per band group will be used
     ELPA distributed-memory algorithm (size of sub-group:  8*  8 procs)

     Found symmetry operation: I + (  0.2500  0.2500  0.0000)
     This is a supercell, fractional translations are disabled
     Message from routine setup:
     using ibrav=0 with symmetry is DISCOURAGED, use correct ibrav instead
 
     Parallelization info
     --------------------
     sticks:   dense  smooth     PW     G-vecs:    dense   smooth      PW
     Min          98      65     17                 9056     4858     681
     Max          99      67     18                 9063     4865     690
     Sum        7113    4693   1265               652185   350045   49323
 


     bravais-lattice index     =            0
     lattice parameter (alat)  =      14.4007  a.u.
     unit-cell volume          =    4330.3458 (a.u.)^3
     number of atoms/cell      =           32
     number of atomic types    =            1
     number of electrons       =       512.00
     number of Kohn-Sham states=          307
     kinetic-energy cutoff     =      71.0000  Ry
     charge density cutoff     =     430.0000  Ry
     scf convergence threshold =      1.0E-06
     mixing beta               =       0.1000
     number of iterations used =           10  TF        mixing
     energy convergence thresh.=      1.0E-04
     force convergence thresh. =      1.0E-03
     Exchange-correlation= SLA  PW   PBX  PBC
                           (   1   4   3   4   0   0   0)
     nstep                     =           40


     celldm(1)=  14.400742  celldm(2)=   0.000000  celldm(3)=   0.000000
     celldm(4)=   0.000000  celldm(5)=   0.000000  celldm(6)=   0.000000

     crystal axes: (cart. coord. in units of alat)
               a(1) = (   1.000000   0.000000   0.000000 )  
               a(2) = (   0.000000   1.000000   0.000000 )  
               a(3) = (   0.000000   0.000000   1.450000 )  

     reciprocal axes: (cart. coord. in units 2 pi/alat)
               b(1) = (  1.000000  0.000000  0.000000 )  
               b(2) = (  0.000000  1.000000  0.000000 )  
               b(3) = (  0.000000  0.000000  0.689655 )  


     PseudoPot. # 1 for Ru read from file:
     /rds/homes/b/bxp912/pp/Ru.pbe-spn-kjpaw_psl.1.0.0.UPF
     MD5 check sum: 0ae1f594dea09af7be8575c3a481d1ae
     Pseudo is Projector augmented-wave + core cor, Zval = 16.0
     Generated using "atomic" code by A. Dal Corso  v.5.1
     Shape of augmentation charge: PSQ
     Using radial grid of 1233 points,  6 beta functions with: 
                l(1) =   0
                l(2) =   0
                l(3) =   1
                l(4) =   1
                l(5) =   2
                l(6) =   2
     Q(r) pseudized with 0 coefficients 


     atomic species   valence    mass     pseudopotential
        Ru            16.00   101.07000     Ru( 1.00)

      8 Sym. Ops. (no inversion) found



   Cartesian axes

     site n.     atom                  positions (alat units)
         1           Ru  tau(   1) = (   0.0000000   0.0000000   0.0000000  )
         2           Ru  tau(   2) = (   0.2500000   0.2500000   0.0000000  )
         3           Ru  tau(   3) = (   0.2500000   0.0000000   0.2500000  )
         4           Ru  tau(   4) = (   0.0000000   0.2500000   0.2500000  )
         5           Ru  tau(   5) = (   0.0000000   0.0000000   0.9500000  )
         6           Ru  tau(   6) = (   0.2500000   0.2500000   0.9500000  )
         7           Ru  tau(   7) = (   0.2500000   0.0000000   1.2000000  )
         8           Ru  tau(   8) = (   0.0000000   0.2500000   1.2000000  )
         9           Ru  tau(   9) = (   0.0000000   0.5000000   0.0000000  )
        10           Ru  tau(  10) = (   0.2500000   0.7500000   0.0000000  )
        11           Ru  tau(  11) = (   0.2500000   0.5000000   0.2500000  )
        12           Ru  tau(  12) = (   0.0000000   0.7500000   0.2500000  )
        13           Ru  tau(  13) = (   0.0000000   0.5000000   0.9500000  )
        14           Ru  tau(  14) = (   0.2500000   0.7500000   0.9500000  )
        15           Ru  tau(  15) = (   0.2500000   0.5000000   1.2000000  )
        16           Ru  tau(  16) = (   0.0000000   0.7500000   1.2000000  )
        17           Ru  tau(  17) = (   0.5000000   0.0000000   0.0000000  )
        18           Ru  tau(  18) = (   0.7500000   0.2500000   0.0000000  )
        19           Ru  tau(  19) = (   0.7500000   0.0000000   0.2500000  )
        20           Ru  tau(  20) = (   0.5000000   0.2500000   0.2500000  )
        21           Ru  tau(  21) = (   0.5000000   0.0000000   0.9500000  )
        22           Ru  tau(  22) = (   0.7500000   0.2500000   0.9500000  )
        23           Ru  tau(  23) = (   0.7500000   0.0000000   1.2000000  )
        24           Ru  tau(  24) = (   0.5000000   0.2500000   1.2000000  )
        25           Ru  tau(  25) = (   0.5000000   0.5000000   0.0000000  )
        26           Ru  tau(  26) = (   0.7500000   0.7500000   0.0000000  )
        27           Ru  tau(  27) = (   0.7500000   0.5000000   0.2500000  )
        28           Ru  tau(  28) = (   0.5000000   0.7500000   0.2500000  )
        29           Ru  tau(  29) = (   0.5000000   0.5000000   0.9500000  )
        30           Ru  tau(  30) = (   0.7500000   0.7500000   0.9500000  )
        31           Ru  tau(  31) = (   0.7500000   0.5000000   1.2000000  )
        32           Ru  tau(  32) = (   0.5000000   0.7500000   1.2000000  )

     number of k points=    75  Marzari-Vanderbilt smearing, width (Ry)=  0.0400
                       cart. coord. in units 2pi/alat
        k(    1) = (   0.0555556   0.0555556   0.0383142), wk =   0.0219479
        k(    2) = (   0.0555556   0.0555556   0.1149425), wk =   0.0219479
        k(    3) = (   0.0555556   0.0555556   0.1915709), wk =   0.0219479
        k(    4) = (   0.0555556   0.0555556   0.2681992), wk =   0.0219479
        k(    5) = (   0.0555556   0.0555556  -0.3448276), wk =   0.0109739
        k(    6) = (   0.0555556   0.1666667   0.0383142), wk =   0.0438957
        k(    7) = (   0.0555556   0.1666667   0.1149425), wk =   0.0438957
        k(    8) = (   0.0555556   0.1666667   0.1915709), wk =   0.0438957
        k(    9) = (   0.0555556   0.1666667   0.2681992), wk =   0.0438957
        k(   10) = (   0.0555556   0.1666667  -0.3448276), wk =   0.0219479
        k(   11) = (   0.0555556   0.2777778   0.0383142), wk =   0.0438957
        k(   12) = (   0.0555556   0.2777778   0.1149425), wk =   0.0438957
        k(   13) = (   0.0555556   0.2777778   0.1915709), wk =   0.0438957
        k(   14) = (   0.0555556   0.2777778   0.2681992), wk =   0.0438957
        k(   15) = (   0.0555556   0.2777778  -0.3448276), wk =   0.0219479
        k(   16) = (   0.0555556   0.3888889   0.0383142), wk =   0.0438957
        k(   17) = (   0.0555556   0.3888889   0.1149425), wk =   0.0438957
        k(   18) = (   0.0555556   0.3888889   0.1915709), wk =   0.0438957
        k(   19) = (   0.0555556   0.3888889   0.2681992), wk =   0.0438957
        k(   20) = (   0.0555556   0.3888889  -0.3448276), wk =   0.0219479
        k(   21) = (   0.0555556  -0.5000000   0.0383142), wk =   0.0219479
        k(   22) = (   0.0555556  -0.5000000   0.1149425), wk =   0.0219479
        k(   23) = (   0.0555556  -0.5000000   0.1915709), wk =   0.0219479
        k(   24) = (   0.0555556  -0.5000000   0.2681992), wk =   0.0219479
        k(   25) = (   0.0555556  -0.5000000  -0.3448276), wk =   0.0109739
        k(   26) = (   0.1666667   0.1666667   0.0383142), wk =   0.0219479
        k(   27) = (   0.1666667   0.1666667   0.1149425), wk =   0.0219479
        k(   28) = (   0.1666667   0.1666667   0.1915709), wk =   0.0219479
        k(   29) = (   0.1666667   0.1666667   0.2681992), wk =   0.0219479
        k(   30) = (   0.1666667   0.1666667  -0.3448276), wk =   0.0109739
        k(   31) = (   0.1666667   0.2777778   0.0383142), wk =   0.0438957
        k(   32) = (   0.1666667   0.2777778   0.1149425), wk =   0.0438957
        k(   33) = (   0.1666667   0.2777778   0.1915709), wk =   0.0438957
        k(   34) = (   0.1666667   0.2777778   0.2681992), wk =   0.0438957
        k(   35) = (   0.1666667   0.2777778  -0.3448276), wk =   0.0219479
        k(   36) = (   0.1666667   0.3888889   0.0383142), wk =   0.0438957
        k(   37) = (   0.1666667   0.3888889   0.1149425), wk =   0.0438957
        k(   38) = (   0.1666667   0.3888889   0.1915709), wk =   0.0438957
        k(   39) = (   0.1666667   0.3888889   0.2681992), wk =   0.0438957
        k(   40) = (   0.1666667   0.3888889  -0.3448276), wk =   0.0219479
        k(   41) = (   0.1666667  -0.5000000   0.0383142), wk =   0.0219479
        k(   42) = (   0.1666667  -0.5000000   0.1149425), wk =   0.0219479
        k(   43) = (   0.1666667  -0.5000000   0.1915709), wk =   0.0219479
        k(   44) = (   0.1666667  -0.5000000   0.2681992), wk =   0.0219479
        k(   45) = (   0.1666667  -0.5000000  -0.3448276), wk =   0.0109739
        k(   46) = (   0.2777778   0.2777778   0.0383142), wk =   0.0219479
        k(   47) = (   0.2777778   0.2777778   0.1149425), wk =   0.0219479
        k(   48) = (   0.2777778   0.2777778   0.1915709), wk =   0.0219479
        k(   49) = (   0.2777778   0.2777778   0.2681992), wk =   0.0219479
        k(   50) = (   0.2777778   0.2777778  -0.3448276), wk =   0.0109739
        k(   51) = (   0.2777778   0.3888889   0.0383142), wk =   0.0438957
        k(   52) = (   0.2777778   0.3888889   0.1149425), wk =   0.0438957
        k(   53) = (   0.2777778   0.3888889   0.1915709), wk =   0.0438957
        k(   54) = (   0.2777778   0.3888889   0.2681992), wk =   0.0438957
        k(   55) = (   0.2777778   0.3888889  -0.3448276), wk =   0.0219479
        k(   56) = (   0.2777778  -0.5000000   0.0383142), wk =   0.0219479
        k(   57) = (   0.2777778  -0.5000000   0.1149425), wk =   0.0219479
        k(   58) = (   0.2777778  -0.5000000   0.1915709), wk =   0.0219479
        k(   59) = (   0.2777778  -0.5000000   0.2681992), wk =   0.0219479
        k(   60) = (   0.2777778  -0.5000000  -0.3448276), wk =   0.0109739
        k(   61) = (   0.3888889   0.3888889   0.0383142), wk =   0.0219479
        k(   62) = (   0.3888889   0.3888889   0.1149425), wk =   0.0219479
        k(   63) = (   0.3888889   0.3888889   0.1915709), wk =   0.0219479
        k(   64) = (   0.3888889   0.3888889   0.2681992), wk =   0.0219479
        k(   65) = (   0.3888889   0.3888889  -0.3448276), wk =   0.0109739
        k(   66) = (   0.3888889  -0.5000000   0.0383142), wk =   0.0219479
        k(   67) = (   0.3888889  -0.5000000   0.1149425), wk =   0.0219479
        k(   68) = (   0.3888889  -0.5000000   0.1915709), wk =   0.0219479
        k(   69) = (   0.3888889  -0.5000000   0.2681992), wk =   0.0219479
        k(   70) = (   0.3888889  -0.5000000  -0.3448276), wk =   0.0109739
        k(   71) = (  -0.5000000  -0.5000000   0.0383142), wk =   0.0054870
        k(   72) = (  -0.5000000  -0.5000000   0.1149425), wk =   0.0054870
        k(   73) = (  -0.5000000  -0.5000000   0.1915709), wk =   0.0054870
        k(   74) = (  -0.5000000  -0.5000000   0.2681992), wk =   0.0054870
        k(   75) = (  -0.5000000  -0.5000000  -0.3448276), wk =   0.0027435

     Dense  grid:   652185 G-vectors     FFT dimensions: (  96,  96, 144)

     Smooth grid:   350045 G-vectors     FFT dimensions: (  80,  80, 120)

     Estimated max dynamical RAM per process >     267.55 MB

     Estimated total dynamical RAM >      18.81 GB

     Check: negative core charge=   -0.000002

     Initial potential from superposition of free atoms

     starting charge  511.97959, renormalised to  512.00000
     Starting wfcs are  320 randomized atomic wfcs
     Checking if some PAW data can be deallocated... 

     total cpu time spent up to now is       45.7 secs

     Self-consistent Calculation

     iteration #  1     ecut=    71.00 Ry     beta= 0.10
     Davidson diagonalization with overlap
     ethr =  1.00E-02,  avg # of iterations =  3.6

     total cpu time spent up to now is      156.7 secs

     total energy              =  -13812.51595135 Ry
     estimated scf accuracy    <      11.75957317 Ry

     iteration #  2     ecut=    71.00 Ry     beta= 0.10
     Davidson diagonalization with overlap
     ethr =  2.30E-03,  avg # of iterations =  1.2

     total cpu time spent up to now is      233.0 secs

     total energy              =  -13812.21481512 Ry
     estimated scf accuracy    <       8.56653512 Ry

     iteration #  3     ecut=    71.00 Ry     beta= 0.10
     Davidson diagonalization with overlap
     ethr =  1.67E-03,  avg # of iterations =  1.4

     total cpu time spent up to now is      304.0 secs

     total energy              =  -13811.89416912 Ry
     estimated scf accuracy    <       3.28359331 Ry

     iteration #  4     ecut=    71.00 Ry     beta= 0.10
     Davidson diagonalization with overlap
     ethr =  6.41E-04,  avg # of iterations =  2.6

     total cpu time spent up to now is      386.7 secs

     total energy              =  -13811.54146217 Ry
     estimated scf accuracy    <       1.76075898 Ry

     iteration #  5     ecut=    71.00 Ry     beta= 0.10
     Davidson diagonalization with overlap
     ethr =  3.44E-04,  avg # of iterations =  3.3

     total cpu time spent up to now is      480.7 secs

     total energy              =  -13811.63584324 Ry
     estimated scf accuracy    <       0.53125400 Ry

     iteration #  6     ecut=    71.00 Ry     beta= 0.10
     Davidson diagonalization with overlap
     ethr =  1.04E-04,  avg # of iterations =  3.1

     total cpu time spent up to now is      586.8 secs

     total energy              =  -13811.82165457 Ry
     estimated scf accuracy    <       0.82351572 Ry

     iteration #  7     ecut=    71.00 Ry     beta= 0.10
     Davidson diagonalization with overlap
     ethr =  1.04E-04,  avg # of iterations =  1.0

     total cpu time spent up to now is      653.7 secs

     total energy              =  -13811.77479008 Ry
     estimated scf accuracy    <       0.97444904 Ry

     iteration #  8     ecut=    71.00 Ry     beta= 0.10
     Davidson diagonalization with overlap
     ethr =  1.04E-04,  avg # of iterations =  1.0

     total cpu time spent up to now is      722.5 secs

     total energy              =  -13811.72363762 Ry
     estimated scf accuracy    <       0.66982562 Ry

     iteration #  9     ecut=    71.00 Ry     beta= 0.10
     Davidson diagonalization with overlap
     ethr =  1.04E-04,  avg # of iterations =  1.7

     total cpu time spent up to now is      791.1 secs

     total energy              =  -13811.66364537 Ry
     estimated scf accuracy    <       0.44368873 Ry

     iteration # 10     ecut=    71.00 Ry     beta= 0.10
     Davidson diagonalization with overlap
     ethr =  8.67E-05,  avg # of iterations =  2.6

     total cpu time spent up to now is      869.4 secs

     total energy              =  -13811.66366651 Ry
     estimated scf accuracy    <       0.12413407 Ry

     iteration # 11     ecut=    71.00 Ry     beta= 0.10
     Davidson diagonalization with overlap
     ethr =  2.42E-05,  avg # of iterations =  3.7

     total cpu time spent up to now is      952.4 secs

     total energy              =  -13811.65561637 Ry
     estimated scf accuracy    <       0.07620788 Ry

     iteration # 12     ecut=    71.00 Ry     beta= 0.10
     Davidson diagonalization with overlap
     ethr =  1.49E-05,  avg # of iterations =  3.5

     total cpu time spent up to now is     1046.4 secs

     total energy              =  -13811.66476541 Ry
     estimated scf accuracy    <       0.01102042 Ry

     iteration # 13     ecut=    71.00 Ry     beta= 0.10
     Davidson diagonalization with overlap
     ethr =  2.15E-06,  avg # of iterations =  6.6

     total cpu time spent up to now is     1147.1 secs

     total energy              =  -13811.66694409 Ry
     estimated scf accuracy    <       0.00286282 Ry

     iteration # 14     ecut=    71.00 Ry     beta= 0.10
     Davidson diagonalization with overlap
     ethr =  5.59E-07,  avg # of iterations =  2.3

     total cpu time spent up to now is     1225.4 secs

     total energy              =  -13811.66742558 Ry
     estimated scf accuracy    <       0.00355467 Ry

     iteration # 15     ecut=    71.00 Ry     beta= 0.10
     Davidson diagonalization with overlap
     ethr =  5.59E-07,  avg # of iterations =  3.1

     total cpu time spent up to now is     1327.1 secs

     total energy              =  -13811.66883010 Ry
     estimated scf accuracy    <       0.00046128 Ry

     iteration # 16     ecut=    71.00 Ry     beta= 0.10
     Davidson diagonalization with overlap
     ethr =  9.01E-08,  avg # of iterations =  4.3

     total cpu time spent up to now is     1425.1 secs

     total energy              =  -13811.66896611 Ry
     estimated scf accuracy    <       0.00035762 Ry

     iteration # 17     ecut=    71.00 Ry     beta= 0.10
     Davidson diagonalization with overlap
     ethr =  6.98E-08,  avg # of iterations =  2.0

     total cpu time spent up to now is     1503.9 secs

     total energy              =  -13811.66901206 Ry
     estimated scf accuracy    <       0.00014808 Ry

     iteration # 18     ecut=    71.00 Ry     beta= 0.10
     Davidson diagonalization with overlap
     ethr =  2.89E-08,  avg # of iterations =  4.9

     total cpu time spent up to now is     1624.3 secs

     total energy              =  -13811.66904956 Ry
     estimated scf accuracy    <       0.00023584 Ry

     iteration # 19     ecut=    71.00 Ry     beta= 0.10
     Davidson diagonalization with overlap
     ethr =  2.89E-08,  avg # of iterations =  2.3

     total cpu time spent up to now is     1710.9 secs

     total energy              =  -13811.66906198 Ry
     estimated scf accuracy    <       0.00003047 Ry

     iteration # 20     ecut=    71.00 Ry     beta= 0.10
     Davidson diagonalization with overlap
     ethr =  5.95E-09,  avg # of iterations =  3.8

     total cpu time spent up to now is     1800.6 secs

     total energy              =  -13811.66907911 Ry
     estimated scf accuracy    <       0.00000399 Ry

     iteration # 21     ecut=    71.00 Ry     beta= 0.10
     Davidson diagonalization with overlap
     ethr =  7.80E-10,  avg # of iterations =  4.0

     total cpu time spent up to now is     1902.1 secs

     total energy              =  -13811.66908420 Ry
     estimated scf accuracy    <       0.00000665 Ry

     iteration # 22     ecut=    71.00 Ry     beta= 0.10
     Davidson diagonalization with overlap
     ethr =  7.80E-10,  avg # of iterations =  4.1

     total cpu time spent up to now is     2003.2 secs

     total energy              =  -13811.66908817 Ry
     estimated scf accuracy    <       0.00000198 Ry

     iteration # 23     ecut=    71.00 Ry     beta= 0.10
     Davidson diagonalization with overlap
     ethr =  3.87E-10,  avg # of iterations =  3.4

     total cpu time spent up to now is     2091.7 secs

     End of self-consistent calculation

          k = 0.0556 0.0556 0.0383 ( 43752 PWs)   bands (ev):

   -58.5093 -58.4300 -58.4300 -58.4150 -58.4150 -58.4004 -58.3980 -58.3922
   -58.3922 -58.3882 -58.3696 -58.3696 -58.3642 -58.3642 -58.3381 -58.3381
   -57.9864 -57.9848 -57.9400 -57.9400 -57.9398 -57.9398 -57.9371 -57.9370
   -57.9363 -57.9363 -57.9310 -57.9310 -57.9308 -57.9308 -57.8824 -57.8823
   -28.8304 -28.8298 -28.8298 -28.8244 -28.7939 -28.7939 -28.7240 -28.6225
   -28.6225 -28.6208 -28.6208 -28.5758 -28.5758 -28.5489 -28.5489 -28.5334
   -28.5334 -28.5231 -28.5231 -28.4882 -28.4882 -28.4483 -28.4434 -28.4434
   -28.4350 -28.4147 -28.4147 -28.3866 -28.3866 -28.3403 -28.3230 -28.3230
   -28.3124 -28.3124 -28.2826 -28.2826 -28.2516 -28.2505 -28.1968 -28.1968
   -28.1870 -28.1870 -28.1456 -28.1456 -28.1201 -28.1201 -28.1079 -28.1046
   -28.1046 -28.0919 -28.0845 -28.0844 -28.0777 -28.0705 -28.0705 -28.0563
   -27.9581 -27.9581 -27.9540 -27.9540 -27.9271 -27.9271 -27.9178 -27.9178
   -27.9172 -27.9172 -27.9170 -27.9170 -27.8838 -27.8838 -27.8809 -27.8809
   -27.8713 -27.8356 -27.8334 -27.8334 -27.8309 -27.8309 -27.8259 -27.8218
   -27.8218 -27.8140 -27.8140 -27.8065 -27.8065 -27.8007 -27.8007 -27.7951
   -27.7000 -27.6968 -27.6936 -27.6892 -27.6698 -27.6698 -27.6662 -27.6662
     7.4228   8.6552   8.8027   8.8027   9.0773   9.0895   9.0952   9.0953
     9.0953   9.1323   9.3026   9.3026   9.5438   9.5438   9.6147   9.7228
     9.7228   9.9872   9.9872  10.0080  10.1627  10.1627  10.1973  10.1973
    10.3562  10.3562  10.3953  10.4111  10.4218  10.4218  10.4680  10.4680
    10.6880  10.6880  10.7252  10.7252  10.7486  10.7486  10.7983  10.7983
    10.9386  10.9386  11.0207  11.0207  11.0542  11.1569  11.1569  11.1663
    11.1663  11.4197  11.4197  11.4411  11.4594  11.4594  11.4640  11.4640
    11.5503  11.5503  11.6937  11.7300  11.7300  11.7705  11.8761  11.8932
    11.8932  11.9234  11.9710  11.9710  12.1011  12.1011  12.2038  12.2038
    12.2680  12.2680  12.2859  12.2941  12.4103  12.4294  12.5676  12.5826
    12.5826  12.6332  12.8754  12.8754  12.9519  12.9519  12.9698  12.9698
    13.1089  13.1089  13.1351  13.2201  13.2201  13.2418  13.2418  13.2571
    13.2571  13.3281  13.3460  13.3658  13.3955  13.3955  13.5456  13.5456
    13.5874  13.6292  13.6292  13.6570  13.6731  13.6731  13.8204  13.8204
    13.8804  13.8804  14.0031  14.0031  14.0111  14.0111  14.0482  14.1801
    14.1801  14.2166  14.2166  14.3150  14.3150  14.5781  14.5782  14.5819
    14.6356  14.6356  14.6820  14.8073  14.8633  14.8633  14.8749  14.8749
    14.8960  14.9240  14.9240  14.9557  14.9741  15.0381  15.0381  15.1029
    15.1316  15.1316  15.2666  15.3122  15.3122  15.6582  15.6582  15.7942
    15.7977  15.7977  15.8586  15.9247  15.9684  16.0922  16.1141  16.1141
    16.1181  16.1250  16.1250  16.1761  16.1761  16.2713  16.4331  16.6083
    16.6083  16.6378  16.6378  16.8077  16.8299  16.8299  17.0195  17.0195
    17.0425  17.6378  17.6378

          k = 0.0556 0.0556 0.1149 ( 43754 PWs)   bands (ev):

   -58.5093 -58.4300 -58.4300 -58.4150 -58.4150 -58.4004 -58.3979 -58.3922
   -58.3922 -58.3882 -58.3697 -58.3696 -58.3642 -58.3642 -58.3381 -58.3381
   -57.9864 -57.9847 -57.9400 -57.9400 -57.9398 -57.9398 -57.9371 -57.9370
   -57.9363 -57.9362 -57.9310 -57.9310 -57.9308 -57.9308 -57.8824 -57.8823
   -28.8304 -28.8298 -28.8297 -28.8244 -28.7939 -28.7939 -28.7240 -28.6226
   -28.6225 -28.6208 -28.6208 -28.5758 -28.5758 -28.5489 -28.5489 -28.5334
   -28.5334 -28.5231 -28.5231 -28.4882 -28.4882 -28.4483 -28.4434 -28.4434
   -28.4350 -28.4147 -28.4147 -28.3866 -28.3866 -28.3403 -28.3230 -28.3230
   -28.3125 -28.3125 -28.2826 -28.2826 -28.2516 -28.2505 -28.1969 -28.1969
   -28.1870 -28.1870 -28.1456 -28.1456 -28.1201 -28.1201 -28.1079 -28.1046
   -28.1046 -28.0919 -28.0845 -28.0844 -28.0777 -28.0705 -28.0705 -28.0563
   -27.9581 -27.9581 -27.9540 -27.9540 -27.9271 -27.9271 -27.9178 -27.9178
   -27.9172 -27.9172 -27.9170 -27.9170 -27.8838 -27.8838 -27.8809 -27.8809
   -27.8713 -27.8356 -27.8334 -27.8334 -27.8309 -27.8309 -27.8259 -27.8218
   -27.8218 -27.8140 -27.8140 -27.8065 -27.8065 -27.8007 -27.8007 -27.7951
   -27.7000 -27.6968 -27.6936 -27.6892 -27.6698 -27.6698 -27.6662 -27.6662
     7.4243   8.6544   8.8028   8.8028   9.0775   9.0897   9.0952   9.0956
     9.0956   9.1263   9.3027   9.3027   9.5444   9.5444   9.6173   9.7233
     9.7233   9.9870   9.9870  10.0079  10.1626  10.1626  10.1972  10.1972
    10.3562  10.3562  10.3940  10.4101  10.4206  10.4206  10.4674  10.4674
    10.6882  10.6882  10.7248  10.7248  10.7484  10.7484  10.7977  10.7977
    10.9395  10.9395  11.0205  11.0205  11.0542  11.1569  11.1569  11.1663
    11.1663  11.4194  11.4194  11.4402  11.4594  11.4594  11.4638  11.4638
    11.5498  11.5498  11.6935  11.7259  11.7259  11.7704  11.8755  11.8929
    11.8929  11.9231  11.9644  11.9644  12.1072  12.1072  12.2118  12.2118
    12.2686  12.2686  12.2859  12.2942  12.4099  12.4295  12.5759  12.5884
    12.5884  12.6388  12.8774  12.8774  12.9518  12.9518  12.9690  12.9690
    13.0916  13.0916  13.1206  13.2187  13.2187  13.2392  13.2392  13.2431
    13.2431  13.3460  13.3658  13.3677  13.3957  13.3957  13.5616  13.5616
    13.5872  13.6298  13.6298  13.6897  13.6897  13.6922  13.8213  13.8213
    13.8885  13.8885  14.0037  14.0037  14.0108  14.0108  14.0482  14.1717
    14.1717  14.2078  14.2078  14.3209  14.3209  14.5795  14.5795  14.5818
    14.6222  14.6222  14.6694  14.7827  14.8640  14.8640  14.8961  14.8995
    14.8995  14.9246  14.9246  14.9313  14.9743  15.0616  15.0616  15.1030
    15.1281  15.1281  15.2666  15.3084  15.3084  15.6567  15.6567  15.7565
    15.7942  15.8001  15.8001  15.8585  15.9247  16.0922  16.1104  16.1104
    16.1133  16.1133  16.1197  16.1249  16.1249  16.2711  16.4516  16.5746
    16.5746  16.6084  16.6084  16.8511  16.8560  16.8560  17.0196  17.0196
    17.2701  17.7354  17.8047

          k = 0.0556 0.0556 0.1916 ( 43787 PWs)   bands (ev):

   -58.5093 -58.4300 -58.4300 -58.4150 -58.4150 -58.4004 -58.3980 -58.3922
   -58.3922 -58.3882 -58.3697 -58.3697 -58.3642 -58.3642 -58.3381 -58.3380
   -57.9864 -57.9847 -57.9401 -57.9401 -57.9398 -57.9398 -57.9371 -57.9370
   -57.9363 -57.9362 -57.9310 -57.9310 -57.9308 -57.9308 -57.8823 -57.8823
   -28.8304 -28.8298 -28.8297 -28.8244 -28.7939 -28.7939 -28.7241 -28.6226
   -28.6226 -28.6209 -28.6209 -28.5758 -28.5758 -28.5489 -28.5489 -28.5333
   -28.5333 -28.5231 -28.5231 -28.4883 -28.4883 -28.4483 -28.4434 -28.4434
   -28.4350 -28.4148 -28.4148 -28.3866 -28.3866 -28.3404 -28.3230 -28.3230
   -28.3124 -28.3124 -28.2826 -28.2826 -28.2516 -28.2505 -28.1969 -28.1969
   -28.1870 -28.1870 -28.1456 -28.1456 -28.1200 -28.1200 -28.1079 -28.1046
   -28.1046 -28.0919 -28.0845 -28.0844 -28.0777 -28.0705 -28.0705 -28.0563
   -27.9581 -27.9581 -27.9540 -27.9540 -27.9271 -27.9271 -27.9178 -27.9178
   -27.9173 -27.9173 -27.9170 -27.9170 -27.8838 -27.8838 -27.8809 -27.8809
   -27.8713 -27.8356 -27.8333 -27.8333 -27.8309 -27.8309 -27.8259 -27.8218
   -27.8218 -27.8140 -27.8140 -27.8065 -27.8065 -27.8007 -27.8007 -27.7951
   -27.7000 -27.6968 -27.6936 -27.6892 -27.6698 -27.6698 -27.6662 -27.6662
     7.4265   8.6532   8.8029   8.8029   9.0780   9.0901   9.0952   9.0960
     9.0960   9.1172   9.3029   9.3029   9.5453   9.5453   9.6210   9.7240
     9.7240   9.9866   9.9867  10.0079  10.1625  10.1625  10.1971  10.1971
    10.3560  10.3560  10.3919  10.4087  10.4187  10.4188  10.4664  10.4664
    10.6884  10.6884  10.7243  10.7243  10.7479  10.7479  10.7967  10.7967
    10.9410  10.9410  11.0201  11.0201  11.0543  11.1568  11.1568  11.1664
    11.1664  11.4189  11.4189  11.4388  11.4594  11.4594  11.4636  11.4636
    11.5489  11.5489  11.6933  11.7198  11.7198  11.7704  11.8746  11.8924
    11.8924  11.9227  11.9549  11.9549  12.1165  12.1165  12.2234  12.2234
    12.2694  12.2694  12.2859  12.2942  12.4093  12.4295  12.5887  12.5975
    12.5975  12.6474  12.8804  12.8804  12.9514  12.9514  12.9677  12.9677
    13.0677  13.0677  13.1061  13.2127  13.2127  13.2182  13.2182  13.2447
    13.2447  13.3459  13.3658  13.3961  13.3961  13.4116  13.5832  13.5832
    13.5870  13.6305  13.6305  13.7130  13.7130  13.7710  13.8226  13.8226
    13.9022  13.9022  14.0051  14.0051  14.0103  14.0103  14.0481  14.1599
    14.1599  14.1935  14.1935  14.3287  14.3287  14.5815  14.5815  14.5818
    14.6016  14.6016  14.6506  14.7459  14.8652  14.8652  14.8694  14.8962
    14.9256  14.9256  14.9405  14.9405  14.9746  15.1002  15.1002  15.1030
    15.1232  15.1232  15.2668  15.3027  15.3027  15.5240  15.6544  15.6544
    15.7941  15.8036  15.8036  15.8585  15.9247  16.0149  16.0149  16.0922
    16.1122  16.1122  16.1197  16.1234  16.1234  16.2708  16.4799  16.4820
    16.4820  16.6085  16.6085  16.8969  16.8969  16.9183  17.0197  17.0197
    17.5424  17.7938  17.8933

          k = 0.0556 0.0556 0.2682 ( 43778 PWs)   bands (ev):

   -58.5093 -58.4300 -58.4300 -58.4150 -58.4150 -58.4004 -58.3980 -58.3922
   -58.3922 -58.3882 -58.3697 -58.3697 -58.3642 -58.3642 -58.3380 -58.3380
   -57.9864 -57.9848 -57.9401 -57.9400 -57.9398 -57.9398 -57.9371 -57.9370
   -57.9363 -57.9363 -57.9310 -57.9310 -57.9308 -57.9308 -57.8823 -57.8823
   -28.8304 -28.8297 -28.8297 -28.8244 -28.7939 -28.7939 -28.7241 -28.6226
   -28.6226 -28.6208 -28.6208 -28.5758 -28.5758 -28.5489 -28.5489 -28.5333
   -28.5333 -28.5231 -28.5231 -28.4883 -28.4883 -28.4483 -28.4434 -28.4434
   -28.4350 -28.4148 -28.4148 -28.3866 -28.3866 -28.3404 -28.3230 -28.3230
   -28.3124 -28.3124 -28.2826 -28.2826 -28.2516 -28.2505 -28.1969 -28.1969
   -28.1870 -28.1870 -28.1456 -28.1456 -28.1200 -28.1200 -28.1079 -28.1046
   -28.1046 -28.0919 -28.0845 -28.0844 -28.0777 -28.0705 -28.0705 -28.0563
   -27.9581 -27.9581 -27.9540 -27.9540 -27.9271 -27.9271 -27.9178 -27.9178
   -27.9172 -27.9172 -27.9170 -27.9170 -27.8838 -27.8838 -27.8809 -27.8809
   -27.8713 -27.8357 -27.8333 -27.8333 -27.8310 -27.8309 -27.8259 -27.8218
   -27.8218 -27.8140 -27.8140 -27.8065 -27.8065 -27.8007 -27.8007 -27.7951
   -27.7000 -27.6968 -27.6936 -27.6892 -27.6698 -27.6698 -27.6662 -27.6662
     7.4284   8.6520   8.8030   8.8030   9.0784   9.0904   9.0951   9.0964
     9.0964   9.1095   9.3030   9.3030   9.5461   9.5461   9.6241   9.7247
     9.7247   9.9863   9.9864  10.0079  10.1624  10.1624  10.1970  10.1970
    10.3559  10.3559  10.3902  10.4074  10.4171  10.4171  10.4655  10.4655
    10.6887  10.6887  10.7239  10.7239  10.7475  10.7475  10.7958  10.7958
    10.9423  10.9423  11.0197  11.0197  11.0544  11.1568  11.1568  11.1664
    11.1664  11.4185  11.4185  11.4376  11.4593  11.4593  11.4634  11.4634
    11.5482  11.5482  11.6931  11.7147  11.7147  11.7703  11.8738  11.8920
    11.8920  11.9224  11.9471  11.9471  12.1246  12.1246  12.2332  12.2332
    12.2700  12.2700  12.2859  12.2942  12.4088  12.4295  12.6001  12.6056
    12.6056  12.6550  12.8831  12.8831  12.9507  12.9507  12.9664  12.9664
    13.0490  13.0490  13.0972  13.1930  13.1930  13.2160  13.2160  13.2461
    13.2461  13.3459  13.3657  13.3964  13.3965  13.4376  13.5868  13.5999
    13.5999  13.6307  13.6307  13.7318  13.7318  13.8238  13.8238  13.8756
    13.9156  13.9156  14.0070  14.0070  14.0098  14.0098  14.0482  14.1503
    14.1503  14.1797  14.1797  14.3345  14.3345  14.5818  14.5832  14.5832
    14.5835  14.5835  14.6343  14.7143  14.7691  14.8661  14.8661  14.8963
    14.9264  14.9264  14.9749  14.9811  14.9811  15.1031  15.1193  15.1193
    15.1373  15.1373  15.2669  15.2976  15.2976  15.3770  15.6524  15.6524
    15.7941  15.8063  15.8063  15.8584  15.9246  15.9313  15.9313  16.0922
    16.1111  16.1111  16.1195  16.1224  16.1224  16.2705  16.4030  16.4030
    16.5051  16.6086  16.6086  16.9339  16.9339  16.9786  17.0198  17.0198
    17.7490  17.7849  18.0519

          k = 0.0556 0.0556-0.3448 ( 43762 PWs)   bands (ev):

   -58.5093 -58.4300 -58.4300 -58.4150 -58.4150 -58.4004 -58.3980 -58.3922
   -58.3922 -58.3882 -58.3697 -58.3697 -58.3642 -58.3642 -58.3380 -58.3380
   -57.9864 -57.9847 -57.9401 -57.9400 -57.9398 -57.9398 -57.9371 -57.9370
   -57.9363 -57.9363 -57.9310 -57.9310 -57.9308 -57.9308 -57.8823 -57.8823
   -28.8304 -28.8298 -28.8298 -28.8244 -28.7939 -28.7939 -28.7240 -28.6226
   -28.6226 -28.6208 -28.6208 -28.5758 -28.5758 -28.5490 -28.5490 -28.5333
   -28.5333 -28.5231 -28.5231 -28.4883 -28.4883 -28.4483 -28.4434 -28.4434
   -28.4350 -28.4147 -28.4147 -28.3866 -28.3866 -28.3403 -28.3230 -28.3230
   -28.3124 -28.3124 -28.2826 -28.2826 -28.2515 -28.2505 -28.1969 -28.1969
   -28.1870 -28.1870 -28.1455 -28.1455 -28.1200 -28.1200 -28.1079 -28.1046
   -28.1046 -28.0919 -28.0845 -28.0844 -28.0777 -28.0705 -28.0705 -28.0563
   -27.9581 -27.9581 -27.9540 -27.9540 -27.9271 -27.9271 -27.9178 -27.9178
   -27.9173 -27.9172 -27.9170 -27.9170 -27.8838 -27.8838 -27.8809 -27.8809
   -27.8713 -27.8357 -27.8333 -27.8333 -27.8310 -27.8310 -27.8259 -27.8218
   -27.8218 -27.8140 -27.8140 -27.8065 -27.8065 -27.8007 -27.8007 -27.7949
   -27.7000 -27.6968 -27.6936 -27.6892 -27.6698 -27.6698 -27.6662 -27.6662
     7.4292   8.6515   8.8031   8.8031   9.0785   9.0905   9.0951   9.0965
     9.0965   9.1065   9.3031   9.3031   9.5464   9.5464   9.6253   9.7250
     9.7250   9.9862   9.9862  10.0078  10.1624  10.1624  10.1970  10.1970
    10.3559  10.3559  10.3895  10.4068  10.4165  10.4165  10.4651  10.4651
    10.6888  10.6888  10.7237  10.7237  10.7474  10.7474  10.7954  10.7954
    10.9428  10.9428  11.0196  11.0196  11.0544  11.1568  11.1568  11.1664
    11.1664  11.4183  11.4183  11.4371  11.4593  11.4593  11.4633  11.4633
    11.5479  11.5479  11.6930  11.7127  11.7127  11.7703  11.8735  11.8918
    11.8918  11.9222  11.9441  11.9441  12.1278  12.1278  12.2370  12.2370
    12.2703  12.2703  12.2859  12.2942  12.4086  12.4296  12.6046  12.6088
    12.6088  12.6580  12.8842  12.8842  12.9503  12.9503  12.9658  12.9658
    13.0421  13.0421  13.0943  13.1853  13.1853  13.2154  13.2154  13.2465
    13.2465  13.3459  13.3657  13.3966  13.3966  13.4454  13.5868  13.6062
    13.6062  13.6305  13.6305  13.7390  13.7390  13.8242  13.8242  13.9212
    13.9212  13.9313  14.0081  14.0081  14.0097  14.0097  14.0484  14.1467
    14.1467  14.1739  14.1739  14.3366  14.3366  14.5764  14.5764  14.5818
    14.5839  14.5840  14.6280  14.7019  14.7095  14.8665  14.8665  14.8964
    14.9268  14.9268  14.9750  14.9987  14.9987  15.1031  15.1179  15.1179
    15.1528  15.1528  15.2669  15.2956  15.2956  15.3323  15.6516  15.6516
    15.7941  15.8074  15.8074  15.8584  15.8979  15.8979  15.9246  16.0922
    16.1107  16.1107  16.1194  16.1220  16.1220  16.2704  16.3719  16.3719
    16.5151  16.6087  16.6087  16.9488  16.9488  17.0028  17.0199  17.0199
    17.7817  17.8261  18.1245

          k = 0.0556 0.1667 0.0383 ( 43744 PWs)   bands (ev):

   -58.5066 -58.4448 -58.4289 -58.4142 -58.4037 -58.4003 -58.3993 -58.3962
   -58.3866 -58.3844 -58.3751 -58.3702 -58.3651 -58.3590 -58.3406 -58.3389
   -57.9848 -57.9833 -57.9489 -57.9485 -57.9400 -57.9397 -57.9378 -57.9377
   -57.9354 -57.9354 -57.9312 -57.9310 -57.9220 -57.9219 -57.8840 -57.8840
   -28.8258 -28.8217 -28.8198 -28.8103 -28.7861 -28.7857 -28.7196 -28.6394
   -28.6360 -28.6336 -28.6325 -28.6279 -28.6099 -28.6008 -28.5455 -28.5383
   -28.5265 -28.5248 -28.4738 -28.4493 -28.4472 -28.4470 -28.4406 -28.4345
   -28.4282 -28.4219 -28.4213 -28.4016 -28.3624 -28.3590 -28.3484 -28.3258
   -28.3030 -28.3000 -28.2594 -28.2573 -28.2429 -28.2361 -28.2084 -28.2039
   -28.1933 -28.1799 -28.1394 -28.1315 -28.1235 -28.1209 -28.1160 -28.1148
   -28.1132 -28.1039 -28.1012 -28.0821 -28.0808 -28.0754 -28.0559 -28.0394
   -27.9911 -27.9906 -27.9872 -27.9769 -27.9628 -27.9542 -27.9520 -27.9447
   -27.8940 -27.8856 -27.8826 -27.8805 -27.8622 -27.8549 -27.8521 -27.8474
   -27.8454 -27.8396 -27.8355 -27.8336 -27.8327 -27.8265 -27.8252 -27.8224
   -27.8213 -27.8135 -27.8114 -27.8049 -27.7999 -27.7990 -27.7968 -27.7968
   -27.7086 -27.7058 -27.6988 -27.6928 -27.6814 -27.6812 -27.6707 -27.6705
     7.5039   8.7219   8.8558   8.8606   9.1006   9.1276   9.1439   9.1533
     9.1552   9.2004   9.2500   9.3364   9.3390   9.5426   9.6854   9.7261
     9.7532  10.0111  10.0466  10.0553  10.0559  10.0673  10.1592  10.1615
    10.1875  10.2442  10.2454  10.3830  10.3831  10.3934  10.4099  10.4465
    10.4527  10.5756  10.6347  10.7101  10.7893  10.8036  10.8059  10.8176
    10.8230  10.8701  10.9004  11.0844  11.1453  11.1698  11.1906  11.2745
    11.2881  11.3002  11.3055  11.3546  11.4068  11.4448  11.4772  11.5114
    11.6036  11.6312  11.7583  11.8121  11.8137  11.8287  11.8426  11.8917
    11.9256  11.9464  12.0367  12.1160  12.1765  12.2013  12.2151  12.2419
    12.2532  12.2737  12.3188  12.3700  12.4330  12.4496  12.5096  12.5294
    12.5426  12.5950  12.6842  12.7683  12.8169  12.8646  12.8708  12.9476
    12.9509  13.0144  13.1115  13.1260  13.1485  13.2509  13.3047  13.3538
    13.3991  13.4240  13.4261  13.4432  13.4550  13.4902  13.5084  13.5247
    13.5300  13.5477  13.5613  13.6212  13.7420  13.7452  13.7610  13.8049
    13.9744  14.0128  14.0274  14.0392  14.1285  14.2223  14.2776  14.3012
    14.3040  14.3293  14.3660  14.3890  14.4544  14.4710  14.5114  14.5330
    14.5628  14.5750  14.5920  14.6756  14.7456  14.7583  14.8585  14.9079
    14.9514  15.0115  15.0412  15.0597  15.0838  15.0896  15.2204  15.2276
    15.2488  15.2500  15.2649  15.2741  15.3082  15.4574  15.5899  15.6378
    15.6427  15.6599  15.7615  15.7758  15.7911  15.7985  16.0092  16.0866
    16.0914  16.1152  16.1425  16.1700  16.2744  16.2863  16.3176  16.4670
    16.4888  16.6396  16.8062  16.8670  16.8796  16.8813  17.1203  17.1890
    17.2468  17.3869  17.5474

          k = 0.0556 0.1667 0.1149 ( 43748 PWs)   bands (ev):

   -58.5066 -58.4448 -58.4289 -58.4142 -58.4038 -58.4003 -58.3993 -58.3962
   -58.3866 -58.3844 -58.3751 -58.3702 -58.3651 -58.3590 -58.3406 -58.3389
   -57.9848 -57.9833 -57.9489 -57.9485 -57.9400 -57.9397 -57.9378 -57.9377
   -57.9354 -57.9354 -57.9312 -57.9310 -57.9220 -57.9219 -57.8840 -57.8840
   -28.8258 -28.8217 -28.8198 -28.8104 -28.7861 -28.7856 -28.7196 -28.6394
   -28.6360 -28.6336 -28.6325 -28.6279 -28.6099 -28.6008 -28.5455 -28.5383
   -28.5265 -28.5249 -28.4738 -28.4493 -28.4472 -28.4470 -28.4406 -28.4345
   -28.4282 -28.4219 -28.4213 -28.4016 -28.3624 -28.3590 -28.3484 -28.3258
   -28.3030 -28.3000 -28.2594 -28.2573 -28.2429 -28.2362 -28.2084 -28.2039
   -28.1933 -28.1799 -28.1394 -28.1314 -28.1234 -28.1209 -28.1160 -28.1148
   -28.1132 -28.1039 -28.1012 -28.0821 -28.0808 -28.0754 -28.0559 -28.0394
   -27.9911 -27.9906 -27.9872 -27.9769 -27.9628 -27.9542 -27.9520 -27.9447
   -27.8940 -27.8856 -27.8826 -27.8805 -27.8622 -27.8549 -27.8521 -27.8474
   -27.8454 -27.8396 -27.8355 -27.8336 -27.8328 -27.8265 -27.8253 -27.8224
   -27.8213 -27.8135 -27.8115 -27.8049 -27.7999 -27.7990 -27.7968 -27.7968
   -27.7086 -27.7058 -27.6988 -27.6928 -27.6814 -27.6812 -27.6707 -27.6705
     7.5053   8.7211   8.8559   8.8607   9.1008   9.1278   9.1442   9.1532
     9.1554   9.1944   9.2507   9.3365   9.3391   9.5430   9.6879   9.7264
     9.7537  10.0110  10.0464  10.0551  10.0559  10.0671  10.1592  10.1615
    10.1868  10.2442  10.2451  10.3815  10.3816  10.3934  10.4092  10.4451
    10.4517  10.5762  10.6341  10.7116  10.7895  10.8030  10.8058  10.8170
    10.8229  10.8700  10.9012  11.0845  11.1452  11.1688  11.1909  11.2753
    11.2879  11.2990  11.3056  11.3539  11.4082  11.4421  11.4756  11.5120
    11.6038  11.6310  11.7583  11.8094  11.8137  11.8288  11.8423  11.8911
    11.9256  11.9463  12.0314  12.1211  12.1691  12.2044  12.2189  12.2479
    12.2542  12.2760  12.3190  12.3691  12.4322  12.4584  12.5163  12.5330
    12.5460  12.5989  12.6839  12.7678  12.8192  12.8665  12.8688  12.9502
    12.9782  12.9962  13.1117  13.1255  13.1300  13.2652  13.2849  13.3281
    13.3992  13.4356  13.4380  13.4382  13.4435  13.4904  13.5087  13.5240
    13.5289  13.5486  13.5613  13.6224  13.7424  13.7565  13.8075  13.8155
    13.9792  14.0144  14.0370  14.0391  14.1303  14.2091  14.2709  14.2991
    14.3187  14.3297  14.3525  14.3781  14.4452  14.4625  14.4952  14.5331
    14.5420  14.5642  14.5954  14.6927  14.7625  14.7691  14.8592  14.9266
    14.9424  15.0121  15.0280  15.0601  15.0840  15.1037  15.2214  15.2452
    15.2508  15.2513  15.2611  15.2719  15.2920  15.4797  15.5887  15.6366
    15.6425  15.6644  15.7330  15.7652  15.7790  15.7885  16.0032  16.0860
    16.0877  16.1113  16.1144  16.1420  16.2710  16.2922  16.3126  16.3184
    16.4889  16.5790  16.8064  16.8814  16.8891  16.9107  17.1278  17.2145
    17.2823  17.3965  17.7523

          k = 0.0556 0.1667 0.1916 ( 43774 PWs)   bands (ev):

   -58.5066 -58.4448 -58.4289 -58.4142 -58.4038 -58.4003 -58.3993 -58.3962
   -58.3866 -58.3844 -58.3752 -58.3702 -58.3651 -58.3590 -58.3406 -58.3389
   -57.9849 -57.9833 -57.9489 -57.9485 -57.9400 -57.9398 -57.9378 -57.9377
   -57.9354 -57.9354 -57.9312 -57.9310 -57.9220 -57.9219 -57.8840 -57.8840
   -28.8258 -28.8217 -28.8198 -28.8104 -28.7861 -28.7857 -28.7197 -28.6394
   -28.6360 -28.6336 -28.6325 -28.6279 -28.6099 -28.6008 -28.5455 -28.5383
   -28.5265 -28.5249 -28.4738 -28.4493 -28.4472 -28.4470 -28.4406 -28.4345
   -28.4281 -28.4219 -28.4213 -28.4016 -28.3624 -28.3590 -28.3484 -28.3258
   -28.3030 -28.3000 -28.2594 -28.2573 -28.2429 -28.2362 -28.2084 -28.2039
   -28.1933 -28.1800 -28.1394 -28.1314 -28.1235 -28.1209 -28.1160 -28.1148
   -28.1132 -28.1038 -28.1012 -28.0821 -28.0808 -28.0754 -28.0559 -28.0394
   -27.9911 -27.9906 -27.9872 -27.9769 -27.9628 -27.9542 -27.9520 -27.9447
   -27.8940 -27.8856 -27.8826 -27.8805 -27.8622 -27.8549 -27.8521 -27.8474
   -27.8454 -27.8396 -27.8355 -27.8335 -27.8327 -27.8265 -27.8252 -27.8224
   -27.8214 -27.8135 -27.8114 -27.8049 -27.7999 -27.7990 -27.7968 -27.7968
   -27.7086 -27.7058 -27.6988 -27.6928 -27.6814 -27.6812 -27.6707 -27.6705
     7.5075   8.7199   8.8560   8.8608   9.1013   9.1281   9.1446   9.1532
     9.1558   9.1855   9.2518   9.3367   9.3393   9.5436   9.6916   9.7268
     9.7543  10.0109  10.0460  10.0548  10.0559  10.0668  10.1591  10.1616
    10.1858  10.2443  10.2445  10.3790  10.3795  10.3933  10.4082  10.4429
    10.4502  10.5770  10.6332  10.7140  10.7897  10.8020  10.8058  10.8160
    10.8227  10.8699  10.9023  11.0846  11.1451  11.1673  11.1914  11.2766
    11.2876  11.2971  11.3056  11.3529  11.4105  11.4380  11.4733  11.5130
    11.6042  11.6306  11.7583  11.8053  11.8136  11.8289  11.8419  11.8902
    11.9256  11.9461  12.0238  12.1290  12.1582  12.2089  12.2247  12.2556
    12.2567  12.2794  12.3192  12.3678  12.4310  12.4717  12.5268  12.5386
    12.5512  12.6049  12.6834  12.7670  12.8226  12.8654  12.8694  12.9492
    12.9702  13.0319  13.1083  13.1119  13.1246  13.2601  13.2809  13.2843
    13.3993  13.4142  13.4438  13.4482  13.4538  13.4907  13.5092  13.5226
    13.5270  13.5501  13.5612  13.6242  13.7429  13.7728  13.8301  13.8887
    13.9864  14.0167  14.0387  14.0542  14.1361  14.1944  14.2617  14.2926
    14.3298  14.3320  14.3395  14.3608  14.4313  14.4495  14.4697  14.4775
    14.5333  14.5663  14.5967  14.7167  14.7682  14.8091  14.8603  14.9279
    14.9591  15.0104  15.0129  15.0608  15.0847  15.1282  15.2225  15.2398
    15.2525  15.2554  15.2683  15.2712  15.2896  15.5162  15.5867  15.6349
    15.6357  15.6434  15.6699  15.7705  15.7807  15.7835  15.9793  16.0151
    16.0852  16.0919  16.1131  16.1411  16.1424  16.2758  16.3016  16.3196
    16.4890  16.4905  16.8067  16.8816  16.9046  16.9733  17.0389  17.3378
    17.3658  17.4196  17.8337

          k = 0.0556 0.1667 0.2682 ( 43791 PWs)   bands (ev):

   -58.5066 -58.4448 -58.4289 -58.4142 -58.4038 -58.4003 -58.3993 -58.3962
   -58.3866 -58.3844 -58.3752 -58.3702 -58.3651 -58.3590 -58.3406 -58.3389
   -57.9848 -57.9833 -57.9489 -57.9485 -57.9400 -57.9398 -57.9378 -57.9377
   -57.9354 -57.9354 -57.9312 -57.9311 -57.9220 -57.9219 -57.8840 -57.8840
   -28.8258 -28.8217 -28.8198 -28.8104 -28.7861 -28.7857 -28.7197 -28.6394
   -28.6360 -28.6336 -28.6325 -28.6279 -28.6099 -28.6008 -28.5455 -28.5384
   -28.5265 -28.5249 -28.4738 -28.4493 -28.4472 -28.4471 -28.4406 -28.4345
   -28.4282 -28.4219 -28.4213 -28.4016 -28.3624 -28.3590 -28.3483 -28.3258
   -28.3030 -28.3000 -28.2594 -28.2574 -28.2429 -28.2362 -28.2085 -28.2039
   -28.1933 -28.1800 -28.1394 -28.1315 -28.1235 -28.1209 -28.1160 -28.1148
   -28.1132 -28.1038 -28.1012 -28.0821 -28.0808 -28.0754 -28.0559 -28.0394
   -27.9911 -27.9906 -27.9872 -27.9769 -27.9628 -27.9542 -27.9520 -27.9447
   -27.8940 -27.8856 -27.8827 -27.8805 -27.8622 -27.8549 -27.8521 -27.8474
   -27.8454 -27.8396 -27.8355 -27.8335 -27.8327 -27.8265 -27.8253 -27.8224
   -27.8214 -27.8136 -27.8114 -27.8049 -27.7999 -27.7990 -27.7968 -27.7968
   -27.7086 -27.7058 -27.6988 -27.6928 -27.6814 -27.6812 -27.6707 -27.6705
     7.5094   8.7188   8.8562   8.8609   9.1016   9.1284   9.1450   9.1530
     9.1561   9.1780   9.2528   9.3369   9.3394   9.5441   9.6947   9.7272
     9.7549  10.0107  10.0457  10.0545  10.0558  10.0665  10.1590  10.1616
    10.1849  10.2440  10.2444  10.3768  10.3777  10.3932  10.4073  10.4411
    10.4488  10.5778  10.6325  10.7160  10.7899  10.8012  10.8057  10.8152
    10.8226  10.8698  10.9033  11.0846  11.1451  11.1659  11.1919  11.2776
    11.2874  11.2955  11.3057  11.3521  11.4126  11.4344  11.4713  11.5137
    11.6045  11.6303  11.7584  11.8018  11.8136  11.8290  11.8415  11.8894
    11.9257  11.9459  12.0174  12.1359  12.1491  12.2128  12.2298  12.2569
    12.2641  12.2821  12.3193  12.3667  12.4302  12.4835  12.5365  12.5438
    12.5558  12.6103  12.6827  12.7664  12.8256  12.8621  12.8720  12.9483
    12.9489  13.0928  13.0975  13.1120  13.1239  13.2291  13.2415  13.2914
    13.3944  13.3995  13.4441  13.4578  13.4647  13.4909  13.5097  13.5212
    13.5251  13.5516  13.5611  13.6258  13.7435  13.7858  13.8417  13.9785
    13.9927  14.0186  14.0382  14.0724  14.1553  14.1842  14.2546  14.2877
    14.3141  14.3296  14.3444  14.3547  14.3837  14.4190  14.4375  14.4472
    14.5334  14.5682  14.5971  14.7355  14.7725  14.8503  14.8613  14.9150
    14.9924  14.9971  15.0136  15.0614  15.0853  15.1536  15.2232  15.2351
    15.2504  15.2550  15.2556  15.2643  15.3255  15.5492  15.5588  15.5850
    15.6332  15.6447  15.6739  15.7606  15.7746  15.7873  15.9199  15.9366
    16.0708  16.0845  16.0905  16.1121  16.1404  16.2751  16.3104  16.3206
    16.4150  16.4892  16.8070  16.8818  16.9190  16.9639  17.0219  17.3880
    17.4519  17.5163  17.8260

          k = 0.0556 0.1667-0.3448 ( 43780 PWs)   bands (ev):

   -58.5066 -58.4448 -58.4288 -58.4142 -58.4038 -58.4003 -58.3993 -58.3962
   -58.3866 -58.3844 -58.3752 -58.3702 -58.3651 -58.3590 -58.3406 -58.3389
   -57.9848 -57.9833 -57.9489 -57.9485 -57.9400 -57.9398 -57.9378 -57.9377
   -57.9354 -57.9354 -57.9312 -57.9310 -57.9220 -57.9219 -57.8840 -57.8840
   -28.8258 -28.8217 -28.8198 -28.8104 -28.7861 -28.7857 -28.7197 -28.6394
   -28.6360 -28.6336 -28.6325 -28.6278 -28.6099 -28.6008 -28.5455 -28.5384
   -28.5265 -28.5249 -28.4738 -28.4493 -28.4472 -28.4471 -28.4407 -28.4345
   -28.4281 -28.4219 -28.4213 -28.4016 -28.3624 -28.3590 -28.3483 -28.3258
   -28.3030 -28.3000 -28.2594 -28.2573 -28.2429 -28.2361 -28.2085 -28.2039
   -28.1933 -28.1800 -28.1394 -28.1315 -28.1234 -28.1209 -28.1160 -28.1148
   -28.1132 -28.1038 -28.1012 -28.0821 -28.0808 -28.0754 -28.0559 -28.0394
   -27.9911 -27.9906 -27.9872 -27.9769 -27.9628 -27.9542 -27.9520 -27.9447
   -27.8940 -27.8856 -27.8826 -27.8805 -27.8622 -27.8549 -27.8521 -27.8473
   -27.8455 -27.8396 -27.8355 -27.8335 -27.8327 -27.8266 -27.8253 -27.8225
   -27.8214 -27.8135 -27.8114 -27.8049 -27.7999 -27.7990 -27.7968 -27.7968
   -27.7086 -27.7058 -27.6988 -27.6928 -27.6814 -27.6812 -27.6707 -27.6705
     7.5102   8.7183   8.8562   8.8610   9.1018   9.1285   9.1452   9.1529
     9.1562   9.1750   9.2532   9.3369   9.3395   9.5443   9.6959   9.7274
     9.7552  10.0107  10.0455  10.0544  10.0558  10.0664  10.1590  10.1616
    10.1846  10.2439  10.2444  10.3759  10.3769  10.3931  10.4070  10.4404
    10.4482  10.5781  10.6322  10.7169  10.7900  10.8008  10.8057  10.8148
    10.8226  10.8698  10.9037  11.0846  11.1450  11.1653  11.1920  11.2780
    11.2873  11.2949  11.3057  11.3517  11.4135  11.4330  11.4705  11.5140
    11.6046  11.6302  11.7584  11.8005  11.8136  11.8291  11.8414  11.8891
    11.9257  11.9459  12.0150  12.1386  12.1456  12.2143  12.2318  12.2574
    12.2669  12.2831  12.3194  12.3663  12.4299  12.4882  12.5404  12.5458
    12.5576  12.6124  12.6824  12.7661  12.8268  12.8607  12.8730  12.9407
    12.9480  13.0874  13.1119  13.1237  13.1597  13.1714  13.2347  13.2950
    13.3869  13.3995  13.4443  13.4613  13.4685  13.4910  13.5098  13.5207
    13.5242  13.5522  13.5610  13.6265  13.7438  13.7906  13.8461  13.9951
    14.0193  14.0200  14.0379  14.0804  14.1805  14.1873  14.2519  14.2859
    14.3070  14.3149  14.3295  14.3375  14.3601  14.4142  14.4318  14.4392
    14.5335  14.5689  14.5972  14.7425  14.7740  14.8616  14.8688  14.9099
    14.9923  15.0074  15.0135  15.0617  15.0855  15.1648  15.2235  15.2332
    15.2484  15.2500  15.2568  15.2619  15.3403  15.5137  15.5836  15.5843
    15.6326  15.6454  15.6754  15.7407  15.7761  15.7887  15.8898  15.9052
    16.0585  16.0843  16.0901  16.1116  16.1400  16.2749  16.3139  16.3210
    16.3854  16.4892  16.8071  16.8819  16.9249  16.9348  17.0390  17.4082
    17.4687  17.5845  17.8234

          k = 0.0556 0.2778 0.0383 ( 43713 PWs)   bands (ev):

   -58.5014 -58.4590 -58.4267 -58.4126 -58.4094 -58.4002 -58.3972 -58.3863
   -58.3814 -58.3809 -58.3805 -58.3713 -58.3668 -58.3541 -58.3455 -58.3405
   -57.9818 -57.9804 -57.9573 -57.9567 -57.9398 -57.9396 -57.9384 -57.9383
   -57.9345 -57.9345 -57.9316 -57.9315 -57.9133 -57.9132 -57.8873 -57.8872
   -28.8126 -28.8037 -28.8011 -28.7884 -28.7708 -28.7696 -28.7111 -28.6771
   -28.6703 -28.6606 -28.6564 -28.6523 -28.6494 -28.6482 -28.5568 -28.5461
   -28.5130 -28.4999 -28.4472 -28.4471 -28.4328 -28.4283 -28.4278 -28.4223
   -28.4173 -28.4052 -28.4050 -28.4006 -28.3986 -28.3858 -28.3468 -28.3050
   -28.2872 -28.2756 -28.2662 -28.2234 -28.2212 -28.2172 -28.2123 -28.2050
   -28.2009 -28.1770 -28.1473 -28.1404 -28.1376 -28.1345 -28.1273 -28.1171
   -28.1107 -28.1034 -28.0980 -28.0948 -28.0738 -28.0731 -28.0422 -28.0258
   -28.0234 -28.0201 -28.0151 -27.9969 -27.9944 -27.9918 -27.9850 -27.9659
   -27.8624 -27.8597 -27.8490 -27.8482 -27.8471 -27.8417 -27.8385 -27.8357
   -27.8336 -27.8317 -27.8269 -27.8263 -27.8243 -27.8232 -27.8206 -27.8193
   -27.8179 -27.8150 -27.8088 -27.7992 -27.7936 -27.7921 -27.7821 -27.7776
   -27.7255 -27.7229 -27.7057 -27.7037 -27.7007 -27.6997 -27.6832 -27.6825
     7.6633   8.8524   8.8962   8.9591   8.9736   9.1621   9.2096   9.2320
     9.2553   9.2692   9.3324   9.4035   9.4139   9.5221   9.6535   9.7041
     9.7992   9.8231   9.8236   9.9318   9.9654   9.9662  10.1224  10.1511
    10.1632  10.1862  10.2014  10.2852  10.3146  10.3340  10.3886  10.4111
    10.4603  10.4730  10.4869  10.5326  10.7233  10.7613  10.7868  10.8126
    10.8152  10.8549  11.0096  11.0396  11.0847  11.1022  11.1296  11.1338
    11.1374  11.1679  11.2596  11.3739  11.4257  11.5541  11.6167  11.6651
    11.6923  11.7274  11.7374  11.7670  11.8989  11.9264  11.9366  11.9481
    11.9552  12.1190  12.1425  12.1761  12.1877  12.1893  12.2541  12.3105
    12.3368  12.3444  12.3549  12.3737  12.4344  12.4591  12.5040  12.5210
    12.5426  12.5482  12.5583  12.7066  12.7119  12.7664  12.8239  12.8369
    12.9025  12.9371  12.9711  12.9923  13.0431  13.1789  13.2059  13.3739
    13.3898  13.4011  13.4836  13.5200  13.5439  13.5457  13.5627  13.5734
    13.5779  13.6174  13.6788  13.7001  13.8451  13.8516  13.8745  14.0160
    14.0643  14.0758  14.1305  14.1339  14.1348  14.1364  14.1822  14.2358
    14.2747  14.3329  14.3385  14.4402  14.4614  14.5213  14.5258  14.5349
    14.6349  14.6912  14.6994  14.7112  14.8191  14.8944  14.9002  14.9336
    15.0782  15.1268  15.1305  15.1544  15.1693  15.1932  15.2008  15.2052
    15.2561  15.2775  15.2842  15.2994  15.3723  15.4469  15.4785  15.5075
    15.5346  15.5909  15.5929  15.6923  15.6942  15.7285  15.8324  15.8479
    16.0319  16.0450  16.1388  16.1628  16.1644  16.2597  16.2721  16.2902
    16.5343  16.6457  16.6490  16.6593  16.7295  16.8749  16.9844  17.2283
    17.3322  17.5780  17.6434

          k = 0.0556 0.2778 0.1149 ( 43738 PWs)   bands (ev):

   -58.5014 -58.4590 -58.4267 -58.4126 -58.4094 -58.4002 -58.3972 -58.3863
   -58.3814 -58.3809 -58.3805 -58.3713 -58.3668 -58.3541 -58.3455 -58.3405
   -57.9818 -57.9805 -57.9573 -57.9567 -57.9398 -57.9396 -57.9384 -57.9383
   -57.9345 -57.9345 -57.9316 -57.9315 -57.9133 -57.9133 -57.8873 -57.8872
   -28.8126 -28.8037 -28.8012 -28.7884 -28.7708 -28.7696 -28.7111 -28.6771
   -28.6703 -28.6606 -28.6564 -28.6523 -28.6494 -28.6482 -28.5568 -28.5461
   -28.5130 -28.4999 -28.4473 -28.4471 -28.4328 -28.4283 -28.4278 -28.4223
   -28.4173 -28.4053 -28.4050 -28.4006 -28.3986 -28.3858 -28.3468 -28.3050
   -28.2872 -28.2756 -28.2662 -28.2234 -28.2213 -28.2172 -28.2123 -28.2050
   -28.2009 -28.1769 -28.1473 -28.1403 -28.1376 -28.1344 -28.1273 -28.1171
   -28.1107 -28.1034 -28.0980 -28.0948 -28.0738 -28.0731 -28.0422 -28.0258
   -28.0234 -28.0201 -28.0151 -27.9969 -27.9944 -27.9918 -27.9850 -27.9659
   -27.8624 -27.8596 -27.8491 -27.8482 -27.8471 -27.8417 -27.8386 -27.8356
   -27.8336 -27.8317 -27.8269 -27.8263 -27.8243 -27.8232 -27.8206 -27.8193
   -27.8179 -27.8150 -27.8088 -27.7992 -27.7936 -27.7920 -27.7821 -27.7776
   -27.7255 -27.7229 -27.7057 -27.7037 -27.7007 -27.6997 -27.6832 -27.6825
     7.6647   8.8517   8.8971   8.9592   8.9737   9.1623   9.2097   9.2323
     9.2555   9.2691   9.3266   9.4036   9.4141   9.5222   9.6539   9.7041
     9.7991   9.8232   9.8255   9.9314   9.9652   9.9663  10.1223  10.1511
    10.1629  10.1860  10.1995  10.2836  10.3147  10.3338  10.3872  10.4110
    10.4612  10.4722  10.4855  10.5345  10.7241  10.7611  10.7858  10.8125
    10.8146  10.8543  11.0103  11.0395  11.0846  11.1021  11.1290  11.1324
    11.1374  11.1663  11.2602  11.3737  11.4252  11.5554  11.6155  11.6657
    11.6978  11.7295  11.7372  11.7667  11.8989  11.9247  11.9363  11.9486
    11.9554  12.1236  12.1394  12.1830  12.1894  12.1924  12.2548  12.3098
    12.3384  12.3408  12.3551  12.3744  12.4318  12.4583  12.5059  12.5234
    12.5447  12.5485  12.5598  12.7145  12.7392  12.7639  12.8276  12.8386
    12.9024  12.9368  12.9532  12.9919  13.0495  13.1854  13.1935  13.3753
    13.3771  13.3780  13.4836  13.5200  13.5387  13.5437  13.5620  13.5727
    13.5789  13.6176  13.6636  13.7123  13.8531  13.8542  13.8757  14.0204
    14.0499  14.0772  14.1057  14.1107  14.1348  14.1626  14.1996  14.2340
    14.2737  14.3217  14.3334  14.4380  14.4564  14.5230  14.5331  14.5585
    14.6182  14.7010  14.7110  14.7180  14.8504  14.8795  14.9007  14.9708
    15.0834  15.1274  15.1383  15.1508  15.1555  15.2002  15.2046  15.2061
    15.2612  15.2751  15.2777  15.2989  15.3725  15.4448  15.4459  15.4730
    15.5611  15.5795  15.5923  15.6951  15.7007  15.7368  15.8338  15.8473
    16.0303  16.0448  16.1112  16.1381  16.1627  16.2596  16.2723  16.2873
    16.5344  16.5942  16.6596  16.7342  16.7361  16.8035  16.8707  17.2862
    17.3306  17.6709  17.6930

          k = 0.0556 0.2778 0.1916 ( 43758 PWs)   bands (ev):

   -58.5014 -58.4590 -58.4267 -58.4126 -58.4094 -58.4002 -58.3972 -58.3863
   -58.3814 -58.3809 -58.3805 -58.3713 -58.3668 -58.3541 -58.3455 -58.3405
   -57.9819 -57.9804 -57.9573 -57.9568 -57.9398 -57.9396 -57.9384 -57.9383
   -57.9345 -57.9345 -57.9316 -57.9315 -57.9133 -57.9133 -57.8873 -57.8872
   -28.8126 -28.8037 -28.8012 -28.7884 -28.7708 -28.7696 -28.7111 -28.6771
   -28.6703 -28.6606 -28.6564 -28.6523 -28.6494 -28.6482 -28.5568 -28.5461
   -28.5130 -28.4999 -28.4473 -28.4471 -28.4328 -28.4283 -28.4278 -28.4223
   -28.4173 -28.4053 -28.4050 -28.4006 -28.3986 -28.3858 -28.3467 -28.3050
   -28.2872 -28.2756 -28.2662 -28.2234 -28.2213 -28.2172 -28.2123 -28.2050
   -28.2009 -28.1769 -28.1473 -28.1403 -28.1376 -28.1344 -28.1273 -28.1171
   -28.1107 -28.1035 -28.0980 -28.0948 -28.0738 -28.0731 -28.0422 -28.0258
   -28.0234 -28.0201 -28.0151 -27.9969 -27.9944 -27.9919 -27.9850 -27.9659
   -27.8624 -27.8597 -27.8490 -27.8482 -27.8471 -27.8417 -27.8386 -27.8357
   -27.8336 -27.8317 -27.8269 -27.8263 -27.8243 -27.8232 -27.8206 -27.8193
   -27.8179 -27.8150 -27.8088 -27.7992 -27.7936 -27.7921 -27.7821 -27.7776
   -27.7255 -27.7229 -27.7057 -27.7038 -27.7007 -27.6997 -27.6832 -27.6825
     7.6668   8.8505   8.8985   8.9594   8.9738   9.1627   9.2099   9.2327
     9.2558   9.2690   9.3179   9.4037   9.4142   9.5223   9.6545   9.7041
     9.7990   9.8226   9.8291   9.9307   9.9649   9.9663  10.1223  10.1512
    10.1624  10.1856  10.1965  10.2814  10.3148  10.3335  10.3852  10.4106
    10.4626  10.4711  10.4832  10.5373  10.7254  10.7607  10.7842  10.8125
    10.8137  10.8534  11.0114  11.0394  11.0843  11.1019  11.1281  11.1303
    11.1374  11.1637  11.2612  11.3733  11.4244  11.5575  11.6135  11.6664
    11.7064  11.7328  11.7368  11.7662  11.8989  11.9220  11.9359  11.9494
    11.9557  12.1307  12.1345  12.1898  12.1934  12.1995  12.2557  12.3087
    12.3351  12.3407  12.3553  12.3754  12.4285  12.4572  12.5089  12.5272
    12.5482  12.5489  12.5622  12.7186  12.7602  12.7932  12.8357  12.8412
    12.9022  12.9250  12.9364  12.9914  13.0615  13.1725  13.1974  13.3354
    13.3514  13.3836  13.4837  13.5198  13.5304  13.5435  13.5608  13.5716
    13.5804  13.6182  13.6417  13.7272  13.8544  13.8700  13.8778  14.0267
    14.0284  14.0709  14.0790  14.0815  14.1358  14.2100  14.2123  14.2300
    14.2719  14.3092  14.3254  14.4346  14.4504  14.5255  14.5308  14.5957
    14.6046  14.7106  14.7146  14.7441  14.8687  14.8984  14.9014  15.0247
    15.0935  15.1228  15.1435  15.1452  15.1565  15.1986  15.2036  15.2163
    15.2552  15.2687  15.2781  15.2978  15.3525  15.3731  15.4445  15.4667
    15.5626  15.5914  15.6026  15.6985  15.7092  15.7538  15.8359  15.8456
    16.0159  16.0447  16.0453  16.1371  16.1622  16.2595  16.2726  16.2841
    16.5144  16.5345  16.5836  16.6600  16.7428  16.8659  16.8750  17.3266
    17.3851  17.6881  17.7747

          k = 0.0556 0.2778 0.2682 ( 43763 PWs)   bands (ev):

   -58.5013 -58.4590 -58.4267 -58.4126 -58.4094 -58.4002 -58.3972 -58.3863
   -58.3814 -58.3809 -58.3805 -58.3713 -58.3668 -58.3541 -58.3455 -58.3405
   -57.9819 -57.9805 -57.9573 -57.9568 -57.9398 -57.9396 -57.9384 -57.9383
   -57.9345 -57.9345 -57.9316 -57.9315 -57.9133 -57.9132 -57.8873 -57.8872
   -28.8126 -28.8037 -28.8012 -28.7884 -28.7707 -28.7696 -28.7111 -28.6771
   -28.6703 -28.6606 -28.6565 -28.6523 -28.6494 -28.6482 -28.5568 -28.5461
   -28.5130 -28.4999 -28.4473 -28.4471 -28.4328 -28.4283 -28.4278 -28.4223
   -28.4173 -28.4053 -28.4050 -28.4006 -28.3986 -28.3858 -28.3467 -28.3050
   -28.2872 -28.2756 -28.2662 -28.2234 -28.2213 -28.2173 -28.2123 -28.2050
   -28.2009 -28.1769 -28.1473 -28.1404 -28.1376 -28.1344 -28.1273 -28.1171
   -28.1107 -28.1035 -28.0980 -28.0948 -28.0738 -28.0731 -28.0422 -28.0258
   -28.0234 -28.0201 -28.0151 -27.9969 -27.9944 -27.9919 -27.9850 -27.9660
   -27.8624 -27.8597 -27.8491 -27.8482 -27.8471 -27.8418 -27.8386 -27.8357
   -27.8336 -27.8316 -27.8269 -27.8263 -27.8243 -27.8232 -27.8206 -27.8193
   -27.8180 -27.8150 -27.8087 -27.7992 -27.7936 -27.7921 -27.7821 -27.7776
   -27.7255 -27.7229 -27.7057 -27.7038 -27.7007 -27.6997 -27.6832 -27.6825
     7.6687   8.8494   8.8997   8.9596   8.9739   9.1630   9.2101   9.2330
     9.2560   9.2689   9.3104   9.4039   9.4144   9.5224   9.6549   9.7042
     9.7988   9.8220   9.8321   9.9301   9.9646   9.9664  10.1222  10.1512
    10.1620  10.1854  10.1938  10.2797  10.3148  10.3332  10.3834  10.4102
    10.4638  10.4701  10.4811  10.5398  10.7265  10.7603  10.7827  10.8124
    10.8129  10.8526  11.0124  11.0393  11.0841  11.1018  11.1273  11.1284
    11.1375  11.1614  11.2621  11.3730  11.4237  11.5596  11.6116  11.6671
    11.7142  11.7357  11.7364  11.7658  11.8989  11.9197  11.9355  11.9501
    11.9560  12.1303  12.1370  12.1902  12.2025  12.2059  12.2565  12.3079
    12.3296  12.3427  12.3555  12.3763  12.4263  12.4563  12.5115  12.5305
    12.5493  12.5515  12.5644  12.7222  12.7570  12.8435  12.8478  12.8487
    12.8955  12.9020  12.9360  12.9909  13.0765  13.1497  13.2114  13.2912
    13.3272  13.3879  13.4838  13.5197  13.5245  13.5433  13.5598  13.5707
    13.5818  13.6189  13.6234  13.7375  13.8549  13.8797  13.8870  14.0098
    14.0318  14.0418  14.0566  14.0803  14.1362  14.2191  14.2258  14.2579
    14.2703  14.3010  14.3183  14.4317  14.4464  14.5277  14.5291  14.5745
    14.6430  14.7102  14.7251  14.7695  14.8626  14.9019  14.9413  15.0870
    15.1056  15.1188  15.1359  15.1404  15.1732  15.1961  15.2027  15.2220
    15.2227  15.2707  15.2747  15.2785  15.2965  15.3738  15.4433  15.4629
    15.5477  15.5905  15.6400  15.7008  15.7156  15.7770  15.8378  15.8419
    15.9577  16.0347  16.0447  16.1363  16.1617  16.2599  16.2728  16.2822
    16.4132  16.4468  16.5347  16.6604  16.7462  16.8630  17.0136  17.3221
    17.4847  17.6162  17.8539

          k = 0.0556 0.2778-0.3448 ( 43794 PWs)   bands (ev):

   -58.5013 -58.4590 -58.4267 -58.4126 -58.4094 -58.4002 -58.3972 -58.3863
   -58.3814 -58.3809 -58.3805 -58.3713 -58.3668 -58.3541 -58.3455 -58.3405
   -57.9819 -57.9805 -57.9573 -57.9568 -57.9398 -57.9396 -57.9384 -57.9383
   -57.9345 -57.9345 -57.9316 -57.9315 -57.9133 -57.9132 -57.8873 -57.8872
   -28.8126 -28.8037 -28.8012 -28.7884 -28.7707 -28.7696 -28.7112 -28.6771
   -28.6703 -28.6606 -28.6565 -28.6523 -28.6495 -28.6482 -28.5568 -28.5461
   -28.5130 -28.4999 -28.4473 -28.4471 -28.4328 -28.4283 -28.4278 -28.4223
   -28.4173 -28.4053 -28.4051 -28.4006 -28.3986 -28.3858 -28.3467 -28.3050
   -28.2872 -28.2756 -28.2662 -28.2234 -28.2213 -28.2173 -28.2123 -28.2050
   -28.2009 -28.1769 -28.1474 -28.1404 -28.1376 -28.1344 -28.1273 -28.1171
   -28.1107 -28.1035 -28.0980 -28.0948 -28.0738 -28.0731 -28.0422 -28.0258
   -28.0234 -28.0201 -28.0151 -27.9969 -27.9944 -27.9919 -27.9850 -27.9660
   -27.8624 -27.8597 -27.8491 -27.8482 -27.8471 -27.8418 -27.8386 -27.8356
   -27.8336 -27.8316 -27.8269 -27.8264 -27.8243 -27.8233 -27.8206 -27.8193
   -27.8180 -27.8150 -27.8087 -27.7992 -27.7936 -27.7921 -27.7821 -27.7776
   -27.7255 -27.7229 -27.7057 -27.7038 -27.7007 -27.6997 -27.6832 -27.6825
     7.6694   8.8489   8.9002   8.9597   8.9740   9.1631   9.2101   9.2331
     9.2561   9.2688   9.3075   9.4040   9.4144   9.5224   9.6551   9.7042
     9.7988   9.8218   9.8332   9.9299   9.9645   9.9664  10.1221  10.1512
    10.1618  10.1853  10.1927  10.2790  10.3149  10.3331  10.3828  10.4100
    10.4643  10.4698  10.4803  10.5408  10.7270  10.7602  10.7821  10.8124
    10.8126  10.8523  11.0128  11.0393  11.0841  11.1018  11.1271  11.1277
    11.1375  11.1605  11.2625  11.3728  11.4235  11.5605  11.6108  11.6674
    11.7174  11.7363  11.7368  11.7656  11.8989  11.9188  11.9354  11.9504
    11.9561  12.1286  12.1395  12.1903  12.2061  12.2084  12.2568  12.3076
    12.3274  12.3435  12.3555  12.3767  12.4255  12.4560  12.5125  12.5318
    12.5494  12.5529  12.5653  12.7236  12.7557  12.8445  12.8635  12.8724
    12.8745  12.9020  12.9358  12.9907  13.0856  13.1377  13.2186  13.2706
    13.3159  13.3895  13.4838  13.5196  13.5224  13.5433  13.5593  13.5704
    13.5824  13.6164  13.6192  13.7411  13.8550  13.8805  13.8952  14.0026
    14.0295  14.0337  14.0468  14.0807  14.1362  14.2212  14.2239  14.2697
    14.2791  14.2982  14.3155  14.4305  14.4451  14.5285  14.5285  14.5648
    14.6578  14.7101  14.7289  14.7811  14.8607  14.9020  14.9585  15.1116
    15.1172  15.1280  15.1334  15.1385  15.1801  15.1941  15.1946  15.2024
    15.2237  15.2372  15.2770  15.2786  15.2958  15.3742  15.4428  15.4618
    15.5418  15.5902  15.6551  15.7016  15.7179  15.7910  15.8384  15.8385
    15.9316  16.0337  16.0448  16.1360  16.1615  16.2609  16.2729  16.2816
    16.3470  16.4205  16.5347  16.6605  16.7471  16.8621  17.0758  17.3201
    17.5283  17.5885  17.8877

          k = 0.0556 0.3889 0.0383 ( 43730 PWs)   bands (ev):

   -58.4937 -58.4722 -58.4235 -58.4147 -58.4103 -58.4040 -58.3941 -58.3856
   -58.3778 -58.3768 -58.3735 -58.3730 -58.3694 -58.3528 -58.3498 -58.3429
   -57.9775 -57.9762 -57.9650 -57.9642 -57.9396 -57.9395 -57.9389 -57.9388
   -57.9337 -57.9336 -57.9321 -57.9321 -57.9052 -57.9052 -57.8920 -57.8920
   -28.7904 -28.7768 -28.7749 -28.7599 -28.7484 -28.7466 -28.7216 -28.7065
   -28.6999 -28.6989 -28.6925 -28.6869 -28.6857 -28.6668 -28.5607 -28.5539
   -28.4932 -28.4731 -28.4442 -28.4431 -28.4391 -28.4343 -28.4290 -28.4151
   -28.4095 -28.4094 -28.4075 -28.3878 -28.3774 -28.3700 -28.3652 -28.2993
   -28.2689 -28.2598 -28.2354 -28.2299 -28.2126 -28.2008 -28.1999 -28.1897
   -28.1791 -28.1741 -28.1725 -28.1703 -28.1644 -28.1640 -28.1361 -28.1143
   -28.1095 -28.0899 -28.0850 -28.0737 -28.0687 -28.0632 -28.0581 -28.0429
   -28.0420 -28.0299 -28.0277 -28.0258 -28.0160 -28.0091 -28.0075 -27.9823
   -27.8465 -27.8414 -27.8395 -27.8380 -27.8357 -27.8340 -27.8329 -27.8304
   -27.8295 -27.8280 -27.8275 -27.8265 -27.8214 -27.8203 -27.8168 -27.8158
   -27.8024 -27.7962 -27.7940 -27.7813 -27.7715 -27.7617 -27.7548 -27.7547
   -27.7514 -27.7428 -27.7271 -27.7241 -27.7214 -27.7175 -27.7034 -27.7014
     7.8952   8.5311   9.0406   9.1064   9.1359   9.2543   9.3339   9.3526
     9.3925   9.4414   9.4607   9.4802   9.5025   9.5199   9.5298   9.5455
     9.5655   9.6223   9.6990   9.7562   9.7873   9.8859   9.9376  10.0000
    10.0190  10.2931  10.3314  10.3700  10.3923  10.4078  10.4094  10.4181
    10.4365  10.4681  10.4846  10.5004  10.5426  10.6912  10.7267  10.7346
    10.7614  10.8352  10.8401  10.8975  10.9074  10.9525  10.9621  11.0382
    11.1664  11.1936  11.3569  11.4669  11.5873  11.5942  11.6583  11.6644
    11.6951  11.7739  11.7874  11.9225  11.9233  11.9373  11.9631  12.0228
    12.0492  12.1461  12.1499  12.2437  12.2507  12.2526  12.2950  12.2989
    12.3626  12.3648  12.3762  12.4060  12.4419  12.4463  12.4631  12.4758
    12.4971  12.5176  12.5782  12.6364  12.6373  12.6647  12.7651  12.7788
    12.8241  12.8534  13.0405  13.0631  13.1475  13.2265  13.2885  13.3791
    13.3970  13.4631  13.4667  13.4989  13.5040  13.5374  13.5530  13.5625
    13.5697  13.6149  13.7627  13.7883  13.8139  13.8243  13.9046  13.9330
    14.0176  14.1160  14.1227  14.1418  14.1568  14.2512  14.2562  14.2994
    14.3219  14.3270  14.3801  14.4392  14.5271  14.5285  14.6241  14.6685
    14.7772  14.8021  14.8102  14.8191  14.8537  14.8985  14.9387  14.9572
    14.9662  14.9833  15.0402  15.0571  15.0785  15.0808  15.1697  15.2449
    15.3167  15.3528  15.3687  15.4038  15.4340  15.4603  15.4913  15.5119
    15.5625  15.6162  15.6313  15.7216  15.7568  15.7649  15.7805  15.9574
    15.9936  16.0500  16.0730  16.1625  16.1742  16.2213  16.2396  16.2459
    16.2634  16.2641  16.3265  16.4313  16.6777  16.8142  16.8691  17.3265
    17.5172  17.5500  17.6933

          k = 0.0556 0.3889 0.1149 ( 43762 PWs)   bands (ev):

   -58.4937 -58.4722 -58.4235 -58.4147 -58.4103 -58.4040 -58.3941 -58.3856
   -58.3778 -58.3768 -58.3735 -58.3730 -58.3694 -58.3528 -58.3498 -58.3429
   -57.9775 -57.9762 -57.9650 -57.9642 -57.9396 -57.9395 -57.9389 -57.9388
   -57.9337 -57.9336 -57.9321 -57.9321 -57.9052 -57.9052 -57.8920 -57.8920
   -28.7904 -28.7768 -28.7749 -28.7599 -28.7484 -28.7466 -28.7216 -28.7065
   -28.6999 -28.6989 -28.6925 -28.6870 -28.6857 -28.6668 -28.5607 -28.5539
   -28.4932 -28.4731 -28.4442 -28.4431 -28.4391 -28.4343 -28.4290 -28.4151
   -28.4095 -28.4094 -28.4074 -28.3879 -28.3774 -28.3700 -28.3652 -28.2993
   -28.2690 -28.2598 -28.2354 -28.2299 -28.2126 -28.2008 -28.1999 -28.1897
   -28.1791 -28.1741 -28.1725 -28.1703 -28.1644 -28.1640 -28.1361 -28.1143
   -28.1095 -28.0899 -28.0850 -28.0738 -28.0687 -28.0632 -28.0581 -28.0429
   -28.0420 -28.0299 -28.0277 -28.0258 -28.0160 -28.0091 -28.0075 -27.9823
   -27.8465 -27.8414 -27.8396 -27.8380 -27.8357 -27.8340 -27.8328 -27.8304
   -27.8295 -27.8280 -27.8275 -27.8266 -27.8215 -27.8203 -27.8168 -27.8159
   -27.8024 -27.7962 -27.7940 -27.7813 -27.7715 -27.7617 -27.7548 -27.7547
   -27.7513 -27.7428 -27.7271 -27.7241 -27.7214 -27.7175 -27.7034 -27.7014
     7.8965   8.5321   9.0399   9.1066   9.1359   9.2544   9.3339   9.3528
     9.3926   9.4414   9.4606   9.4805   9.5026   9.5143   9.5299   9.5450
     9.5655   9.6223   9.6987   9.7561   9.7874   9.8859   9.9375   9.9956
    10.0212  10.2932  10.3310  10.3698  10.3923  10.4060  10.4104  10.4189
    10.4381  10.4678  10.4844  10.5017  10.5412  10.6903  10.7274  10.7342
    10.7597  10.8347  10.8399  10.8970  10.9069  10.9516  10.9606  11.0379
    11.1663  11.1936  11.3580  11.4666  11.5890  11.5958  11.6585  11.6640
    11.6954  11.7738  11.7913  11.9234  11.9257  11.9383  11.9741  12.0229
    12.0480  12.1497  12.1549  12.2437  12.2502  12.2514  12.2950  12.3030
    12.3628  12.3646  12.3763  12.4063  12.4369  12.4463  12.4763  12.4911
    12.4983  12.5187  12.5813  12.6370  12.6378  12.6633  12.7649  12.7802
    12.8241  12.8533  13.0116  13.0679  13.1524  13.2362  13.2720  13.3812
    13.3960  13.4474  13.4666  13.4979  13.5031  13.5373  13.5534  13.5592
    13.5692  13.5935  13.7193  13.7422  13.7977  13.8005  13.8921  13.9633
    14.0455  14.1201  14.1244  14.1554  14.1945  14.2524  14.2544  14.2939
    14.3187  14.3260  14.4370  14.4415  14.5187  14.5258  14.6628  14.6646
    14.7752  14.8016  14.8130  14.8432  14.8474  14.9034  14.9537  14.9584
    14.9638  14.9994  15.0436  15.0532  15.0804  15.0830  15.1701  15.2226
    15.2637  15.3473  15.3695  15.3859  15.4342  15.4621  15.4882  15.5119
    15.5626  15.6052  15.6196  15.7607  15.7636  15.7645  15.7827  15.9576
    15.9941  16.0500  16.0855  16.1324  16.1762  16.2214  16.2397  16.2504
    16.2725  16.3121  16.3271  16.4317  16.6325  16.7965  16.8670  17.3465
    17.4003  17.6054  17.7100

          k = 0.0556 0.3889 0.1916 ( 43752 PWs)   bands (ev):

   -58.4937 -58.4722 -58.4235 -58.4147 -58.4103 -58.4040 -58.3941 -58.3856
   -58.3778 -58.3768 -58.3735 -58.3730 -58.3694 -58.3528 -58.3498 -58.3429
   -57.9775 -57.9762 -57.9650 -57.9642 -57.9396 -57.9395 -57.9389 -57.9388
   -57.9337 -57.9336 -57.9321 -57.9321 -57.9052 -57.9052 -57.8920 -57.8920
   -28.7904 -28.7768 -28.7749 -28.7599 -28.7484 -28.7466 -28.7216 -28.7065
   -28.6999 -28.6989 -28.6925 -28.6870 -28.6857 -28.6668 -28.5608 -28.5539
   -28.4932 -28.4731 -28.4442 -28.4431 -28.4391 -28.4343 -28.4290 -28.4151
   -28.4094 -28.4094 -28.4074 -28.3878 -28.3774 -28.3700 -28.3652 -28.2993
   -28.2690 -28.2598 -28.2354 -28.2299 -28.2126 -28.2008 -28.1999 -28.1897
   -28.1791 -28.1741 -28.1725 -28.1703 -28.1644 -28.1640 -28.1361 -28.1143
   -28.1095 -28.0899 -28.0850 -28.0738 -28.0687 -28.0632 -28.0581 -28.0429
   -28.0420 -28.0299 -28.0277 -28.0258 -28.0159 -28.0091 -28.0075 -27.9823
   -27.8465 -27.8414 -27.8395 -27.8380 -27.8357 -27.8340 -27.8329 -27.8304
   -27.8295 -27.8280 -27.8275 -27.8266 -27.8215 -27.8202 -27.8168 -27.8159
   -27.8024 -27.7962 -27.7940 -27.7813 -27.7715 -27.7617 -27.7548 -27.7547
   -27.7513 -27.7428 -27.7271 -27.7241 -27.7214 -27.7175 -27.7034 -27.7014
     7.8985   8.5338   9.0388   9.1068   9.1360   9.2546   9.3340   9.3531
     9.3928   9.4413   9.4606   9.4809   9.5027   9.5059   9.5300   9.5441
     9.5654   9.6222   9.6983   9.7559   9.7875   9.8859   9.9373   9.9890
    10.0246  10.2933  10.3304  10.3696  10.3922  10.4046  10.4107  10.4201
    10.4406  10.4673  10.4841  10.5036  10.5389  10.6888  10.7283  10.7337
    10.7569  10.8339  10.8397  10.8963  10.9061  10.9502  10.9582  11.0374
    11.1662  11.1936  11.3596  11.4662  11.5917  11.5982  11.6588  11.6635
    11.6958  11.7736  11.7975  11.9244  11.9295  11.9397  11.9916  12.0230
    12.0462  12.1554  12.1628  12.2436  12.2495  12.2496  12.2949  12.3095
    12.3631  12.3643  12.3763  12.4067  12.4346  12.4462  12.4772  12.5002
    12.5203  12.5307  12.5862  12.6380  12.6386  12.6610  12.7646  12.7824
    12.8242  12.8531  12.9712  13.0769  13.1609  13.2457  13.2470  13.3845
    13.3931  13.4225  13.4663  13.4963  13.5018  13.5372  13.5535  13.5541
    13.5683  13.5689  13.6167  13.7117  13.7812  13.8061  13.8739  13.9708
    14.0705  14.1257  14.1262  14.1531  14.2514  14.2545  14.2823  14.2857
    14.3138  14.3242  14.4449  14.5113  14.5239  14.5284  14.6621  14.7160
    14.7668  14.8010  14.8011  14.8353  14.8915  14.9118  14.9487  14.9602
    14.9894  15.0261  15.0426  15.0488  15.0797  15.0896  15.1707  15.1849
    15.1940  15.3372  15.3569  15.3707  15.4346  15.4646  15.4827  15.5118
    15.5628  15.5958  15.6008  15.7639  15.7663  15.7855  15.8268  15.9584
    15.9948  16.0502  16.0720  16.1027  16.1813  16.2214  16.2337  16.2402
    16.2883  16.3266  16.4323  16.4326  16.5673  16.7722  16.8635  17.1002
    17.5226  17.7361  17.7503

          k = 0.0556 0.3889 0.2682 ( 43762 PWs)   bands (ev):

   -58.4937 -58.4722 -58.4235 -58.4147 -58.4103 -58.4040 -58.3941 -58.3856
   -58.3778 -58.3768 -58.3735 -58.3730 -58.3694 -58.3528 -58.3498 -58.3429
   -57.9775 -57.9763 -57.9650 -57.9642 -57.9396 -57.9395 -57.9389 -57.9388
   -57.9337 -57.9336 -57.9322 -57.9321 -57.9052 -57.9052 -57.8920 -57.8920
   -28.7904 -28.7768 -28.7749 -28.7599 -28.7483 -28.7466 -28.7216 -28.7065
   -28.6999 -28.6990 -28.6925 -28.6870 -28.6857 -28.6668 -28.5607 -28.5539
   -28.4932 -28.4731 -28.4442 -28.4431 -28.4391 -28.4343 -28.4289 -28.4151
   -28.4094 -28.4093 -28.4074 -28.3878 -28.3774 -28.3699 -28.3652 -28.2993
   -28.2690 -28.2598 -28.2354 -28.2299 -28.2126 -28.2008 -28.2000 -28.1897
   -28.1791 -28.1741 -28.1725 -28.1703 -28.1644 -28.1640 -28.1361 -28.1143
   -28.1095 -28.0898 -28.0850 -28.0738 -28.0687 -28.0632 -28.0581 -28.0429
   -28.0420 -28.0299 -28.0277 -28.0258 -28.0159 -28.0091 -28.0075 -27.9823
   -27.8465 -27.8414 -27.8396 -27.8380 -27.8357 -27.8340 -27.8328 -27.8304
   -27.8295 -27.8280 -27.8275 -27.8266 -27.8215 -27.8202 -27.8168 -27.8159
   -27.8024 -27.7962 -27.7940 -27.7813 -27.7715 -27.7617 -27.7548 -27.7547
   -27.7514 -27.7428 -27.7271 -27.7241 -27.7214 -27.7176 -27.7034 -27.7014
     7.9003   8.5353   9.0378   9.1070   9.1360   9.2548   9.3340   9.3534
     9.3929   9.4413   9.4605   9.4813   9.4987   9.5029   9.5301   9.5434
     9.5653   9.6221   9.6980   9.7558   9.7876   9.8859   9.9371   9.9834
    10.0274  10.2934  10.3298  10.3693  10.3922  10.4038  10.4105  10.4212
    10.4429  10.4669  10.4839  10.5053  10.5369  10.6874  10.7291  10.7332
    10.7545  10.8331  10.8395  10.8957  10.9054  10.9489  10.9561  11.0370
    11.1661  11.1936  11.3610  11.4658  11.5941  11.6003  11.6592  11.6630
    11.6961  11.7734  11.8029  11.9253  11.9325  11.9410  12.0078  12.0231
    12.0445  12.1605  12.1702  12.2435  12.2478  12.2492  12.2948  12.3152
    12.3633  12.3641  12.3764  12.4070  12.4337  12.4461  12.4780  12.5019
    12.5218  12.5672  12.5904  12.6390  12.6395  12.6590  12.7643  12.7842
    12.8243  12.8529  12.9379  13.0874  13.1697  13.2205  13.2541  13.3875
    13.3878  13.3996  13.4662  13.4950  13.5008  13.5370  13.5444  13.5477
    13.5505  13.5547  13.5689  13.6857  13.7654  13.8106  13.8585  13.9729
    14.0825  14.1272  14.1298  14.1511  14.2486  14.2567  14.2786  14.3093
    14.3223  14.3746  14.4477  14.5078  14.5222  14.6177  14.6617  14.7410
    14.7620  14.7920  14.8006  14.8172  14.9213  14.9336  14.9444  14.9570
    15.0179  15.0246  15.0514  15.0545  15.0791  15.0946  15.1459  15.1470
    15.1713  15.3264  15.3285  15.3718  15.4349  15.4666  15.4767  15.5116
    15.5630  15.5834  15.5906  15.7635  15.7707  15.7878  15.8896  15.9608
    15.9954  16.0205  16.0503  16.1156  16.1825  16.2213  16.2215  16.2415
    16.3056  16.3255  16.4328  16.5130  16.5535  16.7531  16.8604  16.9070
    17.6448  17.7597  17.8966

          k = 0.0556 0.3889-0.3448 ( 43736 PWs)   bands (ev):

   -58.4937 -58.4722 -58.4235 -58.4147 -58.4103 -58.4040 -58.3941 -58.3856
   -58.3778 -58.3768 -58.3735 -58.3730 -58.3694 -58.3528 -58.3498 -58.3429
   -57.9775 -57.9762 -57.9650 -57.9642 -57.9396 -57.9395 -57.9389 -57.9388
   -57.9337 -57.9336 -57.9322 -57.9321 -57.9052 -57.9052 -57.8920 -57.8920
   -28.7904 -28.7768 -28.7749 -28.7599 -28.7483 -28.7467 -28.7216 -28.7065
   -28.6999 -28.6989 -28.6925 -28.6869 -28.6857 -28.6668 -28.5607 -28.5539
   -28.4932 -28.4731 -28.4442 -28.4431 -28.4391 -28.4343 -28.4289 -28.4151
   -28.4094 -28.4093 -28.4074 -28.3878 -28.3774 -28.3699 -28.3652 -28.2993
   -28.2690 -28.2598 -28.2354 -28.2299 -28.2126 -28.2008 -28.1999 -28.1896
   -28.1790 -28.1741 -28.1725 -28.1703 -28.1644 -28.1639 -28.1361 -28.1143
   -28.1095 -28.0898 -28.0851 -28.0738 -28.0687 -28.0632 -28.0581 -28.0429
   -28.0420 -28.0299 -28.0277 -28.0258 -28.0159 -28.0091 -28.0075 -27.9823
   -27.8465 -27.8414 -27.8396 -27.8380 -27.8357 -27.8340 -27.8329 -27.8304
   -27.8295 -27.8280 -27.8275 -27.8265 -27.8215 -27.8202 -27.8168 -27.8159
   -27.8024 -27.7962 -27.7940 -27.7813 -27.7715 -27.7617 -27.7548 -27.7547
   -27.7513 -27.7428 -27.7270 -27.7241 -27.7214 -27.7175 -27.7034 -27.7014
     7.9010   8.5358   9.0374   9.1071   9.1361   9.2549   9.3340   9.3535
     9.3930   9.4412   9.4605   9.4814   9.4959   9.5029   9.5302   9.5431
     9.5653   9.6221   9.6979   9.7557   9.7876   9.8859   9.9370   9.9812
    10.0284  10.2934  10.3296  10.3692  10.3922  10.4035  10.4103  10.4217
    10.4438  10.4668  10.4838  10.5059  10.5361  10.6869  10.7295  10.7330
    10.7535  10.8329  10.8394  10.8954  10.9051  10.9485  10.9553  11.0368
    11.1661  11.1936  11.3615  11.4656  11.5951  11.6011  11.6593  11.6629
    11.6963  11.7733  11.8051  11.9257  11.9337  11.9415  12.0144  12.0231
    12.0439  12.1626  12.1731  12.2435  12.2471  12.2490  12.2947  12.3175
    12.3634  12.3640  12.3764  12.4072  12.4335  12.4460  12.4783  12.5026
    12.5223  12.5825  12.5921  12.6394  12.6398  12.6582  12.7642  12.7850
    12.8243  12.8529  12.9251  13.0926  13.1736  13.2096  13.2566  13.3836
    13.3891  13.3902  13.4663  13.4945  13.5003  13.5190  13.5370  13.5442
    13.5452  13.5549  13.5689  13.6755  13.7595  13.8119  13.8525  13.9734
    14.0858  14.1274  14.1314  14.1503  14.2475  14.2577  14.2758  14.3075
    14.3215  14.4199  14.4487  14.5068  14.5215  14.6595  14.6618  14.7194
    14.7804  14.7899  14.8005  14.8044  14.9262  14.9427  14.9504  14.9557
    15.0144  15.0297  15.0548  15.0647  15.0788  15.0963  15.1279  15.1333
    15.1715  15.3161  15.3214  15.3722  15.4350  15.4673  15.4740  15.5115
    15.5631  15.5762  15.5890  15.7633  15.7724  15.7886  15.9181  15.9637
    15.9957  15.9988  16.0504  16.1200  16.1828  16.2168  16.2215  16.2425
    16.3134  16.3249  16.4330  16.4921  16.6076  16.7461  16.8316  16.8592
    17.6987  17.7693  17.8375

          k = 0.0556-0.5000 0.0383 ( 43776 PWs)   bands (ev):

   -58.4839 -58.4839 -58.4195 -58.4195 -58.4074 -58.4074 -58.3902 -58.3902
   -58.3752 -58.3751 -58.3727 -58.3727 -58.3622 -58.3622 -58.3460 -58.3460
   -57.9718 -57.9718 -57.9708 -57.9708 -57.9393 -57.9393 -57.9392 -57.9392
   -57.9329 -57.9329 -57.9328 -57.9328 -57.8981 -57.8981 -57.8981 -57.8980
   -28.7597 -28.7597 -28.7426 -28.7426 -28.7419 -28.7419 -28.7270 -28.7270
   -28.7197 -28.7197 -28.7183 -28.7183 -28.6838 -28.6838 -28.5593 -28.5593
   -28.4680 -28.4680 -28.4446 -28.4446 -28.4397 -28.4397 -28.4372 -28.4372
[...]
   -28.3401 -28.3401 -28.3401 -28.3401 -28.3401 -28.3401 -28.3401 -28.3401
   -28.2092 -28.2092 -28.2092 -28.2092 -28.1306 -28.1306 -28.1306 -28.1306
   -28.0405 -28.0405 -28.0405 -28.0405 -28.0405 -28.0405 -28.0405 -28.0405
   -27.9788 -27.9788 -27.9788 -27.9788 -27.9788 -27.9788 -27.9788 -27.9788
   -27.9604 -27.9604 -27.9604 -27.9604 -27.9307 -27.9307 -27.9307 -27.9307
   -27.8786 -27.8786 -27.8786 -27.8786 -27.8786 -27.8786 -27.8786 -27.8786
   -27.8299 -27.8299 -27.8299 -27.8299 -27.8151 -27.8151 -27.8151 -27.8151
   -27.7237 -27.7236 -27.7236 -27.7236 -27.7185 -27.7185 -27.7185 -27.7184
     8.6012   8.6012   8.6012   8.6012   9.2716   9.2716   9.2716   9.2716
     9.5320   9.5320   9.5320   9.5320   9.5320   9.5320   9.5320   9.5320
     9.5443   9.5443   9.5443   9.5443   9.6641   9.6641   9.6641   9.6641
     9.8985   9.8985   9.8985   9.8985   9.8986   9.8986   9.8986   9.8986
    10.2880  10.2880  10.2880  10.2880  10.4392  10.4392  10.4392  10.4392
    10.4392  10.4392  10.4392  10.4392  10.8683  10.8683  10.8683  10.8683
    10.8683  10.8683  10.8683  10.8683  11.1006  11.1006  11.1006  11.1006
    11.8154  11.8154  11.8154  11.8154  11.9888  11.9888  11.9888  11.9888
    12.3639  12.3639  12.3639  12.3639  12.4794  12.4794  12.4794  12.4795
    12.5067  12.5067  12.5067  12.5067  12.6075  12.6075  12.6075  12.6075
    12.6075  12.6075  12.6075  12.6075  12.6486  12.6486  12.6486  12.6486
    13.0948  13.0948  13.0948  13.0948  13.2823  13.2823  13.2823  13.2823
    13.3488  13.3488  13.3488  13.3488  13.3488  13.3488  13.3488  13.3488
    13.4204  13.4204  13.4204  13.4204  13.6579  13.6579  13.6579  13.6579
    13.6848  13.6848  13.6848  13.6849  13.6849  13.6849  13.6849  13.6849
    14.4015  14.4015  14.4015  14.4015  14.5152  14.5152  14.5153  14.5153
    14.5153  14.5153  14.5153  14.5153  14.6041  14.6041  14.6041  14.6041
    15.1034  15.1034  15.1034  15.1034  15.3263  15.3263  15.3263  15.3263
    15.3263  15.3263  15.3263  15.3263  15.4759  15.4759  15.4759  15.4759
    15.6023  15.6023  15.6023  15.6023  16.1744  16.1744  16.1744  16.1744
    16.2087  16.2087  16.2087  16.2087  16.2087  16.2087  16.2087  16.2087
    16.3519  16.3519  16.3519  16.3519  18.6346  18.6346  18.6346  18.6346
    19.2138  19.2138  19.2138

          k =-0.5000-0.5000 0.1916 ( 43780 PWs)   bands (ev):

   -58.4637 -58.4637 -58.4637 -58.4636 -58.4139 -58.4138 -58.4138 -58.4138
   -58.3727 -58.3727 -58.3727 -58.3727 -58.3727 -58.3727 -58.3727 -58.3727
   -58.0182 -58.0182 -58.0182 -58.0182 -58.0170 -58.0170 -58.0170 -58.0170
   -57.9721 -57.9721 -57.9721 -57.9721 -57.9721 -57.9721 -57.9721 -57.9721
   -28.7972 -28.7972 -28.7972 -28.7972 -28.7972 -28.7972 -28.7972 -28.7972
   -28.6886 -28.6886 -28.6886 -28.6886 -28.6558 -28.6558 -28.6558 -28.6558
   -28.5914 -28.5914 -28.5914 -28.5914 -28.5913 -28.5913 -28.5913 -28.5913
   -28.5049 -28.5049 -28.5049 -28.5049 -28.4059 -28.4059 -28.4059 -28.4059
   -28.3401 -28.3401 -28.3401 -28.3401 -28.3401 -28.3401 -28.3401 -28.3401
   -28.2092 -28.2092 -28.2092 -28.2091 -28.1306 -28.1306 -28.1306 -28.1306
   -28.0406 -28.0406 -28.0406 -28.0406 -28.0405 -28.0405 -28.0405 -28.0405
   -27.9788 -27.9788 -27.9788 -27.9788 -27.9788 -27.9788 -27.9788 -27.9788
   -27.9604 -27.9604 -27.9604 -27.9604 -27.9307 -27.9307 -27.9307 -27.9307
   -27.8786 -27.8786 -27.8786 -27.8786 -27.8786 -27.8786 -27.8786 -27.8786
   -27.8299 -27.8299 -27.8299 -27.8299 -27.8151 -27.8151 -27.8151 -27.8151
   -27.7237 -27.7237 -27.7237 -27.7237 -27.7184 -27.7184 -27.7184 -27.7184
     8.6016   8.6016   8.6016   8.6016   9.2715   9.2715   9.2715   9.2715
     9.5320   9.5320   9.5320   9.5320   9.5321   9.5321   9.5321   9.5321
     9.5413   9.5413   9.5413   9.5413   9.6668   9.6668   9.6668   9.6668
     9.8981   9.8981   9.8981   9.8981   9.8982   9.8982   9.8982   9.8982
    10.2873  10.2874  10.2874  10.2874  10.4399  10.4399  10.4399  10.4399
    10.4399  10.4399  10.4399  10.4399  10.8679  10.8680  10.8680  10.8680
    10.8680  10.8680  10.8680  10.8680  11.1015  11.1015  11.1015  11.1015
    11.8145  11.8145  11.8145  11.8145  11.9922  11.9922  11.9922  11.9922
    12.3777  12.3777  12.3777  12.3777  12.4665  12.4665  12.4665  12.4665
    12.5067  12.5067  12.5067  12.5067  12.6075  12.6075  12.6075  12.6075
    12.6075  12.6075  12.6075  12.6075  12.6486  12.6486  12.6486  12.6486
    13.0893  13.0893  13.0893  13.0893  13.2823  13.2823  13.2823  13.2824
    13.3489  13.3489  13.3489  13.3489  13.3489  13.3489  13.3489  13.3489
    13.4247  13.4247  13.4247  13.4247  13.6579  13.6579  13.6579  13.6579
    13.6880  13.6880  13.6880  13.6880  13.6880  13.6880  13.6880  13.6880
    14.3221  14.3221  14.3221  14.3221  14.5033  14.5033  14.5033  14.5033
    14.5033  14.5033  14.5033  14.5033  14.6265  14.6265  14.6266  14.6266
    15.1034  15.1034  15.1034  15.1034  15.3367  15.3367  15.3367  15.3367
    15.3367  15.3367  15.3367  15.3367  15.4757  15.4757  15.4757  15.4757
    15.7514  15.7514  15.7514  15.7514  16.1745  16.1745  16.1745  16.1745
    16.2091  16.2092  16.2092  16.2092  16.2092  16.2092  16.2092  16.2092
    16.3519  16.3519  16.3519  16.3519  18.3010  18.3011  18.3011  18.3011
    19.2247  19.2247  19.2247

          k =-0.5000-0.5000 0.2682 ( 43764 PWs)   bands (ev):

   -58.4637 -58.4636 -58.4636 -58.4636 -58.4139 -58.4139 -58.4139 -58.4139
   -58.3727 -58.3727 -58.3727 -58.3727 -58.3727 -58.3727 -58.3727 -58.3727
   -58.0182 -58.0182 -58.0182 -58.0182 -58.0170 -58.0170 -58.0170 -58.0170
   -57.9721 -57.9721 -57.9721 -57.9721 -57.9721 -57.9721 -57.9721 -57.9721
   -28.7972 -28.7972 -28.7972 -28.7972 -28.7972 -28.7971 -28.7971 -28.7971
   -28.6886 -28.6886 -28.6886 -28.6886 -28.6558 -28.6558 -28.6558 -28.6558
   -28.5913 -28.5913 -28.5913 -28.5913 -28.5913 -28.5913 -28.5913 -28.5913
   -28.5049 -28.5049 -28.5049 -28.5049 -28.4059 -28.4059 -28.4059 -28.4059
   -28.3401 -28.3401 -28.3401 -28.3401 -28.3401 -28.3401 -28.3401 -28.3401
   -28.2092 -28.2092 -28.2092 -28.2092 -28.1306 -28.1306 -28.1306 -28.1306
   -28.0406 -28.0406 -28.0406 -28.0406 -28.0405 -28.0405 -28.0405 -28.0405
   -27.9788 -27.9788 -27.9788 -27.9788 -27.9788 -27.9788 -27.9788 -27.9788
   -27.9604 -27.9604 -27.9604 -27.9604 -27.9307 -27.9307 -27.9307 -27.9307
   -27.8786 -27.8786 -27.8786 -27.8786 -27.8786 -27.8786 -27.8786 -27.8786
   -27.8299 -27.8299 -27.8299 -27.8299 -27.8151 -27.8151 -27.8151 -27.8151
   -27.7237 -27.7237 -27.7237 -27.7236 -27.7185 -27.7185 -27.7185 -27.7184
     8.6019   8.6019   8.6019   8.6020   9.2715   9.2715   9.2715   9.2715
     9.5321   9.5321   9.5321   9.5321   9.5321   9.5321   9.5321   9.5321
     9.5387   9.5387   9.5387   9.5387   9.6692   9.6692   9.6692   9.6692
     9.8978   9.8978   9.8978   9.8978   9.8979   9.8979   9.8979   9.8979
    10.2868  10.2868  10.2868  10.2868  10.4405  10.4405  10.4405  10.4405
    10.4405  10.4405  10.4405  10.4405  10.8677  10.8677  10.8677  10.8677
    10.8677  10.8677  10.8677  10.8677  11.1023  11.1023  11.1023  11.1023
    11.8138  11.8138  11.8138  11.8138  11.9951  11.9951  11.9951  11.9951
    12.3955  12.3955  12.3955  12.3955  12.4494  12.4494  12.4494  12.4494
    12.5067  12.5067  12.5067  12.5067  12.6074  12.6074  12.6074  12.6074
    12.6075  12.6075  12.6075  12.6075  12.6485  12.6485  12.6485  12.6486
    13.0844  13.0844  13.0844  13.0844  13.2824  13.2824  13.2824  13.2824
    13.3490  13.3490  13.3490  13.3490  13.3490  13.3490  13.3490  13.3490
    13.4285  13.4285  13.4285  13.4286  13.6579  13.6579  13.6579  13.6579
    13.6908  13.6908  13.6908  13.6908  13.6908  13.6908  13.6908  13.6908
    14.2671  14.2671  14.2671  14.2671  14.4929  14.4929  14.4930  14.4930
    14.4930  14.4930  14.4930  14.4930  14.6368  14.6368  14.6368  14.6368
    15.1035  15.1035  15.1035  15.1035  15.3456  15.3456  15.3456  15.3456
    15.3456  15.3456  15.3456  15.3456  15.4755  15.4756  15.4756  15.4756
    15.8912  15.8913  15.8913  15.8913  16.1746  16.1746  16.1746  16.1746
    16.2096  16.2096  16.2096  16.2096  16.2096  16.2096  16.2096  16.2096
    16.3519  16.3519  16.3519  16.3519  18.0450  18.0450  18.0450  18.0450
    19.2347  19.2347  19.2347

          k =-0.5000-0.5000-0.3448 ( 43784 PWs)   bands (ev):

   -58.4637 -58.4636 -58.4636 -58.4636 -58.4139 -58.4139 -58.4139 -58.4139
   -58.3727 -58.3727 -58.3727 -58.3727 -58.3727 -58.3727 -58.3727 -58.3727
   -58.0182 -58.0182 -58.0182 -58.0182 -58.0170 -58.0170 -58.0170 -58.0170
   -57.9721 -57.9721 -57.9721 -57.9721 -57.9721 -57.9721 -57.9721 -57.9721
   -28.7972 -28.7972 -28.7972 -28.7972 -28.7972 -28.7972 -28.7972 -28.7972
   -28.6886 -28.6886 -28.6886 -28.6886 -28.6558 -28.6558 -28.6558 -28.6558
   -28.5913 -28.5913 -28.5913 -28.5913 -28.5913 -28.5913 -28.5913 -28.5913
   -28.5049 -28.5049 -28.5049 -28.5049 -28.4059 -28.4059 -28.4059 -28.4059
   -28.3401 -28.3401 -28.3401 -28.3401 -28.3401 -28.3401 -28.3401 -28.3401
   -28.2092 -28.2092 -28.2092 -28.2092 -28.1306 -28.1306 -28.1306 -28.1306
   -28.0406 -28.0405 -28.0405 -28.0405 -28.0405 -28.0405 -28.0405 -28.0405
   -27.9788 -27.9788 -27.9788 -27.9788 -27.9788 -27.9788 -27.9788 -27.9788
   -27.9604 -27.9604 -27.9604 -27.9604 -27.9308 -27.9308 -27.9308 -27.9308
   -27.8786 -27.8786 -27.8786 -27.8786 -27.8786 -27.8786 -27.8786 -27.8786
   -27.8299 -27.8299 -27.8299 -27.8299 -27.8150 -27.8150 -27.8150 -27.8150
   -27.7237 -27.7236 -27.7236 -27.7236 -27.7185 -27.7184 -27.7184 -27.7184
     8.6020   8.6021   8.6021   8.6021   9.2715   9.2715   9.2715   9.2715
     9.5321   9.5321   9.5321   9.5321   9.5321   9.5321   9.5321   9.5321
     9.5378   9.5378   9.5378   9.5378   9.6700   9.6700   9.6700   9.6700
     9.8977   9.8977   9.8977   9.8977   9.8977   9.8977   9.8977   9.8977
    10.2866  10.2866  10.2866  10.2866  10.4407  10.4407  10.4407  10.4407
    10.4407  10.4407  10.4407  10.4408  10.8676  10.8676  10.8676  10.8676
    10.8676  10.8676  10.8676  10.8676  11.1026  11.1026  11.1026  11.1026
    11.8135  11.8135  11.8135  11.8135  11.9963  11.9963  11.9963  11.9963
    12.4077  12.4077  12.4077  12.4077  12.4375  12.4376  12.4376  12.4376
    12.5067  12.5067  12.5067  12.5067  12.6074  12.6074  12.6074  12.6074
    12.6075  12.6075  12.6075  12.6075  12.6485  12.6485  12.6485  12.6485
    13.0825  13.0825  13.0825  13.0825  13.2824  13.2824  13.2824  13.2824
    13.3490  13.3490  13.3490  13.3490  13.3490  13.3490  13.3490  13.3491
    13.4301  13.4301  13.4301  13.4301  13.6579  13.6579  13.6579  13.6579
    13.6919  13.6919  13.6919  13.6919  13.6919  13.6919  13.6919  13.6919
    14.2476  14.2476  14.2476  14.2476  14.4889  14.4889  14.4889  14.4889
    14.4889  14.4889  14.4889  14.4889  14.6397  14.6397  14.6397  14.6397
    15.1035  15.1035  15.1035  15.1035  15.3491  15.3491  15.3491  15.3491
    15.3491  15.3491  15.3491  15.3491  15.4755  15.4755  15.4755  15.4755
    15.9504  15.9505  15.9505  15.9505  16.1747  16.1747  16.1747  16.1747
    16.2097  16.2097  16.2097  16.2097  16.2097  16.2097  16.2097  16.2097
    16.3519  16.3519  16.3519  16.3519  17.9468  17.9468  17.9468  17.9468
    19.2388  19.2388  19.2388

     the Fermi energy is    14.5967 ev

!    total energy              =  -13811.75833967 Ry

     total all-electron energy =   -289988.148679 Ry
     estimated scf accuracy    <          4.2E-09 Ry
     smearing contrib. (-TS)   =      -0.00719887 Ry
     internal energy E=F+TS    =  -13811.75114080 Ry

     The total energy is F=E-TS. E is the sum of the following terms:
     one-electron contribution =   -7297.25608032 Ry
     hartree contribution      =    3907.76469073 Ry
     xc contribution           =    -926.65382478 Ry
     ewald contribution        =   -1906.22567615 Ry
     one-center paw contrib.   =   -7589.38025029 Ry

     convergence has been achieved in  10 iterations

     Forces acting on atoms (cartesian axes, Ry/au):

     atom    1 type  1   force =     0.00000000    0.00000000    0.00003914
     atom    2 type  1   force =    -0.00000347   -0.00000347    0.00004277
     atom    3 type  1   force =     0.00000055    0.00000000    0.00008072
     atom    4 type  1   force =     0.00000000    0.00000055    0.00008072
     atom    5 type  1   force =     0.00000000    0.00000000   -0.00008006
     atom    6 type  1   force =    -0.00000212   -0.00000212   -0.00008323
     atom    7 type  1   force =    -0.00000396    0.00000000   -0.00004071
     atom    8 type  1   force =     0.00000000   -0.00000396   -0.00004071
     atom    9 type  1   force =     0.00000000    0.00000000    0.00004287
     atom   10 type  1   force =    -0.00000347    0.00000347    0.00004277
     atom   11 type  1   force =    -0.00000106    0.00000000    0.00008231
     atom   12 type  1   force =     0.00000000   -0.00000055    0.00008072
     atom   13 type  1   force =     0.00000000    0.00000000   -0.00008277
     atom   14 type  1   force =    -0.00000212    0.00000212   -0.00008323
     atom   15 type  1   force =    -0.00000574    0.00000000   -0.00004154
     atom   16 type  1   force =     0.00000000    0.00000396   -0.00004071
     atom   17 type  1   force =     0.00000000    0.00000000    0.00004287
     atom   18 type  1   force =     0.00000347   -0.00000347    0.00004277
     atom   19 type  1   force =    -0.00000055    0.00000000    0.00008072
     atom   20 type  1   force =     0.00000000   -0.00000106    0.00008231
     atom   21 type  1   force =     0.00000000    0.00000000   -0.00008277
     atom   22 type  1   force =     0.00000212   -0.00000212   -0.00008323
     atom   23 type  1   force =     0.00000396    0.00000000   -0.00004071
     atom   24 type  1   force =     0.00000000   -0.00000574   -0.00004154
     atom   25 type  1   force =     0.00000000    0.00000000    0.00004658
     atom   26 type  1   force =     0.00000347    0.00000347    0.00004277
     atom   27 type  1   force =     0.00000106    0.00000000    0.00008231
     atom   28 type  1   force =     0.00000000    0.00000106    0.00008231
     atom   29 type  1   force =     0.00000000    0.00000000   -0.00008718
     atom   30 type  1   force =     0.00000212    0.00000212   -0.00008323
     atom   31 type  1   force =     0.00000574    0.00000000   -0.00004154
     atom   32 type  1   force =     0.00000000    0.00000574   -0.00004154

     Total force =     0.000370     Total SCF correction =     0.000133
     SCF correction compared to forces is large: reduce conv_thr to get better values


     Computing stress (Cartesian axis) and pressure

          total   stress  (Ry/bohr**3)                   (kbar)     P=      -28.38
  -0.00024395   0.00000000   0.00000000          -35.89        0.00        0.00
   0.00000000  -0.00024395   0.00000000            0.00      -35.89        0.00
   0.00000000   0.00000000  -0.00009090            0.00        0.00      -13.37

     Energy error            =      6.7E-06
     Gradient error          =      8.7E-05

     bfgs converged in   9 scf cycles and   8 bfgs steps
     (criteria: energy <  1.0E-04 Ry, force <  1.0E-03 Ry/Bohr)

     End of BFGS Geometry Optimization

     Final energy   =  -13811.7583396739 Ry

     File /scratch/ufKcxuvVQADzIuBL.bfgs deleted, as requested
Begin final coordinates

ATOMIC_POSITIONS (crystal)
Ru            0.0000000000        0.0000000000        0.0058846756
Ru            0.2500007131        0.2500007131        0.0058837003
Ru            0.2500000443        0.0000000000        0.1640445366
Ru            0.0000000000        0.2500000443        0.1640445366
Ru            0.0000000000        0.0000000000        0.6635411779
Ru            0.2500007773        0.2500007773        0.6635415464
Ru            0.2500007809        0.0000000000        0.8217022522
Ru            0.0000000000        0.2500007809        0.8217022522
Ru            0.0000000000        0.5000000000        0.0058837886
Ru            0.2500007131        0.7499992869        0.0058837003
Ru            0.2500005546        0.5000000000        0.1640443755
Ru            0.0000000000        0.7499999557        0.1640445366
Ru            0.0000000000        0.5000000000        0.6635415284
Ru            0.2500007773        0.7499992227        0.6635415464
Ru            0.2500011042        0.5000000000        0.8217032065
Ru            0.0000000000        0.7499992191        0.8217022522
Ru            0.5000000000        0.0000000000        0.0058837886
Ru            0.7499992869        0.2500007131        0.0058837003
Ru            0.7499999557        0.0000000000        0.1640445366
Ru            0.5000000000        0.2500005546        0.1640443755
Ru            0.5000000000        0.0000000000        0.6635415284
Ru            0.7499992227        0.2500007773        0.6635415464
Ru            0.7499992191        0.0000000000        0.8217022522
Ru            0.5000000000        0.2500011042        0.8217032065
Ru            0.5000000000        0.5000000000        0.0058824455
Ru            0.7499992869        0.7499992869        0.0058837003
Ru            0.7499994454        0.5000000000        0.1640443755
Ru            0.5000000000        0.7499994454        0.1640443755
Ru            0.5000000000        0.5000000000        0.6635419072
Ru            0.7499992227        0.7499992227        0.6635415464
Ru            0.7499988958        0.5000000000        0.8217032065
Ru            0.5000000000        0.7499988958        0.8217032065
End final coordinates



     Writing output data file /scratch/ufKcxuvVQADzIuBL.save/
 
     init_run     :     41.36s CPU     42.53s WALL (       1 calls)
     electrons    :  10859.02s CPU  10996.49s WALL (       9 calls)
     update_pot   :      3.04s CPU      3.15s WALL (       8 calls)
     forces       :    128.32s CPU    129.46s WALL (       9 calls)
     stress       :   1018.07s CPU   1024.68s WALL (       9 calls)

     Called by init_run:
     wfcinit      :     40.51s CPU     41.63s WALL (       1 calls)
     potinit      :      0.19s CPU      0.19s WALL (       1 calls)
     hinit0       :      0.12s CPU      0.12s WALL (       1 calls)

     Called by electrons:
     c_bands      :   9684.52s CPU   9801.96s WALL (     126 calls)
     sum_band     :   1155.63s CPU   1172.61s WALL (     126 calls)
     v_of_rho     :      2.02s CPU      2.14s WALL (     134 calls)
     newd         :      4.19s CPU      6.01s WALL (     134 calls)
     PAW_pot      :     12.33s CPU     12.98s WALL (     142 calls)
     mix_rho      :      0.68s CPU      0.79s WALL (     126 calls)

     Called by c_bands:
     init_us_2    :     60.31s CPU     61.01s WALL (   20925 calls)
     cegterg      :   9478.24s CPU   9591.65s WALL (    9450 calls)

     Called by *egterg:
     cdiaghg      :    915.19s CPU    923.70s WALL (   32333 calls)
     h_psi        :   4837.20s CPU   4909.91s WALL (   33083 calls)
     s_psi        :    444.01s CPU    447.02s WALL (   33083 calls)
     g_psi        :     12.46s CPU     12.68s WALL (   23558 calls)

     Called by h_psi:
     h_psi:calbec :    754.84s CPU    760.21s WALL (   33083 calls)
     vloc_psi     :   3602.71s CPU   3664.18s WALL (   33083 calls)
     add_vuspsi   :    446.99s CPU    452.36s WALL (   33083 calls)

     General routines
     calbec       :   1349.86s CPU   1359.16s WALL (   46508 calls)
     fft          :      3.57s CPU      3.67s WALL (    1958 calls)
     ffts         :      0.18s CPU      0.19s WALL (     260 calls)
     fftw         :   4227.97s CPU   4299.05s WALL (16777064 calls)
     interpolate  :      0.63s CPU      0.64s WALL (     134 calls)
 
     Parallel routines
     fft_scatt_xy :    289.27s CPU    293.75s WALL (16779282 calls)
     fft_scatt_yz :   3419.27s CPU   3478.89s WALL (16779282 calls)
 
     PWSCF        :      3h21m CPU      3h24m WALL

 
   This run was terminated on:  12:39: 8   2Dec2021            

=------------------------------------------------------------------------------=
   JOB DONE.
=------------------------------------------------------------------------------=
