
     Program PWSCF v.6.7MaX starts on 26Nov2021 at 13:18:13 

     This program is part of the open-source Quantum ESPRESSO suite
     for quantum simulation of materials; please cite
         "P. Giannozzi et al., J. Phys.:Condens. Matter 21 395502 (2009);
         "P. Giannozzi et al., J. Phys.:Condens. Matter 29 465901 (2017);
          URL http://www.quantum-espresso.org", 
     in publications or presentations arising from this work. More details at
     http://www.quantum-espresso.org/quote

     Parallel version (MPI & OpenMP), running on      72 processor cores
     Number of MPI processes:                72
     Threads/MPI process:                     1

     MPI processes distributed on     1 nodes
     R & G space division:  proc/nbgrp/npool/nimage =      72
     Reading input from fcc_088.in
Warning: card &CELL ignored
Warning: card CELL_DYNAMICS = 'BFGS', ignored
Warning: card CELL_FACTOR = 2.0, ignored
Warning: card PRESS = 0.0, ignored
Warning: card / ignored

     Current dimensions of program PWSCF are:
     Max number of different atomic species (ntypx) = 10
     Max number of k-points (npk) =  40000
     Max angular momentum in pseudopotentials (lmaxx) =  3
     file Fe.pbe-spn-kjpaw_psl.1.0.0.UPF: wavefunction(s)  3P 3D renormalized
     file Fe.pbe-spn-kjpaw_psl.1.0.0.UPF: wavefunction(s)  3P 3D renormalized
     file Fe.pbe-spn-kjpaw_psl.1.0.0.UPF: wavefunction(s)  3P 3D renormalized
     file Fe.pbe-spn-kjpaw_psl.1.0.0.UPF: wavefunction(s)  3P 3D renormalized

     Subspace diagonalization in iterative solution of the eigenvalue problem:
     one sub-group per band group will be used
     ELPA distributed-memory algorithm (size of sub-group:  8*  8 procs)

     Found symmetry operation: I + (  0.0000  0.0000 -0.5000)
     This is a supercell, fractional translations are disabled
     Message from routine setup:
     using ibrav=0 with symmetry is DISCOURAGED, use correct ibrav instead
 
     Parallelization info
     --------------------
     sticks:   dense  smooth     PW     G-vecs:    dense   smooth      PW
     Min          64      43     12                 3248     1745     254
     Max          65      44     13                 3257     1749     260
     Sum        4673    3105    865               234315   125837   18509
 


     bravais-lattice index     =            0
     lattice parameter (alat)  =      12.9382  a.u.
     unit-cell volume          =    1556.3329 (a.u.)^3
     number of atoms/cell      =           32
     number of atomic types    =            4
     number of electrons       =       512.00
     number of Kohn-Sham states=          307
     kinetic-energy cutoff     =      71.0000  Ry
     charge density cutoff     =     430.0000  Ry
     scf convergence threshold =      1.0E-06
     mixing beta               =       0.1000
     number of iterations used =           10  plain     mixing
     Exchange-correlation= SLA  PW   PBX  PBC
                           (   1   4   3   4   0   0   0)

     celldm(1)=  12.938187  celldm(2)=   0.000000  celldm(3)=   0.000000
     celldm(4)=   0.000000  celldm(5)=   0.000000  celldm(6)=   0.000000

     crystal axes: (cart. coord. in units of alat)
               a(1) = (   0.880000   0.000000   0.000000 )  
               a(2) = (   0.000000   0.927934   0.000000 )  
               a(3) = (   0.000000   0.000000   0.880000 )  

     reciprocal axes: (cart. coord. in units 2 pi/alat)
               b(1) = (  1.136364  0.000000  0.000000 )  
               b(2) = (  0.000000  1.077663  0.000000 )  
               b(3) = (  0.000000  0.000000  1.136364 )  


     PseudoPot. # 1 for Fe read from file:
     /rds/homes/b/bxp912/pp/Fe.pbe-spn-kjpaw_psl.1.0.0.UPF
     MD5 check sum: 42f43b795421b414b0dc916aa790dbcb
     Pseudo is Projector augmented-wave + core cor, Zval = 16.0
     Generated using &quot;atomic&quot; code by A. Dal Corso  v.6.3
     Shape of augmentation charge: PSQ
     Using radial grid of 1191 points,  6 beta functions with: 
                l(1) =   0
                l(2) =   0
                l(3) =   1
                l(4) =   1
                l(5) =   2
                l(6) =   2
     Q(r) pseudized with 0 coefficients 


     PseudoPot. # 2 for Fe read from file:
     /rds/homes/b/bxp912/pp/Fe.pbe-spn-kjpaw_psl.1.0.0.UPF
     MD5 check sum: 42f43b795421b414b0dc916aa790dbcb
     Pseudo is Projector augmented-wave + core cor, Zval = 16.0
     Generated using &quot;atomic&quot; code by A. Dal Corso  v.6.3
     Shape of augmentation charge: PSQ
     Using radial grid of 1191 points,  6 beta functions with: 
                l(1) =   0
                l(2) =   0
                l(3) =   1
                l(4) =   1
                l(5) =   2
                l(6) =   2
     Q(r) pseudized with 0 coefficients 


     PseudoPot. # 3 for Fe read from file:
     /rds/homes/b/bxp912/pp/Fe.pbe-spn-kjpaw_psl.1.0.0.UPF
     MD5 check sum: 42f43b795421b414b0dc916aa790dbcb
     Pseudo is Projector augmented-wave + core cor, Zval = 16.0
     Generated using &quot;atomic&quot; code by A. Dal Corso  v.6.3
     Shape of augmentation charge: PSQ
     Using radial grid of 1191 points,  6 beta functions with: 
                l(1) =   0
                l(2) =   0
                l(3) =   1
                l(4) =   1
                l(5) =   2
                l(6) =   2
     Q(r) pseudized with 0 coefficients 


     PseudoPot. # 4 for Fe read from file:
     /rds/homes/b/bxp912/pp/Fe.pbe-spn-kjpaw_psl.1.0.0.UPF
     MD5 check sum: 42f43b795421b414b0dc916aa790dbcb
     Pseudo is Projector augmented-wave + core cor, Zval = 16.0
     Generated using &quot;atomic&quot; code by A. Dal Corso  v.6.3
     Shape of augmentation charge: PSQ
     Using radial grid of 1191 points,  6 beta functions with: 
                l(1) =   0
                l(2) =   0
                l(3) =   1
                l(4) =   1
                l(5) =   2
                l(6) =   2
     Q(r) pseudized with 0 coefficients 


     atomic species   valence    mass     pseudopotential
        Fe1           16.00    55.84500     Fe( 1.00)
        Fe2           16.00    55.84500     Fe( 1.00)
        Fe3           16.00    55.84500     Fe( 1.00)
        Fe4           16.00    55.84500     Fe( 1.00)

     Starting magnetic structure 
     atomic species   magnetization
        Fe1          0.100
        Fe2         -0.100
        Fe3          0.100
        Fe4         -0.100

      8 Sym. Ops., with inversion, found



   Cartesian axes

     site n.     atom                  positions (alat units)
         1           Fe1 tau(   1) = (   0.0000000   0.0000000   0.0000000  )
         2           Fe2 tau(   2) = (   0.2200000   0.2319834   0.0000000  )
         3           Fe3 tau(   3) = (   0.2200000   0.0000000   0.2200000  )
         4           Fe4 tau(   4) = (   0.0000000   0.2319834   0.2200000  )
         5           Fe1 tau(   5) = (   0.0000000   0.0000000   0.4400000  )
         6           Fe2 tau(   6) = (   0.2200000   0.2319834   0.4400000  )
         7           Fe3 tau(   7) = (   0.2200000   0.0000000   0.6600000  )
         8           Fe4 tau(   8) = (   0.0000000   0.2319834   0.6600000  )
         9           Fe1 tau(   9) = (   0.0000000   0.4639668   0.0000000  )
        10           Fe2 tau(  10) = (   0.2200000   0.6959502   0.0000000  )
        11           Fe3 tau(  11) = (   0.2200000   0.4639668   0.2200000  )
        12           Fe4 tau(  12) = (   0.0000000   0.6959502   0.2200000  )
        13           Fe1 tau(  13) = (   0.0000000   0.4639668   0.4400000  )
        14           Fe2 tau(  14) = (   0.2200000   0.6959502   0.4400000  )
        15           Fe3 tau(  15) = (   0.2200000   0.4639668   0.6600000  )
        16           Fe4 tau(  16) = (   0.0000000   0.6959502   0.6600000  )
        17           Fe1 tau(  17) = (   0.4400000   0.0000000   0.0000000  )
        18           Fe2 tau(  18) = (   0.6600000   0.2319834   0.0000000  )
        19           Fe3 tau(  19) = (   0.6600000   0.0000000   0.2200000  )
        20           Fe4 tau(  20) = (   0.4400000   0.2319834   0.2200000  )
        21           Fe1 tau(  21) = (   0.4400000   0.0000000   0.4400000  )
        22           Fe2 tau(  22) = (   0.6600000   0.2319834   0.4400000  )
        23           Fe3 tau(  23) = (   0.6600000   0.0000000   0.6600000  )
        24           Fe4 tau(  24) = (   0.4400000   0.2319834   0.6600000  )
        25           Fe1 tau(  25) = (   0.4400000   0.4639668   0.0000000  )
        26           Fe2 tau(  26) = (   0.6600000   0.6959502   0.0000000  )
        27           Fe3 tau(  27) = (   0.6600000   0.4639668   0.2200000  )
        28           Fe4 tau(  28) = (   0.4400000   0.6959502   0.2200000  )
        29           Fe1 tau(  29) = (   0.4400000   0.4639668   0.4400000  )
        30           Fe2 tau(  30) = (   0.6600000   0.6959502   0.4400000  )
        31           Fe3 tau(  31) = (   0.6600000   0.4639668   0.6600000  )
        32           Fe4 tau(  32) = (   0.4400000   0.6959502   0.6600000  )

     number of k points=   125  Marzari-Vanderbilt smearing, width (Ry)=  0.0400

     Number of k-points >= 100: set verbosity='high' to print them.

     Dense  grid:   234315 G-vectors     FFT dimensions: (  75,  80,  75)

     Smooth grid:   125837 G-vectors     FFT dimensions: (  64,  72,  64)

     Estimated max dynamical RAM per process >     279.66 MB

     Estimated total dynamical RAM >      19.66 GB

     Check: negative core charge=   -0.000007
     Generating pointlists ...
     new r_m :   0.1283 (alat units)  1.6605 (a.u.) for type    1
     new r_m :   0.1283 (alat units)  1.6605 (a.u.) for type    2
     new r_m :   0.1283 (alat units)  1.6605 (a.u.) for type    3
     new r_m :   0.1283 (alat units)  1.6605 (a.u.) for type    4

     Initial potential from superposition of free atoms

     starting charge  511.98600, renormalised to  512.00000
     Starting wfcs are  320 randomized atomic wfcs
     Checking if some PAW data can be deallocated... 

     total cpu time spent up to now is       60.9 secs

     Self-consistent Calculation

     iteration #  1     ecut=    71.00 Ry     beta= 0.10
     Davidson diagonalization with overlap
     ethr =  1.00E-02,  avg # of iterations =  3.5

     Threshold (ethr) on eigenvalues was too large:
     Diagonalizing with lowered threshold

     Davidson diagonalization with overlap
     ethr =  4.34E-04,  avg # of iterations =  5.8

     total cpu time spent up to now is      477.4 secs

     total energy              =  -10532.50039272 Ry
     estimated scf accuracy    <       3.06639722 Ry

     total magnetization       =    -0.01 Bohr mag/cell
     absolute magnetization    =    29.63 Bohr mag/cell

     iteration #  2     ecut=    71.00 Ry     beta= 0.10
     Davidson diagonalization with overlap
     ethr =  5.99E-04,  avg # of iterations =  1.0

     total cpu time spent up to now is      630.0 secs

     total energy              =  -10531.84388397 Ry
     estimated scf accuracy    <       1.85905773 Ry

     total magnetization       =    -0.11 Bohr mag/cell
     absolute magnetization    =    28.88 Bohr mag/cell

     iteration #  3     ecut=    71.00 Ry     beta= 0.10
     Davidson diagonalization with overlap
     ethr =  3.63E-04,  avg # of iterations =  2.3

     negative rho (up, down):  8.472E-04 0.000E+00

     total cpu time spent up to now is      823.9 secs

     total energy              =  -10531.96471882 Ry
     estimated scf accuracy    <       1.37671915 Ry

     total magnetization       =     0.16 Bohr mag/cell
     absolute magnetization    =    26.59 Bohr mag/cell

     iteration #  4     ecut=    71.00 Ry     beta= 0.10
     Davidson diagonalization with overlap
     ethr =  2.69E-04,  avg # of iterations =  1.8

     negative rho (up, down):  8.728E-04 0.000E+00

     total cpu time spent up to now is      975.7 secs

     total energy              =  -10532.03378379 Ry
     estimated scf accuracy    <       0.34000053 Ry

     total magnetization       =     0.03 Bohr mag/cell
     absolute magnetization    =    25.68 Bohr mag/cell

     iteration #  5     ecut=    71.00 Ry     beta= 0.10
     Davidson diagonalization with overlap
     ethr =  6.64E-05,  avg # of iterations =  2.4

     negative rho (up, down):  6.929E-04 0.000E+00

     total cpu time spent up to now is     1129.2 secs

     total energy              =  -10532.04661220 Ry
     estimated scf accuracy    <       0.20508313 Ry

     total magnetization       =    -0.05 Bohr mag/cell
     absolute magnetization    =    25.27 Bohr mag/cell

     iteration #  6     ecut=    71.00 Ry     beta= 0.10
     Davidson diagonalization with overlap
     c_bands:  1 eigenvalues not converged
     ethr =  4.01E-05,  avg # of iterations =  1.5

     negative rho (up, down):  3.431E-04 0.000E+00

     total cpu time spent up to now is     1268.5 secs

     total energy              =  -10532.08237400 Ry
     estimated scf accuracy    <       0.18761193 Ry

     total magnetization       =    -0.03 Bohr mag/cell
     absolute magnetization    =    24.42 Bohr mag/cell

     iteration #  7     ecut=    71.00 Ry     beta= 0.10
     Davidson diagonalization with overlap
     c_bands:  1 eigenvalues not converged
     ethr =  3.66E-05,  avg # of iterations =  2.1

     negative rho (up, down):  4.438E-04 0.000E+00

     total cpu time spent up to now is     1444.2 secs

     total energy              =  -10532.12574619 Ry
     estimated scf accuracy    <       0.18882319 Ry

     total magnetization       =     0.01 Bohr mag/cell
     absolute magnetization    =    21.80 Bohr mag/cell

     iteration #  8     ecut=    71.00 Ry     beta= 0.10
     Davidson diagonalization with overlap
     c_bands:  1 eigenvalues not converged
     ethr =  3.66E-05,  avg # of iterations =  1.4

     negative rho (up, down):  3.642E-04 0.000E+00

     total cpu time spent up to now is     1585.3 secs

     total energy              =  -10532.12943298 Ry
     estimated scf accuracy    <       0.15551956 Ry

     total magnetization       =    -0.02 Bohr mag/cell
     absolute magnetization    =    20.99 Bohr mag/cell

     iteration #  9     ecut=    71.00 Ry     beta= 0.10
     Davidson diagonalization with overlap
     ethr =  3.04E-05,  avg # of iterations =  1.4

     total cpu time spent up to now is     1727.0 secs

     total energy              =  -10532.16690075 Ry
     estimated scf accuracy    <       0.12730894 Ry

     total magnetization       =    -0.01 Bohr mag/cell
     absolute magnetization    =    20.67 Bohr mag/cell

     iteration # 10     ecut=    71.00 Ry     beta= 0.10
     Davidson diagonalization with overlap
     ethr =  2.49E-05,  avg # of iterations =  5.6

     total cpu time spent up to now is     1995.7 secs

     total energy              =  -10532.25511233 Ry
     estimated scf accuracy    <       0.15148416 Ry

     total magnetization       =    -0.06 Bohr mag/cell
     absolute magnetization    =    12.76 Bohr mag/cell

     iteration # 11     ecut=    71.00 Ry     beta= 0.10
     Davidson diagonalization with overlap
     ethr =  2.49E-05,  avg # of iterations =  2.0

     total cpu time spent up to now is     2163.9 secs

     total energy              =  -10532.26547484 Ry
     estimated scf accuracy    <       0.02691407 Ry

     total magnetization       =    -0.02 Bohr mag/cell
     absolute magnetization    =    10.75 Bohr mag/cell

     iteration # 12     ecut=    71.00 Ry     beta= 0.10
     Davidson diagonalization with overlap
     ethr =  5.26E-06,  avg # of iterations =  3.6

     total cpu time spent up to now is     2338.0 secs

     total energy              =  -10532.26997499 Ry
     estimated scf accuracy    <       0.01517058 Ry

     total magnetization       =    -0.01 Bohr mag/cell
     absolute magnetization    =    10.27 Bohr mag/cell

     iteration # 13     ecut=    71.00 Ry     beta= 0.10
     Davidson diagonalization with overlap
     ethr =  2.96E-06,  avg # of iterations =  2.4

     total cpu time spent up to now is     2500.4 secs

     total energy              =  -10532.27740257 Ry
     estimated scf accuracy    <       0.01447966 Ry

     total magnetization       =    -0.02 Bohr mag/cell
     absolute magnetization    =     9.81 Bohr mag/cell

     iteration # 14     ecut=    71.00 Ry     beta= 0.10
     Davidson diagonalization with overlap
     ethr =  2.83E-06,  avg # of iterations =  3.3

     total cpu time spent up to now is     2692.6 secs

     total energy              =  -10532.28194122 Ry
     estimated scf accuracy    <       0.02703548 Ry

     total magnetization       =    -0.02 Bohr mag/cell
     absolute magnetization    =     8.45 Bohr mag/cell

     iteration # 15     ecut=    71.00 Ry     beta= 0.10
     Davidson diagonalization with overlap
     ethr =  2.83E-06,  avg # of iterations =  4.1

     total cpu time spent up to now is     2892.2 secs

     total energy              =  -10532.29432398 Ry
     estimated scf accuracy    <       0.00636245 Ry

     total magnetization       =    -0.00 Bohr mag/cell
     absolute magnetization    =     5.49 Bohr mag/cell

     iteration # 16     ecut=    71.00 Ry     beta= 0.10
     Davidson diagonalization with overlap
     ethr =  1.24E-06,  avg # of iterations =  3.1

     total cpu time spent up to now is     3078.6 secs

     total energy              =  -10532.29802093 Ry
     estimated scf accuracy    <       0.00295167 Ry

     total magnetization       =    -0.00 Bohr mag/cell
     absolute magnetization    =     4.10 Bohr mag/cell

     iteration # 17     ecut=    71.00 Ry     beta= 0.10
     Davidson diagonalization with overlap
     ethr =  5.76E-07,  avg # of iterations =  4.8

     total cpu time spent up to now is     3342.1 secs

     total energy              =  -10532.29851130 Ry
     estimated scf accuracy    <       0.00492456 Ry

     total magnetization       =     0.00 Bohr mag/cell
     absolute magnetization    =     2.92 Bohr mag/cell

     iteration # 18     ecut=    71.00 Ry     beta= 0.10
     Davidson diagonalization with overlap
     ethr =  5.76E-07,  avg # of iterations =  2.9

     total cpu time spent up to now is     3531.9 secs

     total energy              =  -10532.29902444 Ry
     estimated scf accuracy    <       0.00219762 Ry

     total magnetization       =    -0.00 Bohr mag/cell
     absolute magnetization    =     3.07 Bohr mag/cell

     iteration # 19     ecut=    71.00 Ry     beta= 0.10
     Davidson diagonalization with overlap
     ethr =  4.29E-07,  avg # of iterations =  4.2

     total cpu time spent up to now is     3737.3 secs

     total energy              =  -10532.30166507 Ry
     estimated scf accuracy    <       0.00144987 Ry

     total magnetization       =     0.00 Bohr mag/cell
     absolute magnetization    =     1.60 Bohr mag/cell

     iteration # 20     ecut=    71.00 Ry     beta= 0.10
     Davidson diagonalization with overlap
     ethr =  2.83E-07,  avg # of iterations =  2.2

     total cpu time spent up to now is     3911.2 secs

     total energy              =  -10532.30221652 Ry
     estimated scf accuracy    <       0.00064057 Ry

     total magnetization       =     0.00 Bohr mag/cell
     absolute magnetization    =     0.93 Bohr mag/cell

     iteration # 21     ecut=    71.00 Ry     beta= 0.10
     Davidson diagonalization with overlap
     ethr =  1.25E-07,  avg # of iterations =  2.1

     total cpu time spent up to now is     4068.9 secs

     total energy              =  -10532.30232506 Ry
     estimated scf accuracy    <       0.00039687 Ry

     total magnetization       =     0.00 Bohr mag/cell
     absolute magnetization    =     0.76 Bohr mag/cell

     iteration # 22     ecut=    71.00 Ry     beta= 0.10
     Davidson diagonalization with overlap
     ethr =  7.75E-08,  avg # of iterations =  2.3

     total cpu time spent up to now is     4234.4 secs

     total energy              =  -10532.30247942 Ry
     estimated scf accuracy    <       0.00035865 Ry

     total magnetization       =     0.00 Bohr mag/cell
     absolute magnetization    =     0.67 Bohr mag/cell

     iteration # 23     ecut=    71.00 Ry     beta= 0.10
     Davidson diagonalization with overlap
     ethr =  7.00E-08,  avg # of iterations =  3.2

     total cpu time spent up to now is     4413.6 secs

     total energy              =  -10532.30250915 Ry
     estimated scf accuracy    <       0.00040385 Ry

     total magnetization       =     0.00 Bohr mag/cell
     absolute magnetization    =     0.44 Bohr mag/cell

     iteration # 24     ecut=    71.00 Ry     beta= 0.10
     Davidson diagonalization with overlap
     ethr =  7.00E-08,  avg # of iterations =  2.2

     total cpu time spent up to now is     4574.9 secs

     total energy              =  -10532.30257019 Ry
     estimated scf accuracy    <       0.00013545 Ry

     total magnetization       =     0.00 Bohr mag/cell
     absolute magnetization    =     0.20 Bohr mag/cell

     iteration # 25     ecut=    71.00 Ry     beta= 0.10
     Davidson diagonalization with overlap
     ethr =  2.65E-08,  avg # of iterations =  3.5

     total cpu time spent up to now is     4761.6 secs

     total energy              =  -10532.30256757 Ry
     estimated scf accuracy    <       0.00004893 Ry

     total magnetization       =     0.00 Bohr mag/cell
     absolute magnetization    =     0.11 Bohr mag/cell

     iteration # 26     ecut=    71.00 Ry     beta= 0.10
     Davidson diagonalization with overlap
     ethr =  9.56E-09,  avg # of iterations =  4.1

     total cpu time spent up to now is     4970.8 secs

     total energy              =  -10532.30260275 Ry
     estimated scf accuracy    <       0.00004163 Ry

     total magnetization       =     0.00 Bohr mag/cell
     absolute magnetization    =     0.13 Bohr mag/cell

     iteration # 27     ecut=    71.00 Ry     beta= 0.10
     Davidson diagonalization with overlap
     ethr =  8.13E-09,  avg # of iterations =  2.0

     total cpu time spent up to now is     5129.4 secs

     total energy              =  -10532.30260888 Ry
     estimated scf accuracy    <       0.00002319 Ry

     total magnetization       =     0.00 Bohr mag/cell
     absolute magnetization    =     0.19 Bohr mag/cell

     iteration # 28     ecut=    71.00 Ry     beta= 0.10
     Davidson diagonalization with overlap
     ethr =  4.53E-09,  avg # of iterations =  2.1

     total cpu time spent up to now is     5285.0 secs

     total energy              =  -10532.30261819 Ry
     estimated scf accuracy    <       0.00001958 Ry

     total magnetization       =     0.00 Bohr mag/cell
     absolute magnetization    =     0.22 Bohr mag/cell

     iteration # 29     ecut=    71.00 Ry     beta= 0.10
     Davidson diagonalization with overlap
     ethr =  3.82E-09,  avg # of iterations =  1.4

     total cpu time spent up to now is     5433.0 secs

     total energy              =  -10532.30262282 Ry
     estimated scf accuracy    <       0.00001472 Ry

     total magnetization       =     0.00 Bohr mag/cell
     absolute magnetization    =     0.19 Bohr mag/cell

     iteration # 30     ecut=    71.00 Ry     beta= 0.10
     Davidson diagonalization with overlap
     ethr =  2.88E-09,  avg # of iterations =  2.2

     total cpu time spent up to now is     5614.8 secs

     total energy              =  -10532.30263088 Ry
     estimated scf accuracy    <       0.00001207 Ry

     total magnetization       =     0.00 Bohr mag/cell
     absolute magnetization    =     0.10 Bohr mag/cell

     iteration # 31     ecut=    71.00 Ry     beta= 0.10
     Davidson diagonalization with overlap
     ethr =  2.36E-09,  avg # of iterations =  2.6

     total cpu time spent up to now is     5785.1 secs

     total energy              =  -10532.30263543 Ry
     estimated scf accuracy    <       0.00000624 Ry

     total magnetization       =     0.00 Bohr mag/cell
     absolute magnetization    =     0.04 Bohr mag/cell

     iteration # 32     ecut=    71.00 Ry     beta= 0.10
     Davidson diagonalization with overlap
     ethr =  1.22E-09,  avg # of iterations =  2.0

     total cpu time spent up to now is     5939.8 secs

     total energy              =  -10532.30263786 Ry
     estimated scf accuracy    <       0.00000464 Ry

     total magnetization       =     0.00 Bohr mag/cell
     absolute magnetization    =     0.03 Bohr mag/cell

     iteration # 33     ecut=    71.00 Ry     beta= 0.10
     Davidson diagonalization with overlap
     ethr =  9.06E-10,  avg # of iterations =  2.1

     total cpu time spent up to now is     6104.4 secs

     total energy              =  -10532.30263935 Ry
     estimated scf accuracy    <       0.00000469 Ry

     total magnetization       =     0.00 Bohr mag/cell
     absolute magnetization    =     0.03 Bohr mag/cell

     iteration # 34     ecut=    71.00 Ry     beta= 0.10
     Davidson diagonalization with overlap
     ethr =  9.06E-10,  avg # of iterations =  1.6

     total cpu time spent up to now is     6248.9 secs

     total energy              =  -10532.30263964 Ry
     estimated scf accuracy    <       0.00000119 Ry

     total magnetization       =     0.00 Bohr mag/cell
     absolute magnetization    =     0.02 Bohr mag/cell

     iteration # 35     ecut=    71.00 Ry     beta= 0.10
     Davidson diagonalization with overlap
     ethr =  2.32E-10,  avg # of iterations =  2.2
 
     Magnetic moment per site:
     atom:    1    charge:   14.0815    magn:   -0.0005    constr:    0.0000
     atom:    2    charge:   14.0819    magn:   -0.0002    constr:    0.0000
     atom:    3    charge:   14.0821    magn:   -0.0008    constr:    0.0000
     atom:    4    charge:   14.0819    magn:    0.0008    constr:    0.0000
     atom:    5    charge:   14.0815    magn:   -0.0007    constr:    0.0000
     atom:    6    charge:   14.0820    magn:    0.0010    constr:    0.0000
     atom:    7    charge:   14.0821    magn:   -0.0008    constr:    0.0000
     atom:    8    charge:   14.0819    magn:    0.0008    constr:    0.0000
     atom:    9    charge:   14.0815    magn:   -0.0005    constr:    0.0000
     atom:   10    charge:   14.0819    magn:   -0.0002    constr:    0.0000
     atom:   11    charge:   14.0820    magn:   -0.0007    constr:    0.0000
     atom:   12    charge:   14.0819    magn:    0.0008    constr:    0.0000
     atom:   13    charge:   14.0814    magn:   -0.0007    constr:    0.0000
     atom:   14    charge:   14.0820    magn:    0.0010    constr:    0.0000
     atom:   15    charge:   14.0820    magn:   -0.0007    constr:    0.0000
     atom:   16    charge:   14.0819    magn:    0.0008    constr:    0.0000
     atom:   17    charge:   14.0814    magn:   -0.0008    constr:    0.0000
     atom:   18    charge:   14.0819    magn:   -0.0002    constr:    0.0000
     atom:   19    charge:   14.0821    magn:   -0.0008    constr:    0.0000
     atom:   20    charge:   14.0820    magn:    0.0021    constr:    0.0000
     atom:   21    charge:   14.0825    magn:   -0.0014    constr:    0.0000
     atom:   22    charge:   14.0820    magn:    0.0010    constr:    0.0000
     atom:   23    charge:   14.0821    magn:   -0.0008    constr:    0.0000
     atom:   24    charge:   14.0820    magn:    0.0021    constr:    0.0000
     atom:   25    charge:   14.0814    magn:   -0.0010    constr:    0.0000
     atom:   26    charge:   14.0819    magn:   -0.0002    constr:    0.0000
     atom:   27    charge:   14.0820    magn:   -0.0007    constr:    0.0000
     atom:   28    charge:   14.0820    magn:    0.0021    constr:    0.0000
     atom:   29    charge:   14.0826    magn:   -0.0012    constr:    0.0000
     atom:   30    charge:   14.0820    magn:    0.0010    constr:    0.0000
     atom:   31    charge:   14.0820    magn:   -0.0007    constr:    0.0000
     atom:   32    charge:   14.0820    magn:    0.0021    constr:    0.0000

     total cpu time spent up to now is     6422.9 secs

     End of self-consistent calculation

     Number of k-points >= 100: set verbosity='high' to print the bands.

     the Fermi energy is    31.0159 ev

!    total energy              =  -10532.30264091 Ry

     total all-electron energy =    -81453.791699 Ry
     estimated scf accuracy    <       0.00000066 Ry
     smearing contrib. (-TS)   =       0.01633372 Ry
     internal energy E=F+TS    =  -10532.31897463 Ry

     The total energy is F=E-TS. E is the sum of the following terms:
     one-electron contribution =   -2102.39794533 Ry
     hartree contribution      =    1600.73245118 Ry
     xc contribution           =    -899.66757105 Ry
     ewald contribution        =   -6481.66799233 Ry
     one-center paw contrib.   =   -2649.31791711 Ry

     total magnetization       =     0.00 Bohr mag/cell
     absolute magnetization    =     0.03 Bohr mag/cell

     convergence has been achieved in  35 iterations

     Forces acting on atoms (cartesian axes, Ry/au):

     atom    1 type  1   force =     0.00000000    0.00000000    0.00000000
     atom    2 type  2   force =     0.00040179   -0.00001249    0.00000000
     atom    3 type  3   force =     0.00032940    0.00000000    0.00024862
     atom    4 type  4   force =     0.00000000   -0.00005708    0.00034245
     atom    5 type  1   force =     0.00000000    0.00000000    0.00000000
     atom    6 type  2   force =     0.00025424   -0.00000775    0.00000000
     atom    7 type  3   force =     0.00032940    0.00000000   -0.00024862
     atom    8 type  4   force =     0.00000000   -0.00005708   -0.00034245
     atom    9 type  1   force =     0.00000000    0.00000000    0.00000000
     atom   10 type  2   force =     0.00040179    0.00001249   -0.00000000
     atom   11 type  3   force =     0.00038909    0.00000000    0.00029234
     atom   12 type  4   force =     0.00000000    0.00005708    0.00034245
     atom   13 type  1   force =     0.00000000    0.00000000    0.00000000
     atom   14 type  2   force =     0.00025424    0.00000775   -0.00000000
     atom   15 type  3   force =     0.00038909    0.00000000   -0.00029234
     atom   16 type  4   force =     0.00000000    0.00005708   -0.00034245
     atom   17 type  1   force =     0.00000000    0.00000000    0.00000000
     atom   18 type  2   force =    -0.00040179   -0.00001249   -0.00000000
     atom   19 type  3   force =    -0.00032940    0.00000000    0.00024862
     atom   20 type  4   force =     0.00000000   -0.00005790    0.00028492
     atom   21 type  1   force =     0.00000000    0.00000000    0.00000000
     atom   22 type  2   force =    -0.00025424   -0.00000775    0.00000000
     atom   23 type  3   force =    -0.00032940    0.00000000   -0.00024862
     atom   24 type  4   force =    -0.00000000   -0.00005790   -0.00028492
     atom   25 type  1   force =     0.00000000    0.00000000    0.00000000
     atom   26 type  2   force =    -0.00040179    0.00001249    0.00000000
     atom   27 type  3   force =    -0.00038909    0.00000000    0.00029234
     atom   28 type  4   force =     0.00000000    0.00005790    0.00028492
     atom   29 type  1   force =     0.00000000    0.00000000    0.00000000
     atom   30 type  2   force =    -0.00025424    0.00000775    0.00000000
     atom   31 type  3   force =    -0.00038909   -0.00000000   -0.00029234
     atom   32 type  4   force =     0.00000000    0.00005790   -0.00028492

     Total force =     0.001831     Total SCF correction =     0.004039
     SCF correction compared to forces is large: reduce conv_thr to get better values


     Computing stress (Cartesian axis) and pressure

          total   stress  (Ry/bohr**3)                   (kbar)     P=     2196.83
   0.01557641   0.00000000   0.00000000         2291.37        0.00        0.00
   0.00000000   0.01364861   0.00000000            0.00     2007.78        0.00
   0.00000000   0.00000000   0.01557618            0.00        0.00     2291.33


     Writing output data file /scratch/bxp912/fecohfcc088.save/
 
     init_run     :     55.05s CPU     56.26s WALL (       1 calls)
     electrons    :   6273.76s CPU   6362.01s WALL (       1 calls)
     forces       :     29.15s CPU     29.35s WALL (       1 calls)
     stress       :    101.57s CPU    102.26s WALL (       1 calls)

     Called by init_run:
     wfcinit      :     54.28s CPU     55.31s WALL (       1 calls)
     potinit      :      0.29s CPU      0.35s WALL (       1 calls)
     hinit0       :      0.22s CPU      0.27s WALL (       1 calls)

     Called by electrons:
     c_bands      :   5509.07s CPU   5583.16s WALL (      36 calls)
     sum_band     :    755.65s CPU    769.09s WALL (      36 calls)
     v_of_rho     :      0.83s CPU      0.88s WALL (      36 calls)
     newd         :      1.52s CPU      1.82s WALL (      36 calls)
     PAW_pot      :      6.41s CPU      6.77s WALL (      36 calls)
     mix_rho      :      0.36s CPU      0.40s WALL (      36 calls)

     Called by c_bands:
     init_us_2    :     15.89s CPU     16.68s WALL (   18750 calls)
     cegterg      :   5433.14s CPU   5504.71s WALL (    9000 calls)

     Called by *egterg:
     cdiaghg      :    829.26s CPU    834.86s WALL (   33051 calls)
     h_psi        :   2983.87s CPU   3035.96s WALL (   33551 calls)
     s_psi        :    163.19s CPU    164.31s WALL (   33551 calls)
     g_psi        :      3.53s CPU      3.57s WALL (   24301 calls)

     Called by h_psi:
     h_psi:calbec :    421.32s CPU    424.22s WALL (   33551 calls)
     vloc_psi     :   2385.98s CPU   2432.66s WALL (   33551 calls)
     add_vuspsi   :    167.79s CPU    170.24s WALL (   33551 calls)

     General routines
     calbec       :    645.22s CPU    649.67s WALL (   43801 calls)
     fft          :      0.62s CPU      0.68s WALL (     940 calls)
     ffts         :      0.05s CPU      0.05s WALL (     144 calls)
     fftw         :   2866.56s CPU   2922.18s WALL (15387814 calls)
     interpolate  :      0.07s CPU      0.07s WALL (      72 calls)
 
     Parallel routines
     fft_scatt_xy :    152.55s CPU    155.38s WALL (15388898 calls)
     fft_scatt_yz :   2552.49s CPU   2603.48s WALL (15388898 calls)
 
     PWSCF        :      1h48m CPU      1h50m WALL

 
   This run was terminated on:  15: 8:15  26Nov2021            

=------------------------------------------------------------------------------=
   JOB DONE.
=------------------------------------------------------------------------------=
