
     Program PWSCF v.6.7MaX starts on  1Dec2021 at 19:34: 9 

     This program is part of the open-source Quantum ESPRESSO suite
     for quantum simulation of materials; please cite
         "P. Giannozzi et al., J. Phys.:Condens. Matter 21 395502 (2009);
         "P. Giannozzi et al., J. Phys.:Condens. Matter 29 465901 (2017);
          URL http://www.quantum-espresso.org", 
     in publications or presentations arising from this work. More details at
     http://www.quantum-espresso.org/quote

     Parallel version (MPI & OpenMP), running on      72 processor cores
     Number of MPI processes:                72
     Threads/MPI process:                     1

     MPI processes distributed on     1 nodes
     R & G space division:  proc/nbgrp/npool/nimage =      72
     Reading input from fcc_112.in
Warning: card &CELL ignored
Warning: card CELL_DYNAMICS = 'BFGS', ignored
Warning: card CELL_FACTOR = 2.0, ignored
Warning: card PRESS = 0.0, ignored
Warning: card / ignored

     Current dimensions of program PWSCF are:
     Max number of different atomic species (ntypx) = 10
     Max number of k-points (npk) =  40000
     Max angular momentum in pseudopotentials (lmaxx) =  3
     file Fe.pbe-spn-kjpaw_psl.1.0.0.UPF: wavefunction(s)  3P 3D renormalized
     file Fe.pbe-spn-kjpaw_psl.1.0.0.UPF: wavefunction(s)  3P 3D renormalized
     file Fe.pbe-spn-kjpaw_psl.1.0.0.UPF: wavefunction(s)  3P 3D renormalized
     file Fe.pbe-spn-kjpaw_psl.1.0.0.UPF: wavefunction(s)  3P 3D renormalized

     Subspace diagonalization in iterative solution of the eigenvalue problem:
     one sub-group per band group will be used
     ELPA distributed-memory algorithm (size of sub-group:  8*  8 procs)

     Found symmetry operation: I + (  0.0000  0.0000 -0.5000)
     This is a supercell, fractional translations are disabled
     Message from routine setup:
     using ibrav=0 with symmetry is DISCOURAGED, use correct ibrav instead
 
     Parallelization info
     --------------------
     sticks:   dense  smooth     PW     G-vecs:    dense   smooth      PW
     Min         105      69     18                 6709     3597     508
     Max         106      70     19                 6714     3604     515
     Sum        7579    4993   1367               483237   259189   36939
 


     bravais-lattice index     =            0
     lattice parameter (alat)  =      12.9382  a.u.
     unit-cell volume          =    3208.5480 (a.u.)^3
     number of atoms/cell      =           32
     number of atomic types    =            4
     number of electrons       =       512.00
     number of Kohn-Sham states=          307
     kinetic-energy cutoff     =      71.0000  Ry
     charge density cutoff     =     430.0000  Ry
     scf convergence threshold =      1.0E-06
     mixing beta               =       0.1000
     number of iterations used =           10  plain     mixing
     Exchange-correlation= SLA  PW   PBX  PBC
                           (   1   4   3   4   0   0   0)

     celldm(1)=  12.938187  celldm(2)=   0.000000  celldm(3)=   0.000000
     celldm(4)=   0.000000  celldm(5)=   0.000000  celldm(6)=   0.000000

     crystal axes: (cart. coord. in units of alat)
               a(1) = (   1.120000   0.000000   0.000000 )  
               a(2) = (   0.000000   1.181006   0.000000 )  
               a(3) = (   0.000000   0.000000   1.120000 )  

     reciprocal axes: (cart. coord. in units 2 pi/alat)
               b(1) = (  0.892857  0.000000  0.000000 )  
               b(2) = (  0.000000  0.846735  0.000000 )  
               b(3) = (  0.000000  0.000000  0.892857 )  


     PseudoPot. # 1 for Fe read from file:
     /rds/homes/b/bxp912/pp/Fe.pbe-spn-kjpaw_psl.1.0.0.UPF
     MD5 check sum: 42f43b795421b414b0dc916aa790dbcb
     Pseudo is Projector augmented-wave + core cor, Zval = 16.0
     Generated using &quot;atomic&quot; code by A. Dal Corso  v.6.3
     Shape of augmentation charge: PSQ
     Using radial grid of 1191 points,  6 beta functions with: 
                l(1) =   0
                l(2) =   0
                l(3) =   1
                l(4) =   1
                l(5) =   2
                l(6) =   2
     Q(r) pseudized with 0 coefficients 


     PseudoPot. # 2 for Fe read from file:
     /rds/homes/b/bxp912/pp/Fe.pbe-spn-kjpaw_psl.1.0.0.UPF
     MD5 check sum: 42f43b795421b414b0dc916aa790dbcb
     Pseudo is Projector augmented-wave + core cor, Zval = 16.0
     Generated using &quot;atomic&quot; code by A. Dal Corso  v.6.3
     Shape of augmentation charge: PSQ
     Using radial grid of 1191 points,  6 beta functions with: 
                l(1) =   0
                l(2) =   0
                l(3) =   1
                l(4) =   1
                l(5) =   2
                l(6) =   2
     Q(r) pseudized with 0 coefficients 


     PseudoPot. # 3 for Fe read from file:
     /rds/homes/b/bxp912/pp/Fe.pbe-spn-kjpaw_psl.1.0.0.UPF
     MD5 check sum: 42f43b795421b414b0dc916aa790dbcb
     Pseudo is Projector augmented-wave + core cor, Zval = 16.0
     Generated using &quot;atomic&quot; code by A. Dal Corso  v.6.3
     Shape of augmentation charge: PSQ
     Using radial grid of 1191 points,  6 beta functions with: 
                l(1) =   0
                l(2) =   0
                l(3) =   1
                l(4) =   1
                l(5) =   2
                l(6) =   2
     Q(r) pseudized with 0 coefficients 


     PseudoPot. # 4 for Fe read from file:
     /rds/homes/b/bxp912/pp/Fe.pbe-spn-kjpaw_psl.1.0.0.UPF
     MD5 check sum: 42f43b795421b414b0dc916aa790dbcb
     Pseudo is Projector augmented-wave + core cor, Zval = 16.0
     Generated using &quot;atomic&quot; code by A. Dal Corso  v.6.3
     Shape of augmentation charge: PSQ
     Using radial grid of 1191 points,  6 beta functions with: 
                l(1) =   0
                l(2) =   0
                l(3) =   1
                l(4) =   1
                l(5) =   2
                l(6) =   2
     Q(r) pseudized with 0 coefficients 


     atomic species   valence    mass     pseudopotential
        Fe1           16.00    55.84500     Fe( 1.00)
        Fe2           16.00    55.84500     Fe( 1.00)
        Fe3           16.00    55.84500     Fe( 1.00)
        Fe4           16.00    55.84500     Fe( 1.00)

     Starting magnetic structure 
     atomic species   magnetization
        Fe1          0.100
        Fe2         -0.100
        Fe3          0.100
        Fe4         -0.100

      8 Sym. Ops., with inversion, found



   Cartesian axes

     site n.     atom                  positions (alat units)
         1           Fe1 tau(   1) = (   0.0000000   0.0000000   0.0000000  )
         2           Fe2 tau(   2) = (   0.2800000   0.2952516   0.0000000  )
         3           Fe3 tau(   3) = (   0.2800000   0.0000000   0.2800000  )
         4           Fe4 tau(   4) = (   0.0000000   0.2952516   0.2800000  )
         5           Fe1 tau(   5) = (   0.0000000   0.0000000   0.5600000  )
         6           Fe2 tau(   6) = (   0.2800000   0.2952516   0.5600000  )
         7           Fe3 tau(   7) = (   0.2800000   0.0000000   0.8400000  )
         8           Fe4 tau(   8) = (   0.0000000   0.2952516   0.8400000  )
         9           Fe1 tau(   9) = (   0.0000000   0.5905032   0.0000000  )
        10           Fe2 tau(  10) = (   0.2800000   0.8857548   0.0000000  )
        11           Fe3 tau(  11) = (   0.2800000   0.5905032   0.2800000  )
        12           Fe4 tau(  12) = (   0.0000000   0.8857548   0.2800000  )
        13           Fe1 tau(  13) = (   0.0000000   0.5905032   0.5600000  )
        14           Fe2 tau(  14) = (   0.2800000   0.8857548   0.5600000  )
        15           Fe3 tau(  15) = (   0.2800000   0.5905032   0.8400000  )
        16           Fe4 tau(  16) = (   0.0000000   0.8857548   0.8400000  )
        17           Fe1 tau(  17) = (   0.5600000   0.0000000   0.0000000  )
        18           Fe2 tau(  18) = (   0.8400000   0.2952516   0.0000000  )
        19           Fe3 tau(  19) = (   0.8400000   0.0000000   0.2800000  )
        20           Fe4 tau(  20) = (   0.5600000   0.2952516   0.2800000  )
        21           Fe1 tau(  21) = (   0.5600000   0.0000000   0.5600000  )
        22           Fe2 tau(  22) = (   0.8400000   0.2952516   0.5600000  )
        23           Fe3 tau(  23) = (   0.8400000   0.0000000   0.8400000  )
        24           Fe4 tau(  24) = (   0.5600000   0.2952516   0.8400000  )
        25           Fe1 tau(  25) = (   0.5600000   0.5905032   0.0000000  )
        26           Fe2 tau(  26) = (   0.8400000   0.8857548   0.0000000  )
        27           Fe3 tau(  27) = (   0.8400000   0.5905032   0.2800000  )
        28           Fe4 tau(  28) = (   0.5600000   0.8857548   0.2800000  )
        29           Fe1 tau(  29) = (   0.5600000   0.5905032   0.5600000  )
        30           Fe2 tau(  30) = (   0.8400000   0.8857548   0.5600000  )
        31           Fe3 tau(  31) = (   0.8400000   0.5905032   0.8400000  )
        32           Fe4 tau(  32) = (   0.5600000   0.8857548   0.8400000  )

     number of k points=   125  Marzari-Vanderbilt smearing, width (Ry)=  0.0400

     Number of k-points >= 100: set verbosity='high' to print them.

     Dense  grid:   483237 G-vectors     FFT dimensions: (  96, 108,  96)

     Smooth grid:   259189 G-vectors     FFT dimensions: (  80,  81,  80)

     Estimated max dynamical RAM per process >     569.65 MB

     Estimated total dynamical RAM >      40.05 GB

     Check: negative core charge=   -0.000005
     Generating pointlists ...
     new r_m :   0.1633 (alat units)  2.1133 (a.u.) for type    1
     new r_m :   0.1633 (alat units)  2.1133 (a.u.) for type    2
     new r_m :   0.1633 (alat units)  2.1133 (a.u.) for type    3
     new r_m :   0.1633 (alat units)  2.1133 (a.u.) for type    4

     Initial potential from superposition of free atoms

     starting charge  511.98600, renormalised to  512.00000
     Starting wfcs are  320 randomized atomic wfcs
     Checking if some PAW data can be deallocated... 

     total cpu time spent up to now is       88.6 secs

     Self-consistent Calculation

     iteration #  1     ecut=    71.00 Ry     beta= 0.10
     Davidson diagonalization with overlap
     ethr =  1.00E-02,  avg # of iterations =  3.2

     Threshold (ethr) on eigenvalues was too large:
     Diagonalizing with lowered threshold

     Davidson diagonalization with overlap
     ethr =  8.10E-05,  avg # of iterations =  7.7

     total cpu time spent up to now is      843.0 secs

     total energy              =  -10534.86819027 Ry
     estimated scf accuracy    <       0.66555934 Ry

     total magnetization       =     0.05 Bohr mag/cell
     absolute magnetization    =    63.84 Bohr mag/cell

     iteration #  2     ecut=    71.00 Ry     beta= 0.10
     Davidson diagonalization with overlap
     ethr =  1.30E-04,  avg # of iterations =  1.0

     total cpu time spent up to now is     1033.7 secs

     total energy              =  -10534.85120564 Ry
     estimated scf accuracy    <       0.84539827 Ry

     total magnetization       =    -0.38 Bohr mag/cell
     absolute magnetization    =    65.35 Bohr mag/cell

     iteration #  3     ecut=    71.00 Ry     beta= 0.10
     Davidson diagonalization with overlap
     ethr =  1.30E-04,  avg # of iterations =  1.0

     total cpu time spent up to now is     1220.4 secs

     total energy              =  -10534.82558030 Ry
     estimated scf accuracy    <       0.63322609 Ry

     total magnetization       =    -0.06 Bohr mag/cell
     absolute magnetization    =    65.94 Bohr mag/cell

     iteration #  4     ecut=    71.00 Ry     beta= 0.10
     Davidson diagonalization with overlap
     ethr =  1.24E-04,  avg # of iterations =  1.0

     total cpu time spent up to now is     1417.5 secs

     total energy              =  -10534.82503185 Ry
     estimated scf accuracy    <       0.96250613 Ry

     total magnetization       =     0.25 Bohr mag/cell
     absolute magnetization    =    67.61 Bohr mag/cell

     iteration #  5     ecut=    71.00 Ry     beta= 0.10
     Davidson diagonalization with overlap
     ethr =  1.24E-04,  avg # of iterations =  1.0

     total cpu time spent up to now is     1612.3 secs

     total energy              =  -10534.85753622 Ry
     estimated scf accuracy    <       0.28466977 Ry

     total magnetization       =     0.14 Bohr mag/cell
     absolute magnetization    =    69.30 Bohr mag/cell

     iteration #  6     ecut=    71.00 Ry     beta= 0.10
     Davidson diagonalization with overlap
     ethr =  5.56E-05,  avg # of iterations =  1.0

     total cpu time spent up to now is     1813.2 secs

     total energy              =  -10534.93240713 Ry
     estimated scf accuracy    <       0.29076230 Ry

     total magnetization       =    -0.30 Bohr mag/cell
     absolute magnetization    =    70.01 Bohr mag/cell

     iteration #  7     ecut=    71.00 Ry     beta= 0.10
     Davidson diagonalization with overlap
     ethr =  5.56E-05,  avg # of iterations =  3.6

     negative rho (up, down):  1.146E-03 1.109E-03

     total cpu time spent up to now is     2110.7 secs

     total energy              =  -10535.06864356 Ry
     estimated scf accuracy    <       0.66740469 Ry

     total magnetization       =    -0.78 Bohr mag/cell
     absolute magnetization    =    74.34 Bohr mag/cell

     iteration #  8     ecut=    71.00 Ry     beta= 0.10
     Davidson diagonalization with overlap
     ethr =  5.56E-05,  avg # of iterations =  5.1

     negative rho (up, down):  1.196E-03 1.156E-03

     total cpu time spent up to now is     2403.4 secs

     total energy              =  -10535.12230846 Ry
     estimated scf accuracy    <       0.14081957 Ry

     total magnetization       =    -0.40 Bohr mag/cell
     absolute magnetization    =    78.40 Bohr mag/cell

     iteration #  9     ecut=    71.00 Ry     beta= 0.10
     Davidson diagonalization with overlap
     ethr =  2.75E-05,  avg # of iterations =  1.6

     negative rho (up, down):  1.016E-03 9.738E-04

     total cpu time spent up to now is     2636.5 secs

     total energy              =  -10535.12879817 Ry
     estimated scf accuracy    <       0.13283923 Ry

     total magnetization       =    -0.31 Bohr mag/cell
     absolute magnetization    =    78.61 Bohr mag/cell

     iteration # 10     ecut=    71.00 Ry     beta= 0.10
     Davidson diagonalization with overlap
     ethr =  2.59E-05,  avg # of iterations =  1.9

     negative rho (up, down):  1.923E-03 1.894E-03

     total cpu time spent up to now is     2899.5 secs

     total energy              =  -10535.14184417 Ry
     estimated scf accuracy    <       0.21012804 Ry

     total magnetization       =    -0.27 Bohr mag/cell
     absolute magnetization    =    78.23 Bohr mag/cell

     iteration # 11     ecut=    71.00 Ry     beta= 0.10
     Davidson diagonalization with overlap
     ethr =  2.59E-05,  avg # of iterations =  1.5

     negative rho (up, down):  3.612E-03 3.599E-03

     total cpu time spent up to now is     3114.4 secs

     total energy              =  -10535.14527697 Ry
     estimated scf accuracy    <       0.23465846 Ry

     total magnetization       =    -0.35 Bohr mag/cell
     absolute magnetization    =    80.15 Bohr mag/cell

     iteration # 12     ecut=    71.00 Ry     beta= 0.10
     Davidson diagonalization with overlap
     ethr =  2.59E-05,  avg # of iterations =  3.7

     negative rho (up, down):  3.923E-03 3.909E-03

     total cpu time spent up to now is     3395.1 secs

     total energy              =  -10535.16910245 Ry
     estimated scf accuracy    <       0.06636988 Ry

     total magnetization       =    -0.21 Bohr mag/cell
     absolute magnetization    =    83.85 Bohr mag/cell

     iteration # 13     ecut=    71.00 Ry     beta= 0.10
     Davidson diagonalization with overlap
     ethr =  1.30E-05,  avg # of iterations =  4.1

     negative rho (up, down):  3.754E-03 3.745E-03

     total cpu time spent up to now is     3694.3 secs

     total energy              =  -10535.16781061 Ry
     estimated scf accuracy    <       0.04450309 Ry

     total magnetization       =     0.09 Bohr mag/cell
     absolute magnetization    =    85.10 Bohr mag/cell

     iteration # 14     ecut=    71.00 Ry     beta= 0.10
     Davidson diagonalization with overlap
     ethr =  8.69E-06,  avg # of iterations =  4.4

     negative rho (up, down):  3.840E-03 3.831E-03

     total cpu time spent up to now is     3970.3 secs

     total energy              =  -10535.17132242 Ry
     estimated scf accuracy    <       0.00773789 Ry

     total magnetization       =    -0.02 Bohr mag/cell
     absolute magnetization    =    85.10 Bohr mag/cell

     iteration # 15     ecut=    71.00 Ry     beta= 0.10
     Davidson diagonalization with overlap
     ethr =  1.51E-06,  avg # of iterations =  5.6

     negative rho (up, down):  3.876E-03 3.867E-03

     total cpu time spent up to now is     4321.1 secs

     total energy              =  -10535.17222822 Ry
     estimated scf accuracy    <       0.01078624 Ry

     total magnetization       =    -0.02 Bohr mag/cell
     absolute magnetization    =    85.60 Bohr mag/cell

     iteration # 16     ecut=    71.00 Ry     beta= 0.10
     Davidson diagonalization with overlap
     ethr =  1.51E-06,  avg # of iterations =  1.0

     negative rho (up, down):  3.814E-03 3.806E-03

     total cpu time spent up to now is     4544.9 secs

     total energy              =  -10535.17235803 Ry
     estimated scf accuracy    <       0.00528713 Ry

     total magnetization       =    -0.02 Bohr mag/cell
     absolute magnetization    =    85.74 Bohr mag/cell

     iteration # 17     ecut=    71.00 Ry     beta= 0.10
     Davidson diagonalization with overlap
     ethr =  1.03E-06,  avg # of iterations =  1.2

     negative rho (up, down):  3.858E-03 3.847E-03

     total cpu time spent up to now is     4768.1 secs

     total energy              =  -10535.17342438 Ry
     estimated scf accuracy    <       0.00623140 Ry

     total magnetization       =    -0.03 Bohr mag/cell
     absolute magnetization    =    85.86 Bohr mag/cell

     iteration # 18     ecut=    71.00 Ry     beta= 0.10
     Davidson diagonalization with overlap
     ethr =  1.03E-06,  avg # of iterations =  4.4

     negative rho (up, down):  3.658E-03 3.642E-03

     total cpu time spent up to now is     5093.5 secs

     total energy              =  -10535.17537100 Ry
     estimated scf accuracy    <       0.00981853 Ry

     total magnetization       =    -0.05 Bohr mag/cell
     absolute magnetization    =    86.41 Bohr mag/cell

     iteration # 19     ecut=    71.00 Ry     beta= 0.10
     Davidson diagonalization with overlap
     ethr =  1.03E-06,  avg # of iterations =  2.0

     negative rho (up, down):  3.419E-03 3.403E-03

     total cpu time spent up to now is     5332.2 secs

     total energy              =  -10535.17499649 Ry
     estimated scf accuracy    <       0.00551513 Ry

     total magnetization       =     0.02 Bohr mag/cell
     absolute magnetization    =    86.36 Bohr mag/cell

     iteration # 20     ecut=    71.00 Ry     beta= 0.10
     Davidson diagonalization with overlap
     ethr =  1.03E-06,  avg # of iterations =  3.5

     negative rho (up, down):  3.417E-03 3.401E-03

     total cpu time spent up to now is     5618.0 secs

     total energy              =  -10535.17589935 Ry
     estimated scf accuracy    <       0.00110934 Ry

     total magnetization       =    -0.04 Bohr mag/cell
     absolute magnetization    =    86.15 Bohr mag/cell

     iteration # 21     ecut=    71.00 Ry     beta= 0.10
     Davidson diagonalization with overlap
     ethr =  2.17E-07,  avg # of iterations =  4.9

     negative rho (up, down):  3.357E-03 3.341E-03

     total cpu time spent up to now is     5895.2 secs

     total energy              =  -10535.17619431 Ry
     estimated scf accuracy    <       0.00121672 Ry

     total magnetization       =    -0.01 Bohr mag/cell
     absolute magnetization    =    86.20 Bohr mag/cell

     iteration # 22     ecut=    71.00 Ry     beta= 0.10
     Davidson diagonalization with overlap
     ethr =  2.17E-07,  avg # of iterations =  2.0

     negative rho (up, down):  3.332E-03 3.317E-03

     total cpu time spent up to now is     6131.9 secs

     total energy              =  -10535.17630426 Ry
     estimated scf accuracy    <       0.00094983 Ry

     total magnetization       =    -0.02 Bohr mag/cell
     absolute magnetization    =    86.18 Bohr mag/cell

     iteration # 23     ecut=    71.00 Ry     beta= 0.10
     Davidson diagonalization with overlap
     ethr =  1.86E-07,  avg # of iterations =  1.1

     negative rho (up, down):  3.319E-03 3.307E-03

     total cpu time spent up to now is     6347.2 secs

     total energy              =  -10535.17656217 Ry
     estimated scf accuracy    <       0.00096126 Ry

     total magnetization       =    -0.03 Bohr mag/cell
     absolute magnetization    =    86.20 Bohr mag/cell

     iteration # 24     ecut=    71.00 Ry     beta= 0.10
     Davidson diagonalization with overlap
     ethr =  1.86E-07,  avg # of iterations =  3.2

     negative rho (up, down):  3.300E-03 3.291E-03

     total cpu time spent up to now is     6634.7 secs

     total energy              =  -10535.17696708 Ry
     estimated scf accuracy    <       0.00117772 Ry

     total magnetization       =    -0.05 Bohr mag/cell
     absolute magnetization    =    86.40 Bohr mag/cell

     iteration # 25     ecut=    71.00 Ry     beta= 0.10
     Davidson diagonalization with overlap
     ethr =  1.86E-07,  avg # of iterations =  3.2

     negative rho (up, down):  3.231E-03 3.223E-03

     total cpu time spent up to now is     6894.1 secs

     total energy              =  -10535.17687030 Ry
     estimated scf accuracy    <       0.00105414 Ry

     total magnetization       =    -0.01 Bohr mag/cell
     absolute magnetization    =    86.55 Bohr mag/cell

     iteration # 26     ecut=    71.00 Ry     beta= 0.10
     Davidson diagonalization with overlap
     ethr =  1.86E-07,  avg # of iterations =  1.6

     negative rho (up, down):  3.228E-03 3.220E-03

     total cpu time spent up to now is     7117.8 secs

     total energy              =  -10535.17676350 Ry
     estimated scf accuracy    <       0.00043541 Ry

     total magnetization       =    -0.01 Bohr mag/cell
     absolute magnetization    =    86.49 Bohr mag/cell

     iteration # 27     ecut=    71.00 Ry     beta= 0.10
     Davidson diagonalization with overlap
     ethr =  8.50E-08,  avg # of iterations =  5.3

     negative rho (up, down):  3.270E-03 3.262E-03

     total cpu time spent up to now is     7450.2 secs

     total energy              =  -10535.17701158 Ry
     estimated scf accuracy    <       0.00030506 Ry

     total magnetization       =    -0.02 Bohr mag/cell
     absolute magnetization    =    86.46 Bohr mag/cell

     iteration # 28     ecut=    71.00 Ry     beta= 0.10
     Davidson diagonalization with overlap
     ethr =  5.96E-08,  avg # of iterations =  5.0

     negative rho (up, down):  3.340E-03 3.334E-03

     total cpu time spent up to now is     7770.9 secs

     total energy              =  -10535.17695570 Ry
     estimated scf accuracy    <       0.00086868 Ry

     total magnetization       =    -0.01 Bohr mag/cell
     absolute magnetization    =    86.51 Bohr mag/cell

     iteration # 29     ecut=    71.00 Ry     beta= 0.10
     Davidson diagonalization with overlap
     ethr =  5.96E-08,  avg # of iterations =  2.0

     negative rho (up, down):  3.345E-03 3.340E-03

     total cpu time spent up to now is     8043.0 secs

     total energy              =  -10535.17695779 Ry
     estimated scf accuracy    <       0.00029638 Ry

     total magnetization       =    -0.01 Bohr mag/cell
     absolute magnetization    =    86.61 Bohr mag/cell

     iteration # 30     ecut=    71.00 Ry     beta= 0.10
     Davidson diagonalization with overlap
     ethr =  5.79E-08,  avg # of iterations =  2.9

     negative rho (up, down):  3.387E-03 3.384E-03

     total cpu time spent up to now is     8311.6 secs

     total energy              =  -10535.17698104 Ry
     estimated scf accuracy    <       0.00008276 Ry

     total magnetization       =    -0.01 Bohr mag/cell
     absolute magnetization    =    86.65 Bohr mag/cell

     iteration # 31     ecut=    71.00 Ry     beta= 0.10
     Davidson diagonalization with overlap
     ethr =  1.62E-08,  avg # of iterations =  5.1

     negative rho (up, down):  3.399E-03 3.395E-03

     total cpu time spent up to now is     8706.2 secs

     total energy              =  -10535.17698981 Ry
     estimated scf accuracy    <       0.00020889 Ry

     total magnetization       =    -0.01 Bohr mag/cell
     absolute magnetization    =    86.75 Bohr mag/cell

     iteration # 32     ecut=    71.00 Ry     beta= 0.10
     Davidson diagonalization with overlap
     ethr =  1.62E-08,  avg # of iterations =  4.4

     negative rho (up, down):  3.405E-03 3.401E-03

     total cpu time spent up to now is     9017.7 secs

     total energy              =  -10535.17700165 Ry
     estimated scf accuracy    <       0.00004130 Ry

     total magnetization       =    -0.00 Bohr mag/cell
     absolute magnetization    =    86.73 Bohr mag/cell

     iteration # 33     ecut=    71.00 Ry     beta= 0.10
     Davidson diagonalization with overlap
     ethr =  8.07E-09,  avg # of iterations =  5.0

     negative rho (up, down):  3.405E-03 3.402E-03

     total cpu time spent up to now is     9387.6 secs

     total energy              =  -10535.17701756 Ry
     estimated scf accuracy    <       0.00005142 Ry

     total magnetization       =    -0.01 Bohr mag/cell
     absolute magnetization    =    86.76 Bohr mag/cell

     iteration # 34     ecut=    71.00 Ry     beta= 0.10
     Davidson diagonalization with overlap
     ethr =  8.07E-09,  avg # of iterations =  1.0

     negative rho (up, down):  3.405E-03 3.402E-03

     total cpu time spent up to now is     9608.4 secs

     total energy              =  -10535.17701588 Ry
     estimated scf accuracy    <       0.00003233 Ry

     total magnetization       =    -0.00 Bohr mag/cell
     absolute magnetization    =    86.77 Bohr mag/cell

     iteration # 35     ecut=    71.00 Ry     beta= 0.10
     Davidson diagonalization with overlap
     ethr =  6.31E-09,  avg # of iterations =  1.0

     negative rho (up, down):  3.411E-03 3.408E-03

     total cpu time spent up to now is     9826.6 secs

     total energy              =  -10535.17701532 Ry
     estimated scf accuracy    <       0.00001763 Ry

     total magnetization       =    -0.00 Bohr mag/cell
     absolute magnetization    =    86.78 Bohr mag/cell

     iteration # 36     ecut=    71.00 Ry     beta= 0.10
     Davidson diagonalization with overlap
     ethr =  3.44E-09,  avg # of iterations =  2.1

     negative rho (up, down):  3.419E-03 3.416E-03

     total cpu time spent up to now is    10069.6 secs

     total energy              =  -10535.17701590 Ry
     estimated scf accuracy    <       0.00000687 Ry

     total magnetization       =    -0.01 Bohr mag/cell
     absolute magnetization    =    86.78 Bohr mag/cell

     iteration # 37     ecut=    71.00 Ry     beta= 0.10
     Davidson diagonalization with overlap
     ethr =  1.34E-09,  avg # of iterations =  5.0

     negative rho (up, down):  3.430E-03 3.427E-03

     total cpu time spent up to now is    10391.2 secs

     total energy              =  -10535.17701941 Ry
     estimated scf accuracy    <       0.00000652 Ry

     total magnetization       =    -0.01 Bohr mag/cell
     absolute magnetization    =    86.79 Bohr mag/cell

     iteration # 38     ecut=    71.00 Ry     beta= 0.10
     Davidson diagonalization with overlap
     ethr =  1.27E-09,  avg # of iterations =  2.5

     negative rho (up, down):  3.425E-03 3.422E-03

     total cpu time spent up to now is    10663.7 secs

     total energy              =  -10535.17701822 Ry
     estimated scf accuracy    <       0.00001108 Ry

     total magnetization       =    -0.00 Bohr mag/cell
     absolute magnetization    =    86.79 Bohr mag/cell

     iteration # 39     ecut=    71.00 Ry     beta= 0.10
     Davidson diagonalization with overlap
     ethr =  1.27E-09,  avg # of iterations =  2.0

     negative rho (up, down):  3.435E-03 3.433E-03

     total cpu time spent up to now is    10906.0 secs

     total energy              =  -10535.17702051 Ry
     estimated scf accuracy    <       0.00000429 Ry

     total magnetization       =    -0.00 Bohr mag/cell
     absolute magnetization    =    86.78 Bohr mag/cell

     iteration # 40     ecut=    71.00 Ry     beta= 0.10
     Davidson diagonalization with overlap
     ethr =  8.37E-10,  avg # of iterations =  2.2

     negative rho (up, down):  3.440E-03 3.438E-03

     total cpu time spent up to now is    11177.7 secs

     total energy              =  -10535.17702194 Ry
     estimated scf accuracy    <       0.00000226 Ry

     total magnetization       =    -0.01 Bohr mag/cell
     absolute magnetization    =    86.78 Bohr mag/cell

     iteration # 41     ecut=    71.00 Ry     beta= 0.10
     Davidson diagonalization with overlap
     ethr =  4.42E-10,  avg # of iterations =  2.9

     negative rho (up, down):  3.443E-03 3.441E-03

     total cpu time spent up to now is    11462.0 secs

     total energy              =  -10535.17702232 Ry
     estimated scf accuracy    <       0.00000172 Ry

     total magnetization       =    -0.00 Bohr mag/cell
     absolute magnetization    =    86.78 Bohr mag/cell

     iteration # 42     ecut=    71.00 Ry     beta= 0.10
     Davidson diagonalization with overlap
     ethr =  3.36E-10,  avg # of iterations =  1.8

     negative rho (up, down):  3.448E-03 3.446E-03

     total cpu time spent up to now is    11694.4 secs

     total energy              =  -10535.17702268 Ry
     estimated scf accuracy    <       0.00000131 Ry

     total magnetization       =    -0.00 Bohr mag/cell
     absolute magnetization    =    86.78 Bohr mag/cell

     iteration # 43     ecut=    71.00 Ry     beta= 0.10
     Davidson diagonalization with overlap
     ethr =  2.55E-10,  avg # of iterations =  4.6

     negative rho (up, down):  3.451E-03 3.449E-03

     total cpu time spent up to now is    11984.9 secs

     total energy              =  -10535.17702285 Ry
     estimated scf accuracy    <       0.00000116 Ry

     total magnetization       =    -0.00 Bohr mag/cell
     absolute magnetization    =    86.79 Bohr mag/cell

     iteration # 44     ecut=    71.00 Ry     beta= 0.10
     Davidson diagonalization with overlap
     ethr =  2.26E-10,  avg # of iterations =  2.5

     negative rho (up, down):  3.442E-03 3.441E-03
 
     Magnetic moment per site:
     atom:    1    charge:   14.6440    magn:    2.6363    constr:    0.0000
     atom:    2    charge:   14.6439    magn:   -2.6357    constr:    0.0000
     atom:    3    charge:   14.6439    magn:    2.6360    constr:    0.0000
     atom:    4    charge:   14.6439    magn:   -2.6362    constr:    0.0000
     atom:    5    charge:   14.6440    magn:    2.6359    constr:    0.0000
     atom:    6    charge:   14.6439    magn:   -2.6360    constr:    0.0000
     atom:    7    charge:   14.6439    magn:    2.6360    constr:    0.0000
     atom:    8    charge:   14.6439    magn:   -2.6362    constr:    0.0000
     atom:    9    charge:   14.6440    magn:    2.6363    constr:    0.0000
     atom:   10    charge:   14.6439    magn:   -2.6357    constr:    0.0000
     atom:   11    charge:   14.6440    magn:    2.6359    constr:    0.0000
     atom:   12    charge:   14.6439    magn:   -2.6362    constr:    0.0000
     atom:   13    charge:   14.6442    magn:    2.6359    constr:    0.0000
     atom:   14    charge:   14.6439    magn:   -2.6360    constr:    0.0000
     atom:   15    charge:   14.6440    magn:    2.6359    constr:    0.0000
     atom:   16    charge:   14.6439    magn:   -2.6362    constr:    0.0000
     atom:   17    charge:   14.6439    magn:    2.6357    constr:    0.0000
     atom:   18    charge:   14.6439    magn:   -2.6357    constr:    0.0000
     atom:   19    charge:   14.6439    magn:    2.6360    constr:    0.0000
     atom:   20    charge:   14.6439    magn:   -2.6368    constr:    0.0000
     atom:   21    charge:   14.6440    magn:    2.6358    constr:    0.0000
     atom:   22    charge:   14.6439    magn:   -2.6360    constr:    0.0000
     atom:   23    charge:   14.6439    magn:    2.6360    constr:    0.0000
     atom:   24    charge:   14.6439    magn:   -2.6368    constr:    0.0000
     atom:   25    charge:   14.6441    magn:    2.6358    constr:    0.0000
     atom:   26    charge:   14.6439    magn:   -2.6357    constr:    0.0000
     atom:   27    charge:   14.6440    magn:    2.6359    constr:    0.0000
     atom:   28    charge:   14.6439    magn:   -2.6368    constr:    0.0000
     atom:   29    charge:   14.6442    magn:    2.6357    constr:    0.0000
     atom:   30    charge:   14.6439    magn:   -2.6360    constr:    0.0000
     atom:   31    charge:   14.6440    magn:    2.6359    constr:    0.0000
     atom:   32    charge:   14.6439    magn:   -2.6368    constr:    0.0000

     total cpu time spent up to now is    12235.3 secs

     End of self-consistent calculation

     Number of k-points >= 100: set verbosity='high' to print the bands.

     the Fermi energy is    13.5143 ev

!    total energy              =  -10535.17702256 Ry

     total all-electron energy =    -81456.666080 Ry
     estimated scf accuracy    <       0.00000071 Ry
     smearing contrib. (-TS)   =      -0.00409621 Ry
     internal energy E=F+TS    =  -10535.17292635 Ry

     The total energy is F=E-TS. E is the sum of the following terms:
     one-electron contribution =   -4274.43237460 Ry
     hartree contribution      =    2364.80075641 Ry
     xc contribution           =    -883.52412091 Ry
     ewald contribution        =   -5092.73913683 Ry
     one-center paw contrib.   =   -2649.27805042 Ry

     total magnetization       =    -0.00 Bohr mag/cell
     absolute magnetization    =    86.79 Bohr mag/cell

     convergence has been achieved in  44 iterations

     negative rho (up, down):  3.442E-03 3.441E-03

     Forces acting on atoms (cartesian axes, Ry/au):

     atom    1 type  1   force =     0.00000000    0.00000000    0.00000000
     atom    2 type  2   force =     0.00015329    0.00003736    0.00000000
     atom    3 type  3   force =     0.00004247    0.00000000   -0.00018965
     atom    4 type  4   force =     0.00000000   -0.00009075   -0.00001825
     atom    5 type  1   force =     0.00000000    0.00000000    0.00000000
     atom    6 type  2   force =    -0.00008173    0.00003142    0.00000000
     atom    7 type  3   force =     0.00004247    0.00000000    0.00018965
     atom    8 type  4   force =     0.00000000   -0.00009075    0.00001825
     atom    9 type  1   force =     0.00000000    0.00000000    0.00000000
     atom   10 type  2   force =     0.00015329   -0.00003736    0.00000000
     atom   11 type  3   force =     0.00021956    0.00000000   -0.00004902
     atom   12 type  4   force =     0.00000000    0.00009075   -0.00001825
     atom   13 type  1   force =     0.00000000    0.00000000    0.00000000
     atom   14 type  2   force =    -0.00008173   -0.00003142    0.00000000
     atom   15 type  3   force =     0.00021956    0.00000000    0.00004902
     atom   16 type  4   force =     0.00000000    0.00009075    0.00001825
     atom   17 type  1   force =     0.00000000    0.00000000    0.00000000
     atom   18 type  2   force =    -0.00015329    0.00003736    0.00000000
     atom   19 type  3   force =    -0.00004247    0.00000000   -0.00018965
     atom   20 type  4   force =     0.00000000   -0.00017473    0.00018859
     atom   21 type  1   force =     0.00000000    0.00000000    0.00000000
     atom   22 type  2   force =     0.00008173    0.00003142    0.00000000
     atom   23 type  3   force =    -0.00004247    0.00000000    0.00018965
     atom   24 type  4   force =     0.00000000   -0.00017473   -0.00018859
     atom   25 type  1   force =     0.00000000    0.00000000    0.00000000
     atom   26 type  2   force =    -0.00015329   -0.00003736    0.00000000
     atom   27 type  3   force =    -0.00021956    0.00000000   -0.00004902
     atom   28 type  4   force =     0.00000000    0.00017473    0.00018859
     atom   29 type  1   force =     0.00000000    0.00000000    0.00000000
     atom   30 type  2   force =     0.00008173   -0.00003142    0.00000000
     atom   31 type  3   force =    -0.00021956    0.00000000    0.00004902
     atom   32 type  4   force =    -0.00000000    0.00017473   -0.00018859

     Total force =     0.000885     Total SCF correction =     0.002640
     SCF correction compared to forces is large: reduce conv_thr to get better values


     Computing stress (Cartesian axis) and pressure


     negative rho (up, down):  3.442E-03 3.441E-03
          total   stress  (Ry/bohr**3)                   (kbar)     P=     -293.54
  -0.00213999   0.00000000   0.00000000         -314.80        0.00        0.00
   0.00000000  -0.00170634   0.00000000            0.00     -251.01        0.00
   0.00000000   0.00000000  -0.00214008            0.00        0.00     -314.82


     Writing output data file /scratch/bxp912/fecohfcc112.save/
 
     init_run     :     81.73s CPU     83.56s WALL (       1 calls)
     electrons    :  11976.31s CPU  12146.92s WALL (       1 calls)
     forces       :     38.81s CPU     39.09s WALL (       1 calls)
     stress       :    255.93s CPU    257.83s WALL (       1 calls)

     Called by init_run:
     wfcinit      :     80.70s CPU     82.42s WALL (       1 calls)
     potinit      :      0.36s CPU      0.39s WALL (       1 calls)
     hinit0       :      0.37s CPU      0.38s WALL (       1 calls)

     Called by electrons:
     c_bands      :  10584.25s CPU  10731.86s WALL (      45 calls)
     sum_band     :   1374.56s CPU   1396.35s WALL (      45 calls)
     v_of_rho     :      2.17s CPU      2.27s WALL (      45 calls)
     newd         :      4.31s CPU      5.02s WALL (      45 calls)
     PAW_pot      :      8.89s CPU      9.23s WALL (      45 calls)
     mix_rho      :      0.69s CPU      0.75s WALL (      45 calls)

     Called by c_bands:
     init_us_2    :     47.86s CPU     48.47s WALL (   23250 calls)
     cegterg      :  10391.59s CPU  10536.11s WALL (   11250 calls)

     Called by *egterg:
     cdiaghg      :   1274.74s CPU   1287.12s WALL (   44179 calls)
     h_psi        :   5548.51s CPU   5644.12s WALL (   44679 calls)
     s_psi        :    391.93s CPU    394.94s WALL (   44679 calls)
     g_psi        :      9.12s CPU      9.26s WALL (   33179 calls)

     Called by h_psi:
     h_psi:calbec :    753.70s CPU    760.12s WALL (   44679 calls)
     vloc_psi     :   4392.57s CPU   4477.79s WALL (   44679 calls)
     add_vuspsi   :    376.50s CPU    380.21s WALL (   44679 calls)

     General routines
     calbec       :   1206.68s CPU   1216.57s WALL (   57179 calls)
     fft          :      3.07s CPU      3.13s WALL (    1165 calls)
     ffts         :      0.11s CPU      0.12s WALL (     180 calls)
     fftw         :   5202.00s CPU   5301.60s WALL (19206466 calls)
     interpolate  :      0.72s CPU      0.73s WALL (      90 calls)
 
     Parallel routines
     fft_scatt_xy :    338.70s CPU    344.05s WALL (19207811 calls)
     fft_scatt_yz :   4130.02s CPU   4213.72s WALL (19207811 calls)
 
     PWSCF        :      3h26m CPU      3h30m WALL

 
   This run was terminated on:  23: 4:15   1Dec2021            

=------------------------------------------------------------------------------=
   JOB DONE.
=------------------------------------------------------------------------------=
