
     Program PWSCF v.6.7MaX starts on 26Nov2021 at 19:43: 8 

     This program is part of the open-source Quantum ESPRESSO suite
     for quantum simulation of materials; please cite
         "P. Giannozzi et al., J. Phys.:Condens. Matter 21 395502 (2009);
         "P. Giannozzi et al., J. Phys.:Condens. Matter 29 465901 (2017);
          URL http://www.quantum-espresso.org", 
     in publications or presentations arising from this work. More details at
     http://www.quantum-espresso.org/quote

     Parallel version (MPI & OpenMP), running on      72 processor cores
     Number of MPI processes:                72
     Threads/MPI process:                     1

     MPI processes distributed on     1 nodes
     R & G space division:  proc/nbgrp/npool/nimage =      72
     Reading input from fcc_100.in
Warning: card &CELL ignored
Warning: card CELL_DYNAMICS = 'BFGS', ignored
Warning: card CELL_FACTOR = 2.0, ignored
Warning: card PRESS = 0.0, ignored
Warning: card / ignored

     Current dimensions of program PWSCF are:
     Max number of different atomic species (ntypx) = 10
     Max number of k-points (npk) =  40000
     Max angular momentum in pseudopotentials (lmaxx) =  3
     file Fe.pbe-spn-kjpaw_psl.1.0.0.UPF: wavefunction(s)  3P 3D renormalized
     file Fe.pbe-spn-kjpaw_psl.1.0.0.UPF: wavefunction(s)  3P 3D renormalized
     file Fe.pbe-spn-kjpaw_psl.1.0.0.UPF: wavefunction(s)  3P 3D renormalized
     file Fe.pbe-spn-kjpaw_psl.1.0.0.UPF: wavefunction(s)  3P 3D renormalized

     Subspace diagonalization in iterative solution of the eigenvalue problem:
     one sub-group per band group will be used
     ELPA distributed-memory algorithm (size of sub-group:  8*  8 procs)

     Found symmetry operation: I + (  0.0000  0.0000 -0.5000)
     This is a supercell, fractional translations are disabled
     Message from routine setup:
     using ibrav=0 with symmetry is DISCOURAGED, use correct ibrav instead
 
     Parallelization info
     --------------------
     sticks:   dense  smooth     PW     G-vecs:    dense   smooth      PW
     Min          83      55     15                 4773     2563     367
     Max          84      56     16                 4778     2568     371
     Sum        6035    3993   1103               343891   184641   26583
 


     bravais-lattice index     =            0
     lattice parameter (alat)  =      12.9382  a.u.
     unit-cell volume          =    2283.7811 (a.u.)^3
     number of atoms/cell      =           32
     number of atomic types    =            4
     number of electrons       =       512.00
     number of Kohn-Sham states=          307
     kinetic-energy cutoff     =      71.0000  Ry
     charge density cutoff     =     430.0000  Ry
     scf convergence threshold =      1.0E-06
     mixing beta               =       0.1000
     number of iterations used =           10  plain     mixing
     Exchange-correlation= SLA  PW   PBX  PBC
                           (   1   4   3   4   0   0   0)

     celldm(1)=  12.938187  celldm(2)=   0.000000  celldm(3)=   0.000000
     celldm(4)=   0.000000  celldm(5)=   0.000000  celldm(6)=   0.000000

     crystal axes: (cart. coord. in units of alat)
               a(1) = (   1.000000   0.000000   0.000000 )  
               a(2) = (   0.000000   1.054470   0.000000 )  
               a(3) = (   0.000000   0.000000   1.000000 )  

     reciprocal axes: (cart. coord. in units 2 pi/alat)
               b(1) = (  1.000000  0.000000  0.000000 )  
               b(2) = (  0.000000  0.948344  0.000000 )  
               b(3) = (  0.000000  0.000000  1.000000 )  


     PseudoPot. # 1 for Fe read from file:
     /rds/homes/b/bxp912/pp/Fe.pbe-spn-kjpaw_psl.1.0.0.UPF
     MD5 check sum: 42f43b795421b414b0dc916aa790dbcb
     Pseudo is Projector augmented-wave + core cor, Zval = 16.0
     Generated using &quot;atomic&quot; code by A. Dal Corso  v.6.3
     Shape of augmentation charge: PSQ
     Using radial grid of 1191 points,  6 beta functions with: 
                l(1) =   0
                l(2) =   0
                l(3) =   1
                l(4) =   1
                l(5) =   2
                l(6) =   2
     Q(r) pseudized with 0 coefficients 


     PseudoPot. # 2 for Fe read from file:
     /rds/homes/b/bxp912/pp/Fe.pbe-spn-kjpaw_psl.1.0.0.UPF
     MD5 check sum: 42f43b795421b414b0dc916aa790dbcb
     Pseudo is Projector augmented-wave + core cor, Zval = 16.0
     Generated using &quot;atomic&quot; code by A. Dal Corso  v.6.3
     Shape of augmentation charge: PSQ
     Using radial grid of 1191 points,  6 beta functions with: 
                l(1) =   0
                l(2) =   0
                l(3) =   1
                l(4) =   1
                l(5) =   2
                l(6) =   2
     Q(r) pseudized with 0 coefficients 


     PseudoPot. # 3 for Fe read from file:
     /rds/homes/b/bxp912/pp/Fe.pbe-spn-kjpaw_psl.1.0.0.UPF
     MD5 check sum: 42f43b795421b414b0dc916aa790dbcb
     Pseudo is Projector augmented-wave + core cor, Zval = 16.0
     Generated using &quot;atomic&quot; code by A. Dal Corso  v.6.3
     Shape of augmentation charge: PSQ
     Using radial grid of 1191 points,  6 beta functions with: 
                l(1) =   0
                l(2) =   0
                l(3) =   1
                l(4) =   1
                l(5) =   2
                l(6) =   2
     Q(r) pseudized with 0 coefficients 


     PseudoPot. # 4 for Fe read from file:
     /rds/homes/b/bxp912/pp/Fe.pbe-spn-kjpaw_psl.1.0.0.UPF
     MD5 check sum: 42f43b795421b414b0dc916aa790dbcb
     Pseudo is Projector augmented-wave + core cor, Zval = 16.0
     Generated using &quot;atomic&quot; code by A. Dal Corso  v.6.3
     Shape of augmentation charge: PSQ
     Using radial grid of 1191 points,  6 beta functions with: 
                l(1) =   0
                l(2) =   0
                l(3) =   1
                l(4) =   1
                l(5) =   2
                l(6) =   2
     Q(r) pseudized with 0 coefficients 


     atomic species   valence    mass     pseudopotential
        Fe1           16.00    55.84500     Fe( 1.00)
        Fe2           16.00    55.84500     Fe( 1.00)
        Fe3           16.00    55.84500     Fe( 1.00)
        Fe4           16.00    55.84500     Fe( 1.00)

     Starting magnetic structure 
     atomic species   magnetization
        Fe1          0.100
        Fe2         -0.100
        Fe3          0.100
        Fe4         -0.100

      8 Sym. Ops., with inversion, found



   Cartesian axes

     site n.     atom                  positions (alat units)
         1           Fe1 tau(   1) = (   0.0000000   0.0000000   0.0000000  )
         2           Fe2 tau(   2) = (   0.2500000   0.2636175   0.0000000  )
         3           Fe3 tau(   3) = (   0.2500000   0.0000000   0.2500000  )
         4           Fe4 tau(   4) = (   0.0000000   0.2636175   0.2500000  )
         5           Fe1 tau(   5) = (   0.0000000   0.0000000   0.5000000  )
         6           Fe2 tau(   6) = (   0.2500000   0.2636175   0.5000000  )
         7           Fe3 tau(   7) = (   0.2500000   0.0000000   0.7500000  )
         8           Fe4 tau(   8) = (   0.0000000   0.2636175   0.7500000  )
         9           Fe1 tau(   9) = (   0.0000000   0.5272350   0.0000000  )
        10           Fe2 tau(  10) = (   0.2500000   0.7908525   0.0000000  )
        11           Fe3 tau(  11) = (   0.2500000   0.5272350   0.2500000  )
        12           Fe4 tau(  12) = (   0.0000000   0.7908525   0.2500000  )
        13           Fe1 tau(  13) = (   0.0000000   0.5272350   0.5000000  )
        14           Fe2 tau(  14) = (   0.2500000   0.7908525   0.5000000  )
        15           Fe3 tau(  15) = (   0.2500000   0.5272350   0.7500000  )
        16           Fe4 tau(  16) = (   0.0000000   0.7908525   0.7500000  )
        17           Fe1 tau(  17) = (   0.5000000   0.0000000   0.0000000  )
        18           Fe2 tau(  18) = (   0.7500000   0.2636175   0.0000000  )
        19           Fe3 tau(  19) = (   0.7500000   0.0000000   0.2500000  )
        20           Fe4 tau(  20) = (   0.5000000   0.2636175   0.2500000  )
        21           Fe1 tau(  21) = (   0.5000000   0.0000000   0.5000000  )
        22           Fe2 tau(  22) = (   0.7500000   0.2636175   0.5000000  )
        23           Fe3 tau(  23) = (   0.7500000   0.0000000   0.7500000  )
        24           Fe4 tau(  24) = (   0.5000000   0.2636175   0.7500000  )
        25           Fe1 tau(  25) = (   0.5000000   0.5272350   0.0000000  )
        26           Fe2 tau(  26) = (   0.7500000   0.7908525   0.0000000  )
        27           Fe3 tau(  27) = (   0.7500000   0.5272350   0.2500000  )
        28           Fe4 tau(  28) = (   0.5000000   0.7908525   0.2500000  )
        29           Fe1 tau(  29) = (   0.5000000   0.5272350   0.5000000  )
        30           Fe2 tau(  30) = (   0.7500000   0.7908525   0.5000000  )
        31           Fe3 tau(  31) = (   0.7500000   0.5272350   0.7500000  )
        32           Fe4 tau(  32) = (   0.5000000   0.7908525   0.7500000  )

     number of k points=   125  Marzari-Vanderbilt smearing, width (Ry)=  0.0400

     Number of k-points >= 100: set verbosity='high' to print them.

     Dense  grid:   343891 G-vectors     FFT dimensions: (  90,  96,  90)

     Smooth grid:   184641 G-vectors     FFT dimensions: (  72,  75,  72)

     Estimated max dynamical RAM per process >     407.32 MB

     Estimated total dynamical RAM >      28.64 GB

     Check: negative core charge=   -0.000006
     Generating pointlists ...
     new r_m :   0.1458 (alat units)  1.8869 (a.u.) for type    1
     new r_m :   0.1458 (alat units)  1.8869 (a.u.) for type    2
     new r_m :   0.1458 (alat units)  1.8869 (a.u.) for type    3
     new r_m :   0.1458 (alat units)  1.8869 (a.u.) for type    4

     Initial potential from superposition of free atoms

     starting charge  511.98600, renormalised to  512.00000
     Starting wfcs are  320 randomized atomic wfcs
     Checking if some PAW data can be deallocated... 

     total cpu time spent up to now is       83.9 secs

     Self-consistent Calculation

     iteration #  1     ecut=    71.00 Ry     beta= 0.10
     Davidson diagonalization with overlap
     ethr =  1.00E-02,  avg # of iterations =  3.0

     Threshold (ethr) on eigenvalues was too large:
     Diagonalizing with lowered threshold

     Davidson diagonalization with overlap
     ethr =  1.79E-04,  avg # of iterations =  6.6

     total cpu time spent up to now is      620.6 secs

     total energy              =  -10536.49351646 Ry
     estimated scf accuracy    <       1.96272049 Ry

     total magnetization       =     0.01 Bohr mag/cell
     absolute magnetization    =    44.63 Bohr mag/cell

     iteration #  2     ecut=    71.00 Ry     beta= 0.10
     Davidson diagonalization with overlap
     ethr =  3.83E-04,  avg # of iterations =  1.0

     total cpu time spent up to now is      784.4 secs

     total energy              =  -10536.18317856 Ry
     estimated scf accuracy    <       1.09148512 Ry

     total magnetization       =    -0.18 Bohr mag/cell
     absolute magnetization    =    45.30 Bohr mag/cell

     iteration #  3     ecut=    71.00 Ry     beta= 0.10
     Davidson diagonalization with overlap
     ethr =  2.13E-04,  avg # of iterations =  2.2

     total cpu time spent up to now is      999.9 secs

     total energy              =  -10536.10084660 Ry
     estimated scf accuracy    <       2.23974600 Ry

     total magnetization       =     0.25 Bohr mag/cell
     absolute magnetization    =    45.88 Bohr mag/cell

     iteration #  4     ecut=    71.00 Ry     beta= 0.10
     Davidson diagonalization with overlap
     ethr =  2.13E-04,  avg # of iterations =  2.2

     total cpu time spent up to now is     1180.9 secs

     total energy              =  -10536.18768909 Ry
     estimated scf accuracy    <       0.50955356 Ry

     total magnetization       =     0.11 Bohr mag/cell
     absolute magnetization    =    46.67 Bohr mag/cell

     iteration #  5     ecut=    71.00 Ry     beta= 0.10
     Davidson diagonalization with overlap
     ethr =  9.95E-05,  avg # of iterations =  1.7

     total cpu time spent up to now is     1352.4 secs

     total energy              =  -10536.19555238 Ry
     estimated scf accuracy    <       0.08823406 Ry

     total magnetization       =    -0.03 Bohr mag/cell
     absolute magnetization    =    46.72 Bohr mag/cell

     iteration #  6     ecut=    71.00 Ry     beta= 0.10
     Davidson diagonalization with overlap
     ethr =  1.72E-05,  avg # of iterations =  2.8

     total cpu time spent up to now is     1534.7 secs

     total energy              =  -10536.18093003 Ry
     estimated scf accuracy    <       0.06680919 Ry

     total magnetization       =    -0.10 Bohr mag/cell
     absolute magnetization    =    46.62 Bohr mag/cell

     iteration #  7     ecut=    71.00 Ry     beta= 0.10
     Davidson diagonalization with overlap
     ethr =  1.30E-05,  avg # of iterations =  4.0

     total cpu time spent up to now is     1806.1 secs

     total energy              =  -10536.19710176 Ry
     estimated scf accuracy    <       0.10337599 Ry

     total magnetization       =     0.02 Bohr mag/cell
     absolute magnetization    =    46.64 Bohr mag/cell

     iteration #  8     ecut=    71.00 Ry     beta= 0.10
     Davidson diagonalization with overlap
     ethr =  1.30E-05,  avg # of iterations =  2.0

     total cpu time spent up to now is     1989.9 secs

     total energy              =  -10536.19912310 Ry
     estimated scf accuracy    <       0.06028884 Ry

     total magnetization       =    -0.01 Bohr mag/cell
     absolute magnetization    =    46.93 Bohr mag/cell

     iteration #  9     ecut=    71.00 Ry     beta= 0.10
     Davidson diagonalization with overlap
     ethr =  1.18E-05,  avg # of iterations =  1.0

     total cpu time spent up to now is     2150.1 secs

     total energy              =  -10536.20921619 Ry
     estimated scf accuracy    <       0.04860909 Ry

     total magnetization       =    -0.03 Bohr mag/cell
     absolute magnetization    =    47.01 Bohr mag/cell

     iteration # 10     ecut=    71.00 Ry     beta= 0.10
     Davidson diagonalization with overlap
     ethr =  9.49E-06,  avg # of iterations =  5.1

     total cpu time spent up to now is     2402.4 secs

     total energy              =  -10536.24391088 Ry
     estimated scf accuracy    <       0.04170855 Ry

     total magnetization       =    -0.12 Bohr mag/cell
     absolute magnetization    =    47.68 Bohr mag/cell

     iteration # 11     ecut=    71.00 Ry     beta= 0.10
     Davidson diagonalization with overlap
     ethr =  8.15E-06,  avg # of iterations =  2.0

     total cpu time spent up to now is     2608.2 secs

     total energy              =  -10536.24393128 Ry
     estimated scf accuracy    <       0.04592483 Ry

     total magnetization       =    -0.07 Bohr mag/cell
     absolute magnetization    =    48.15 Bohr mag/cell

     iteration # 12     ecut=    71.00 Ry     beta= 0.10
     Davidson diagonalization with overlap
     ethr =  8.15E-06,  avg # of iterations =  2.1

     total cpu time spent up to now is     2811.4 secs

     total energy              =  -10536.24875839 Ry
     estimated scf accuracy    <       0.00808522 Ry

     total magnetization       =     0.01 Bohr mag/cell
     absolute magnetization    =    48.35 Bohr mag/cell

     iteration # 13     ecut=    71.00 Ry     beta= 0.10
     Davidson diagonalization with overlap
     ethr =  1.58E-06,  avg # of iterations =  5.6

     total cpu time spent up to now is     3048.9 secs

     total energy              =  -10536.24999043 Ry
     estimated scf accuracy    <       0.00277738 Ry

     total magnetization       =    -0.00 Bohr mag/cell
     absolute magnetization    =    48.46 Bohr mag/cell

     iteration # 14     ecut=    71.00 Ry     beta= 0.10
     Davidson diagonalization with overlap
     ethr =  5.42E-07,  avg # of iterations =  2.4

     total cpu time spent up to now is     3232.5 secs

     total energy              =  -10536.24931424 Ry
     estimated scf accuracy    <       0.00243336 Ry

     total magnetization       =    -0.01 Bohr mag/cell
     absolute magnetization    =    48.50 Bohr mag/cell

     iteration # 15     ecut=    71.00 Ry     beta= 0.10
     Davidson diagonalization with overlap
     ethr =  4.75E-07,  avg # of iterations =  3.5

     total cpu time spent up to now is     3449.0 secs

     total energy              =  -10536.24982826 Ry
     estimated scf accuracy    <       0.00080928 Ry

     total magnetization       =    -0.01 Bohr mag/cell
     absolute magnetization    =    48.62 Bohr mag/cell

     iteration # 16     ecut=    71.00 Ry     beta= 0.10
     Davidson diagonalization with overlap
     ethr =  1.58E-07,  avg # of iterations =  1.3

     total cpu time spent up to now is     3614.2 secs

     total energy              =  -10536.24984074 Ry
     estimated scf accuracy    <       0.00076825 Ry

     total magnetization       =    -0.01 Bohr mag/cell
     absolute magnetization    =    48.66 Bohr mag/cell

     iteration # 17     ecut=    71.00 Ry     beta= 0.10
     Davidson diagonalization with overlap
     ethr =  1.50E-07,  avg # of iterations =  1.4

     total cpu time spent up to now is     3779.0 secs

     total energy              =  -10536.24991232 Ry
     estimated scf accuracy    <       0.00101662 Ry

     total magnetization       =    -0.02 Bohr mag/cell
     absolute magnetization    =    48.68 Bohr mag/cell

     iteration # 18     ecut=    71.00 Ry     beta= 0.10
     Davidson diagonalization with overlap
     ethr =  1.50E-07,  avg # of iterations =  1.6

     total cpu time spent up to now is     3952.3 secs

     total energy              =  -10536.25015644 Ry
     estimated scf accuracy    <       0.00060521 Ry

     total magnetization       =    -0.02 Bohr mag/cell
     absolute magnetization    =    48.73 Bohr mag/cell

     iteration # 19     ecut=    71.00 Ry     beta= 0.10
     Davidson diagonalization with overlap
     ethr =  1.18E-07,  avg # of iterations =  2.4

     total cpu time spent up to now is     4136.4 secs

     total energy              =  -10536.25032540 Ry
     estimated scf accuracy    <       0.00040089 Ry

     total magnetization       =    -0.01 Bohr mag/cell
     absolute magnetization    =    48.87 Bohr mag/cell

     iteration # 20     ecut=    71.00 Ry     beta= 0.10
     Davidson diagonalization with overlap
     ethr =  7.83E-08,  avg # of iterations =  2.4

     total cpu time spent up to now is     4321.6 secs

     total energy              =  -10536.25032403 Ry
     estimated scf accuracy    <       0.00028476 Ry

     total magnetization       =    -0.01 Bohr mag/cell
     absolute magnetization    =    48.96 Bohr mag/cell

     iteration # 21     ecut=    71.00 Ry     beta= 0.10
     Davidson diagonalization with overlap
     ethr =  5.56E-08,  avg # of iterations =  1.6

     total cpu time spent up to now is     4494.1 secs

     total energy              =  -10536.25039456 Ry
     estimated scf accuracy    <       0.00032013 Ry

     total magnetization       =    -0.01 Bohr mag/cell
     absolute magnetization    =    48.97 Bohr mag/cell

     iteration # 22     ecut=    71.00 Ry     beta= 0.10
     Davidson diagonalization with overlap
     ethr =  5.56E-08,  avg # of iterations =  2.0

     total cpu time spent up to now is     4674.9 secs

     total energy              =  -10536.25046795 Ry
     estimated scf accuracy    <       0.00017119 Ry

     total magnetization       =    -0.01 Bohr mag/cell
     absolute magnetization    =    49.05 Bohr mag/cell

     iteration # 23     ecut=    71.00 Ry     beta= 0.10
     Davidson diagonalization with overlap
     ethr =  3.34E-08,  avg # of iterations =  2.1

     total cpu time spent up to now is     4852.3 secs

     total energy              =  -10536.25048842 Ry
     estimated scf accuracy    <       0.00014787 Ry

     total magnetization       =    -0.01 Bohr mag/cell
     absolute magnetization    =    49.11 Bohr mag/cell

     iteration # 24     ecut=    71.00 Ry     beta= 0.10
     Davidson diagonalization with overlap
     ethr =  2.89E-08,  avg # of iterations =  3.3

     total cpu time spent up to now is     5061.7 secs

     total energy              =  -10536.25053540 Ry
     estimated scf accuracy    <       0.00015538 Ry

     total magnetization       =    -0.01 Bohr mag/cell
     absolute magnetization    =    49.17 Bohr mag/cell

     iteration # 25     ecut=    71.00 Ry     beta= 0.10
     Davidson diagonalization with overlap
     ethr =  2.89E-08,  avg # of iterations =  5.1

     total cpu time spent up to now is     5336.5 secs

     total energy              =  -10536.25055762 Ry
     estimated scf accuracy    <       0.00024618 Ry

     total magnetization       =    -0.00 Bohr mag/cell
     absolute magnetization    =    49.31 Bohr mag/cell

     iteration # 26     ecut=    71.00 Ry     beta= 0.10
     Davidson diagonalization with overlap
     ethr =  2.89E-08,  avg # of iterations =  2.0

     total cpu time spent up to now is     5515.6 secs

     total energy              =  -10536.25053704 Ry
     estimated scf accuracy    <       0.00009870 Ry

     total magnetization       =    -0.01 Bohr mag/cell
     absolute magnetization    =    49.35 Bohr mag/cell

     iteration # 27     ecut=    71.00 Ry     beta= 0.10
     Davidson diagonalization with overlap
     ethr =  1.93E-08,  avg # of iterations =  3.9

     total cpu time spent up to now is     5732.9 secs

     total energy              =  -10536.25056123 Ry
     estimated scf accuracy    <       0.00002775 Ry

     total magnetization       =    -0.00 Bohr mag/cell
     absolute magnetization    =    49.37 Bohr mag/cell

     iteration # 28     ecut=    71.00 Ry     beta= 0.10
     Davidson diagonalization with overlap
     ethr =  5.42E-09,  avg # of iterations =  2.1

     total cpu time spent up to now is     5912.1 secs

     total energy              =  -10536.25056918 Ry
     estimated scf accuracy    <       0.00002598 Ry

     total magnetization       =    -0.01 Bohr mag/cell
     absolute magnetization    =    49.40 Bohr mag/cell

     iteration # 29     ecut=    71.00 Ry     beta= 0.10
     Davidson diagonalization with overlap
     ethr =  5.07E-09,  avg # of iterations =  2.0

     total cpu time spent up to now is     6090.0 secs

     total energy              =  -10536.25057387 Ry
     estimated scf accuracy    <       0.00002149 Ry

     total magnetization       =    -0.00 Bohr mag/cell
     absolute magnetization    =    49.43 Bohr mag/cell

     iteration # 30     ecut=    71.00 Ry     beta= 0.10
     Davidson diagonalization with overlap
     ethr =  4.20E-09,  avg # of iterations =  2.9

     total cpu time spent up to now is     6277.2 secs

     total energy              =  -10536.25057784 Ry
     estimated scf accuracy    <       0.00002694 Ry

     total magnetization       =    -0.00 Bohr mag/cell
     absolute magnetization    =    49.46 Bohr mag/cell

     iteration # 31     ecut=    71.00 Ry     beta= 0.10
     Davidson diagonalization with overlap
     ethr =  4.20E-09,  avg # of iterations =  2.0

     total cpu time spent up to now is     6451.0 secs

     total energy              =  -10536.25057924 Ry
     estimated scf accuracy    <       0.00001082 Ry

     total magnetization       =    -0.00 Bohr mag/cell
     absolute magnetization    =    49.47 Bohr mag/cell

     iteration # 32     ecut=    71.00 Ry     beta= 0.10
     Davidson diagonalization with overlap
     ethr =  2.11E-09,  avg # of iterations =  2.0

     total cpu time spent up to now is     6629.7 secs

     total energy              =  -10536.25057939 Ry
     estimated scf accuracy    <       0.00000658 Ry

     total magnetization       =    -0.00 Bohr mag/cell
     absolute magnetization    =    49.48 Bohr mag/cell

     iteration # 33     ecut=    71.00 Ry     beta= 0.10
     Davidson diagonalization with overlap
     ethr =  1.28E-09,  avg # of iterations =  4.4

     total cpu time spent up to now is     6864.1 secs

     total energy              =  -10536.25058214 Ry
     estimated scf accuracy    <       0.00000613 Ry

     total magnetization       =    -0.00 Bohr mag/cell
     absolute magnetization    =    49.52 Bohr mag/cell

     iteration # 34     ecut=    71.00 Ry     beta= 0.10
     Davidson diagonalization with overlap
     ethr =  1.20E-09,  avg # of iterations =  2.0

     total cpu time spent up to now is     7042.3 secs

     total energy              =  -10536.25058277 Ry
     estimated scf accuracy    <       0.00000314 Ry

     total magnetization       =    -0.00 Bohr mag/cell
     absolute magnetization    =    49.52 Bohr mag/cell

     iteration # 35     ecut=    71.00 Ry     beta= 0.10
     Davidson diagonalization with overlap
     ethr =  6.13E-10,  avg # of iterations =  4.6

     total cpu time spent up to now is     7283.2 secs

     total energy              =  -10536.25058360 Ry
     estimated scf accuracy    <       0.00000359 Ry

     total magnetization       =    -0.00 Bohr mag/cell
     absolute magnetization    =    49.52 Bohr mag/cell

     iteration # 36     ecut=    71.00 Ry     beta= 0.10
     Davidson diagonalization with overlap
     ethr =  6.13E-10,  avg # of iterations =  2.2
 
     Magnetic moment per site:
     atom:    1    charge:   14.3916    magn:    1.4916    constr:    0.0000
     atom:    2    charge:   14.3917    magn:   -1.4908    constr:    0.0000
     atom:    3    charge:   14.3911    magn:    1.4931    constr:    0.0000
     atom:    4    charge:   14.3916    magn:   -1.4927    constr:    0.0000
     atom:    5    charge:   14.3916    magn:    1.4901    constr:    0.0000
     atom:    6    charge:   14.3916    magn:   -1.4913    constr:    0.0000
     atom:    7    charge:   14.3911    magn:    1.4931    constr:    0.0000
     atom:    8    charge:   14.3916    magn:   -1.4927    constr:    0.0000
     atom:    9    charge:   14.3911    magn:    1.4919    constr:    0.0000
     atom:   10    charge:   14.3917    magn:   -1.4908    constr:    0.0000
     atom:   11    charge:   14.3912    magn:    1.4928    constr:    0.0000
     atom:   12    charge:   14.3916    magn:   -1.4927    constr:    0.0000
     atom:   13    charge:   14.3917    magn:    1.4909    constr:    0.0000
     atom:   14    charge:   14.3916    magn:   -1.4913    constr:    0.0000
     atom:   15    charge:   14.3912    magn:    1.4928    constr:    0.0000
     atom:   16    charge:   14.3916    magn:   -1.4927    constr:    0.0000
     atom:   17    charge:   14.3915    magn:    1.4902    constr:    0.0000
     atom:   18    charge:   14.3917    magn:   -1.4908    constr:    0.0000
     atom:   19    charge:   14.3911    magn:    1.4931    constr:    0.0000
     atom:   20    charge:   14.3916    magn:   -1.4937    constr:    0.0000
     atom:   21    charge:   14.3914    magn:    1.4909    constr:    0.0000
     atom:   22    charge:   14.3916    magn:   -1.4913    constr:    0.0000
     atom:   23    charge:   14.3911    magn:    1.4931    constr:    0.0000
     atom:   24    charge:   14.3916    magn:   -1.4937    constr:    0.0000
     atom:   25    charge:   14.3913    magn:    1.4915    constr:    0.0000
     atom:   26    charge:   14.3917    magn:   -1.4908    constr:    0.0000
     atom:   27    charge:   14.3912    magn:    1.4928    constr:    0.0000
     atom:   28    charge:   14.3916    magn:   -1.4937    constr:    0.0000
     atom:   29    charge:   14.3912    magn:    1.4913    constr:    0.0000
     atom:   30    charge:   14.3916    magn:   -1.4913    constr:    0.0000
     atom:   31    charge:   14.3912    magn:    1.4928    constr:    0.0000
     atom:   32    charge:   14.3916    magn:   -1.4937    constr:    0.0000

     total cpu time spent up to now is     7472.4 secs

     End of self-consistent calculation

     Number of k-points >= 100: set verbosity='high' to print the bands.

     the Fermi energy is    20.1181 ev

!    total energy              =  -10536.25058428 Ry

     total all-electron energy =    -81457.739642 Ry
     estimated scf accuracy    <       0.00000083 Ry
     smearing contrib. (-TS)   =       0.01447195 Ry
     internal energy E=F+TS    =  -10536.26505624 Ry

     The total energy is F=E-TS. E is the sum of the following terms:
     one-electron contribution =   -3292.36931239 Ry
     hartree contribution      =    1996.48398178 Ry
     xc contribution           =    -886.95131206 Ry
     ewald contribution        =   -5703.86783325 Ry
     one-center paw contrib.   =   -2649.56058031 Ry

     total magnetization       =    -0.00 Bohr mag/cell
     absolute magnetization    =    49.54 Bohr mag/cell

     convergence has been achieved in  36 iterations

     Forces acting on atoms (cartesian axes, Ry/au):

     atom    1 type  1   force =     0.00000000    0.00000000    0.00000000
     atom    2 type  2   force =    -0.00006875   -0.00007032    0.00000000
     atom    3 type  3   force =     0.00004105    0.00000000    0.00016469
     atom    4 type  4   force =     0.00000000    0.00004640   -0.00000509
     atom    5 type  1   force =     0.00000000    0.00000000    0.00000000
     atom    6 type  2   force =     0.00009539   -0.00009590    0.00000000
     atom    7 type  3   force =     0.00004105    0.00000000   -0.00016469
     atom    8 type  4   force =     0.00000000    0.00004640    0.00000509
     atom    9 type  1   force =     0.00000000    0.00000000    0.00000000
     atom   10 type  2   force =    -0.00006875    0.00007032    0.00000000
     atom   11 type  3   force =    -0.00020345    0.00000000   -0.00002383
     atom   12 type  4   force =     0.00000000   -0.00004640   -0.00000509
     atom   13 type  1   force =     0.00000000    0.00000000    0.00000000
     atom   14 type  2   force =     0.00009539    0.00009590    0.00000000
     atom   15 type  3   force =    -0.00020345    0.00000000    0.00002383
     atom   16 type  4   force =     0.00000000   -0.00004640    0.00000509
     atom   17 type  1   force =     0.00000000    0.00000000    0.00000000
     atom   18 type  2   force =     0.00006875   -0.00007032    0.00000000
     atom   19 type  3   force =    -0.00004105    0.00000000    0.00016469
     atom   20 type  4   force =     0.00000000    0.00014909   -0.00032709
     atom   21 type  1   force =     0.00000000    0.00000000    0.00000000
     atom   22 type  2   force =    -0.00009539   -0.00009590    0.00000000
     atom   23 type  3   force =    -0.00004105    0.00000000   -0.00016469
     atom   24 type  4   force =     0.00000000    0.00014909    0.00032709
     atom   25 type  1   force =     0.00000000    0.00000000    0.00000000
     atom   26 type  2   force =     0.00006875    0.00007032    0.00000000
     atom   27 type  3   force =     0.00020345    0.00000000   -0.00002383
     atom   28 type  4   force =     0.00000000   -0.00014909   -0.00032709
     atom   29 type  1   force =     0.00000000    0.00000000    0.00000000
     atom   30 type  2   force =    -0.00009539    0.00009590    0.00000000
     atom   31 type  3   force =     0.00020345    0.00000000    0.00002383
     atom   32 type  4   force =     0.00000000   -0.00014909    0.00032709

     Total force =     0.000959     Total SCF correction =     0.003025
     SCF correction compared to forces is large: reduce conv_thr to get better values


     Computing stress (Cartesian axis) and pressure

          total   stress  (Ry/bohr**3)                   (kbar)     P=       -2.62
  -0.00001817   0.00000000   0.00000000           -2.67        0.00        0.00
   0.00000000  -0.00001698   0.00000000            0.00       -2.50        0.00
   0.00000000   0.00000000  -0.00001838            0.00        0.00       -2.70


     Writing output data file /scratch/bxp912/fecohfcc100.save/
 
     init_run     :     70.54s CPU     72.33s WALL (       1 calls)
     electrons    :   7287.49s CPU   7388.50s WALL (       1 calls)
     forces       :     33.37s CPU     33.65s WALL (       1 calls)
     stress       :    154.94s CPU    156.11s WALL (       1 calls)

     Called by init_run:
     wfcinit      :     69.40s CPU     71.10s WALL (       1 calls)
     potinit      :      0.44s CPU      0.46s WALL (       1 calls)
     hinit0       :      0.26s CPU      0.27s WALL (       1 calls)

     Called by electrons:
     c_bands      :   6407.31s CPU   6490.52s WALL (      37 calls)
     sum_band     :    869.50s CPU    886.48s WALL (      37 calls)
     v_of_rho     :      0.85s CPU      0.92s WALL (      37 calls)
     newd         :      2.47s CPU      2.86s WALL (      37 calls)
     PAW_pot      :      6.50s CPU      6.83s WALL (      37 calls)
     mix_rho      :      0.89s CPU      0.94s WALL (      37 calls)

     Called by c_bands:
     init_us_2    :     31.88s CPU     32.46s WALL (   19250 calls)
     cegterg      :   6295.69s CPU   6374.24s WALL (    9250 calls)

     Called by *egterg:
     cdiaghg      :    859.50s CPU    866.61s WALL (   34135 calls)
     h_psi        :   3398.13s CPU   3454.26s WALL (   34635 calls)
     s_psi        :    223.12s CPU    224.82s WALL (   34635 calls)
     g_psi        :      5.19s CPU      5.25s WALL (   25135 calls)

     Called by h_psi:
     h_psi:calbec :    490.52s CPU    494.16s WALL (   34635 calls)
     vloc_psi     :   2666.00s CPU   2715.83s WALL (   34635 calls)
     add_vuspsi   :    227.61s CPU    230.18s WALL (   34635 calls)

     General routines
     calbec       :    739.45s CPU    745.12s WALL (   45135 calls)
     fft          :      0.78s CPU      0.82s WALL (     965 calls)
     ffts         :      0.11s CPU      0.12s WALL (     148 calls)
     fftw         :   3204.82s CPU   3264.18s WALL (15577542 calls)
     interpolate  :      0.16s CPU      0.16s WALL (      74 calls)
 
     Parallel routines
     fft_scatt_xy :    123.89s CPU    126.13s WALL (15578655 calls)
     fft_scatt_yz :   2783.92s CPU   2836.73s WALL (15578655 calls)
 
     PWSCF        :      2h 6m CPU      2h 8m WALL

 
   This run was terminated on:  21:51:47  26Nov2021            

=------------------------------------------------------------------------------=
   JOB DONE.
=------------------------------------------------------------------------------=
