
     Program PWSCF v.6.7MaX starts on  3Dec2021 at 20:11: 6 

     This program is part of the open-source Quantum ESPRESSO suite
     for quantum simulation of materials; please cite
         "P. Giannozzi et al., J. Phys.:Condens. Matter 21 395502 (2009);
         "P. Giannozzi et al., J. Phys.:Condens. Matter 29 465901 (2017);
          URL http://www.quantum-espresso.org", 
     in publications or presentations arising from this work. More details at
     http://www.quantum-espresso.org/quote

     Parallel version (MPI & OpenMP), running on      72 processor cores
     Number of MPI processes:                72
     Threads/MPI process:                     1

     MPI processes distributed on     1 nodes
     R & G space division:  proc/nbgrp/npool/nimage =      72
     Reading input from fcc_140.in
Warning: card &CELL ignored
Warning: card CELL_DYNAMICS = 'BFGS', ignored
Warning: card CELL_FACTOR = 2.0, ignored
Warning: card PRESS = 0.0, ignored
Warning: card / ignored

     Current dimensions of program PWSCF are:
     Max number of different atomic species (ntypx) = 10
     Max number of k-points (npk) =  40000
     Max angular momentum in pseudopotentials (lmaxx) =  3
     file Fe.pbe-spn-kjpaw_psl.1.0.0.UPF: wavefunction(s)  3P 3D renormalized
     file Fe.pbe-spn-kjpaw_psl.1.0.0.UPF: wavefunction(s)  3P 3D renormalized
     file Fe.pbe-spn-kjpaw_psl.1.0.0.UPF: wavefunction(s)  3P 3D renormalized
     file Fe.pbe-spn-kjpaw_psl.1.0.0.UPF: wavefunction(s)  3P 3D renormalized

     Subspace diagonalization in iterative solution of the eigenvalue problem:
     one sub-group per band group will be used
     ELPA distributed-memory algorithm (size of sub-group:  8*  8 procs)

     Found symmetry operation: I + (  0.0000  0.0000 -0.5000)
     This is a supercell, fractional translations are disabled
     Message from routine setup:
     using ibrav=0 with symmetry is DISCOURAGED, use correct ibrav instead
 
     Parallelization info
     --------------------
     sticks:   dense  smooth     PW     G-vecs:    dense   smooth      PW
     Min         164     108     29                13106     7032     973
     Max         165     109     30                13109     7039     977
     Sum       11837    7819   2095               943715   506527   70213
 


     bravais-lattice index     =            0
     lattice parameter (alat)  =      12.9382  a.u.
     unit-cell volume          =    6266.6953 (a.u.)^3
     number of atoms/cell      =           32
     number of atomic types    =            4
     number of electrons       =       512.00
     number of Kohn-Sham states=          307
     kinetic-energy cutoff     =      71.0000  Ry
     charge density cutoff     =     430.0000  Ry
     scf convergence threshold =      1.0E-06
     mixing beta               =       0.1000
     number of iterations used =           10  plain     mixing
     Exchange-correlation= SLA  PW   PBX  PBC
                           (   1   4   3   4   0   0   0)

     celldm(1)=  12.938187  celldm(2)=   0.000000  celldm(3)=   0.000000
     celldm(4)=   0.000000  celldm(5)=   0.000000  celldm(6)=   0.000000

     crystal axes: (cart. coord. in units of alat)
               a(1) = (   1.400000   0.000000   0.000000 )  
               a(2) = (   0.000000   1.476258   0.000000 )  
               a(3) = (   0.000000   0.000000   1.400000 )  

     reciprocal axes: (cart. coord. in units 2 pi/alat)
               b(1) = (  0.714286  0.000000  0.000000 )  
               b(2) = (  0.000000  0.677388  0.000000 )  
               b(3) = (  0.000000  0.000000  0.714286 )  


     PseudoPot. # 1 for Fe read from file:
     /rds/homes/b/bxp912/pp/Fe.pbe-spn-kjpaw_psl.1.0.0.UPF
     MD5 check sum: 42f43b795421b414b0dc916aa790dbcb
     Pseudo is Projector augmented-wave + core cor, Zval = 16.0
     Generated using &quot;atomic&quot; code by A. Dal Corso  v.6.3
     Shape of augmentation charge: PSQ
     Using radial grid of 1191 points,  6 beta functions with: 
                l(1) =   0
                l(2) =   0
                l(3) =   1
                l(4) =   1
                l(5) =   2
                l(6) =   2
     Q(r) pseudized with 0 coefficients 


     PseudoPot. # 2 for Fe read from file:
     /rds/homes/b/bxp912/pp/Fe.pbe-spn-kjpaw_psl.1.0.0.UPF
     MD5 check sum: 42f43b795421b414b0dc916aa790dbcb
     Pseudo is Projector augmented-wave + core cor, Zval = 16.0
     Generated using &quot;atomic&quot; code by A. Dal Corso  v.6.3
     Shape of augmentation charge: PSQ
     Using radial grid of 1191 points,  6 beta functions with: 
                l(1) =   0
                l(2) =   0
                l(3) =   1
                l(4) =   1
                l(5) =   2
                l(6) =   2
     Q(r) pseudized with 0 coefficients 


     PseudoPot. # 3 for Fe read from file:
     /rds/homes/b/bxp912/pp/Fe.pbe-spn-kjpaw_psl.1.0.0.UPF
     MD5 check sum: 42f43b795421b414b0dc916aa790dbcb
     Pseudo is Projector augmented-wave + core cor, Zval = 16.0
     Generated using &quot;atomic&quot; code by A. Dal Corso  v.6.3
     Shape of augmentation charge: PSQ
     Using radial grid of 1191 points,  6 beta functions with: 
                l(1) =   0
                l(2) =   0
                l(3) =   1
                l(4) =   1
                l(5) =   2
                l(6) =   2
     Q(r) pseudized with 0 coefficients 


     PseudoPot. # 4 for Fe read from file:
     /rds/homes/b/bxp912/pp/Fe.pbe-spn-kjpaw_psl.1.0.0.UPF
     MD5 check sum: 42f43b795421b414b0dc916aa790dbcb
     Pseudo is Projector augmented-wave + core cor, Zval = 16.0
     Generated using &quot;atomic&quot; code by A. Dal Corso  v.6.3
     Shape of augmentation charge: PSQ
     Using radial grid of 1191 points,  6 beta functions with: 
                l(1) =   0
                l(2) =   0
                l(3) =   1
                l(4) =   1
                l(5) =   2
                l(6) =   2
     Q(r) pseudized with 0 coefficients 


     atomic species   valence    mass     pseudopotential
        Fe1           16.00    55.84500     Fe( 1.00)
        Fe2           16.00    55.84500     Fe( 1.00)
        Fe3           16.00    55.84500     Fe( 1.00)
        Fe4           16.00    55.84500     Fe( 1.00)

     Starting magnetic structure 
     atomic species   magnetization
        Fe1          0.100
        Fe2         -0.100
        Fe3          0.100
        Fe4         -0.100

      8 Sym. Ops., with inversion, found



   Cartesian axes

     site n.     atom                  positions (alat units)
         1           Fe1 tau(   1) = (   0.0000000   0.0000000   0.0000000  )
         2           Fe2 tau(   2) = (   0.3500000   0.3690645   0.0000000  )
         3           Fe3 tau(   3) = (   0.3500000   0.0000000   0.3500000  )
         4           Fe4 tau(   4) = (   0.0000000   0.3690645   0.3500000  )
         5           Fe1 tau(   5) = (   0.0000000   0.0000000   0.7000000  )
         6           Fe2 tau(   6) = (   0.3500000   0.3690645   0.7000000  )
         7           Fe3 tau(   7) = (   0.3500000   0.0000000   1.0500000  )
         8           Fe4 tau(   8) = (   0.0000000   0.3690645   1.0500000  )
         9           Fe1 tau(   9) = (   0.0000000   0.7381290   0.0000000  )
        10           Fe2 tau(  10) = (   0.3500000   1.1071935   0.0000000  )
        11           Fe3 tau(  11) = (   0.3500000   0.7381290   0.3500000  )
        12           Fe4 tau(  12) = (   0.0000000   1.1071935   0.3500000  )
        13           Fe1 tau(  13) = (   0.0000000   0.7381290   0.7000000  )
        14           Fe2 tau(  14) = (   0.3500000   1.1071935   0.7000000  )
        15           Fe3 tau(  15) = (   0.3500000   0.7381290   1.0500000  )
        16           Fe4 tau(  16) = (   0.0000000   1.1071935   1.0500000  )
        17           Fe1 tau(  17) = (   0.7000000   0.0000000   0.0000000  )
        18           Fe2 tau(  18) = (   1.0500000   0.3690645   0.0000000  )
        19           Fe3 tau(  19) = (   1.0500000   0.0000000   0.3500000  )
        20           Fe4 tau(  20) = (   0.7000000   0.3690645   0.3500000  )
        21           Fe1 tau(  21) = (   0.7000000   0.0000000   0.7000000  )
        22           Fe2 tau(  22) = (   1.0500000   0.3690645   0.7000000  )
        23           Fe3 tau(  23) = (   1.0500000   0.0000000   1.0500000  )
        24           Fe4 tau(  24) = (   0.7000000   0.3690645   1.0500000  )
        25           Fe1 tau(  25) = (   0.7000000   0.7381290   0.0000000  )
        26           Fe2 tau(  26) = (   1.0500000   1.1071935   0.0000000  )
        27           Fe3 tau(  27) = (   1.0500000   0.7381290   0.3500000  )
        28           Fe4 tau(  28) = (   0.7000000   1.1071935   0.3500000  )
        29           Fe1 tau(  29) = (   0.7000000   0.7381290   0.7000000  )
        30           Fe2 tau(  30) = (   1.0500000   1.1071935   0.7000000  )
        31           Fe3 tau(  31) = (   1.0500000   0.7381290   1.0500000  )
        32           Fe4 tau(  32) = (   0.7000000   1.1071935   1.0500000  )

     number of k points=   125  Marzari-Vanderbilt smearing, width (Ry)=  0.0400

     Number of k-points >= 100: set verbosity='high' to print them.

     Dense  grid:   943715 G-vectors     FFT dimensions: ( 120, 128, 120)

     Smooth grid:   506527 G-vectors     FFT dimensions: ( 100, 108, 100)

     Estimated max dynamical RAM per process >       1.08 GB

     Estimated total dynamical RAM >      77.71 GB

     Check: negative core charge=   -0.000003
     Generating pointlists ...
     new r_m :   0.2042 (alat units)  2.6417 (a.u.) for type    1
     new r_m :   0.2042 (alat units)  2.6417 (a.u.) for type    2
     new r_m :   0.2042 (alat units)  2.6417 (a.u.) for type    3
     new r_m :   0.2042 (alat units)  2.6417 (a.u.) for type    4

     Initial potential from superposition of free atoms

     starting charge  511.98600, renormalised to  512.00000
     Starting wfcs are  320 randomized atomic wfcs
     Checking if some PAW data can be deallocated... 

     total cpu time spent up to now is      149.9 secs

     Self-consistent Calculation

     iteration #  1     ecut=    71.00 Ry     beta= 0.10
     Davidson diagonalization with overlap
     ethr =  1.00E-02,  avg # of iterations =  3.6

     total cpu time spent up to now is      546.2 secs

     total energy              =  -10528.15627699 Ry
     estimated scf accuracy    <      11.10670927 Ry

     total magnetization       =     0.44 Bohr mag/cell
     absolute magnetization    =    89.15 Bohr mag/cell

     iteration #  2     ecut=    71.00 Ry     beta= 0.10
     Davidson diagonalization with overlap
     ethr =  2.17E-03,  avg # of iterations =  2.3

     total cpu time spent up to now is      941.7 secs

     total energy              =  -10528.31427707 Ry
     estimated scf accuracy    <      10.79334157 Ry

     total magnetization       =    -2.01 Bohr mag/cell
     absolute magnetization    =    94.42 Bohr mag/cell

     iteration #  3     ecut=    71.00 Ry     beta= 0.10
     Davidson diagonalization with overlap
     ethr =  2.11E-03,  avg # of iterations =  1.4

     total cpu time spent up to now is     1276.4 secs

     total energy              =  -10528.37154609 Ry
     estimated scf accuracy    <      51.79079113 Ry

     total magnetization       =     0.81 Bohr mag/cell
     absolute magnetization    =    95.38 Bohr mag/cell

     iteration #  4     ecut=    71.00 Ry     beta= 0.10
     Davidson diagonalization with overlap
     ethr =  2.11E-03,  avg # of iterations =  2.0

     total cpu time spent up to now is     1627.2 secs

     total energy              =  -10529.02576382 Ry
     estimated scf accuracy    <      22.48720474 Ry

     total magnetization       =     1.34 Bohr mag/cell
     absolute magnetization    =    96.98 Bohr mag/cell

     iteration #  5     ecut=    71.00 Ry     beta= 0.10
     Davidson diagonalization with overlap
     ethr =  2.11E-03,  avg # of iterations =  1.3

     total cpu time spent up to now is     1947.5 secs

     total energy              =  -10529.33109743 Ry
     estimated scf accuracy    <       4.23306371 Ry

     total magnetization       =     3.87 Bohr mag/cell
     absolute magnetization    =    98.52 Bohr mag/cell

     iteration #  6     ecut=    71.00 Ry     beta= 0.10
     Davidson diagonalization with overlap
     ethr =  8.27E-04,  avg # of iterations =  2.4

     total cpu time spent up to now is     2300.7 secs

     total energy              =  -10529.43112954 Ry
     estimated scf accuracy    <       1.78073398 Ry

     total magnetization       =     1.05 Bohr mag/cell
     absolute magnetization    =    99.25 Bohr mag/cell

     iteration #  7     ecut=    71.00 Ry     beta= 0.10
     Davidson diagonalization with overlap
     ethr =  3.48E-04,  avg # of iterations =  3.7

     total cpu time spent up to now is     2668.3 secs

     total energy              =  -10529.61492838 Ry
     estimated scf accuracy    <       1.63089395 Ry

     total magnetization       =    -2.40 Bohr mag/cell
     absolute magnetization    =    99.83 Bohr mag/cell

     iteration #  8     ecut=    71.00 Ry     beta= 0.10
     Davidson diagonalization with overlap
     ethr =  3.19E-04,  avg # of iterations =  2.0

     total cpu time spent up to now is     3034.4 secs

     total energy              =  -10529.93094169 Ry
     estimated scf accuracy    <       3.21198907 Ry

     total magnetization       =    -4.15 Bohr mag/cell
     absolute magnetization    =   100.14 Bohr mag/cell

     iteration #  9     ecut=    71.00 Ry     beta= 0.10
     Davidson diagonalization with overlap
     ethr =  3.19E-04,  avg # of iterations =  1.4

     negative rho (up, down):  2.683E-03 2.507E-03

     total cpu time spent up to now is     3359.5 secs

     total energy              =  -10530.15597018 Ry
     estimated scf accuracy    <       5.30204321 Ry

     total magnetization       =     2.99 Bohr mag/cell
     absolute magnetization    =   101.16 Bohr mag/cell

     iteration # 10     ecut=    71.00 Ry     beta= 0.10
     Davidson diagonalization with overlap
     ethr =  3.19E-04,  avg # of iterations =  3.3

     negative rho (up, down):  5.169E-03 5.011E-03

     total cpu time spent up to now is     3719.4 secs

     total energy              =  -10530.36445555 Ry
     estimated scf accuracy    <       6.67654946 Ry

     total magnetization       =     8.59 Bohr mag/cell
     absolute magnetization    =   105.58 Bohr mag/cell

     iteration # 11     ecut=    71.00 Ry     beta= 0.10
     Davidson diagonalization with overlap
     ethr =  3.19E-04,  avg # of iterations =  3.7

     negative rho (up, down):  5.656E-03 5.524E-03

     total cpu time spent up to now is     4087.4 secs

     total energy              =  -10530.45944953 Ry
     estimated scf accuracy    <       2.18885996 Ry

     total magnetization       =     5.06 Bohr mag/cell
     absolute magnetization    =   108.17 Bohr mag/cell

     iteration # 12     ecut=    71.00 Ry     beta= 0.10
     Davidson diagonalization with overlap
     ethr =  3.19E-04,  avg # of iterations =  2.2

     negative rho (up, down):  6.718E-03 6.658E-03

     total cpu time spent up to now is     4433.0 secs

     total energy              =  -10530.39089388 Ry
     estimated scf accuracy    <       1.43871275 Ry

     total magnetization       =     2.67 Bohr mag/cell
     absolute magnetization    =   109.29 Bohr mag/cell

     iteration # 13     ecut=    71.00 Ry     beta= 0.10
     Davidson diagonalization with overlap
     ethr =  2.81E-04,  avg # of iterations =  6.3

     negative rho (up, down):  6.696E-03 6.613E-03

     total cpu time spent up to now is     4860.0 secs

     total energy              =  -10530.48352920 Ry
     estimated scf accuracy    <       0.41851084 Ry

     total magnetization       =    -2.16 Bohr mag/cell
     absolute magnetization    =   113.29 Bohr mag/cell

     iteration # 14     ecut=    71.00 Ry     beta= 0.10
     Davidson diagonalization with overlap
     ethr =  8.17E-05,  avg # of iterations =  2.8

     negative rho (up, down):  6.970E-03 6.884E-03

     total cpu time spent up to now is     5218.7 secs

     total energy              =  -10530.50218046 Ry
     estimated scf accuracy    <       0.09611808 Ry

     total magnetization       =    -0.38 Bohr mag/cell
     absolute magnetization    =   113.08 Bohr mag/cell

     iteration # 15     ecut=    71.00 Ry     beta= 0.10
     Davidson diagonalization with overlap
     ethr =  1.88E-05,  avg # of iterations =  6.8

     negative rho (up, down):  7.023E-03 6.942E-03

     total cpu time spent up to now is     5650.0 secs

     total energy              =  -10530.50698127 Ry
     estimated scf accuracy    <       0.06588976 Ry

     total magnetization       =     0.25 Bohr mag/cell
     absolute magnetization    =   113.86 Bohr mag/cell

     iteration # 16     ecut=    71.00 Ry     beta= 0.10
     Davidson diagonalization with overlap
     ethr =  1.29E-05,  avg # of iterations =  1.4

     negative rho (up, down):  7.044E-03 6.969E-03

     total cpu time spent up to now is     5980.7 secs

     total energy              =  -10530.50448867 Ry
     estimated scf accuracy    <       0.06298958 Ry

     total magnetization       =    -0.01 Bohr mag/cell
     absolute magnetization    =   113.89 Bohr mag/cell

     iteration # 17     ecut=    71.00 Ry     beta= 0.10
     Davidson diagonalization with overlap
     ethr =  1.23E-05,  avg # of iterations =  1.4

     negative rho (up, down):  6.827E-03 6.764E-03

     total cpu time spent up to now is     6305.2 secs

     total energy              =  -10530.49712821 Ry
     estimated scf accuracy    <       0.07415190 Ry

     total magnetization       =    -0.22 Bohr mag/cell
     absolute magnetization    =   113.88 Bohr mag/cell

     iteration # 18     ecut=    71.00 Ry     beta= 0.10
     Davidson diagonalization with overlap
     ethr =  1.23E-05,  avg # of iterations =  1.6

     negative rho (up, down):  7.053E-03 7.005E-03

     total cpu time spent up to now is     6638.0 secs

     total energy              =  -10530.49055939 Ry
     estimated scf accuracy    <       0.12289741 Ry

     total magnetization       =    -0.58 Bohr mag/cell
     absolute magnetization    =   113.75 Bohr mag/cell

     iteration # 19     ecut=    71.00 Ry     beta= 0.10
     Davidson diagonalization with overlap
     ethr =  1.23E-05,  avg # of iterations =  2.3

     negative rho (up, down):  7.424E-03 7.385E-03

     total cpu time spent up to now is     6995.3 secs

     total energy              =  -10530.48977384 Ry
     estimated scf accuracy    <       0.18122670 Ry

     total magnetization       =    -0.40 Bohr mag/cell
     absolute magnetization    =   113.83 Bohr mag/cell

     iteration # 20     ecut=    71.00 Ry     beta= 0.10
     Davidson diagonalization with overlap
     ethr =  1.23E-05,  avg # of iterations =  1.2

     negative rho (up, down):  7.631E-03 7.589E-03

     total cpu time spent up to now is     7313.9 secs

     total energy              =  -10530.48903699 Ry
     estimated scf accuracy    <       0.12023089 Ry

     total magnetization       =    -0.73 Bohr mag/cell
     absolute magnetization    =   114.06 Bohr mag/cell

     iteration # 21     ecut=    71.00 Ry     beta= 0.10
     Davidson diagonalization with overlap
     ethr =  1.23E-05,  avg # of iterations =  1.2

     negative rho (up, down):  7.459E-03 7.416E-03

     total cpu time spent up to now is     7643.1 secs

     total energy              =  -10530.49360727 Ry
     estimated scf accuracy    <       0.03525796 Ry

     total magnetization       =    -0.14 Bohr mag/cell
     absolute magnetization    =   114.22 Bohr mag/cell

     iteration # 22     ecut=    71.00 Ry     beta= 0.10
     Davidson diagonalization with overlap
     ethr =  6.89E-06,  avg # of iterations =  1.1

     negative rho (up, down):  7.450E-03 7.407E-03

     total cpu time spent up to now is     7963.3 secs

     total energy              =  -10530.49347023 Ry
     estimated scf accuracy    <       0.02637821 Ry

     total magnetization       =    -0.25 Bohr mag/cell
     absolute magnetization    =   114.19 Bohr mag/cell

     iteration # 23     ecut=    71.00 Ry     beta= 0.10
     Davidson diagonalization with overlap
     ethr =  5.15E-06,  avg # of iterations =  1.6

     negative rho (up, down):  7.235E-03 7.180E-03

     total cpu time spent up to now is     8287.2 secs

     total energy              =  -10530.49494450 Ry
     estimated scf accuracy    <       0.02763641 Ry

     total magnetization       =    -0.18 Bohr mag/cell
     absolute magnetization    =   114.21 Bohr mag/cell

     iteration # 24     ecut=    71.00 Ry     beta= 0.10
     Davidson diagonalization with overlap
     ethr =  5.15E-06,  avg # of iterations =  1.7

     negative rho (up, down):  7.220E-03 7.180E-03

     total cpu time spent up to now is     8620.2 secs

     total energy              =  -10530.49396969 Ry
     estimated scf accuracy    <       0.03467185 Ry

     total magnetization       =     0.36 Bohr mag/cell
     absolute magnetization    =   114.19 Bohr mag/cell

     iteration # 25     ecut=    71.00 Ry     beta= 0.10
     Davidson diagonalization with overlap
     ethr =  5.15E-06,  avg # of iterations =  1.0

     negative rho (up, down):  6.954E-03 6.914E-03

     total cpu time spent up to now is     8931.0 secs

     total energy              =  -10530.49415662 Ry
     estimated scf accuracy    <       0.01865183 Ry

     total magnetization       =    -0.35 Bohr mag/cell
     absolute magnetization    =   114.22 Bohr mag/cell

     iteration # 26     ecut=    71.00 Ry     beta= 0.10
     Davidson diagonalization with overlap
     ethr =  3.64E-06,  avg # of iterations =  3.5

     negative rho (up, down):  6.858E-03 6.826E-03

     total cpu time spent up to now is     9298.9 secs

     total energy              =  -10530.49497390 Ry
     estimated scf accuracy    <       0.02418165 Ry

     total magnetization       =     0.51 Bohr mag/cell
     absolute magnetization    =   114.27 Bohr mag/cell

     iteration # 27     ecut=    71.00 Ry     beta= 0.10
     Davidson diagonalization with overlap
     ethr =  3.64E-06,  avg # of iterations =  1.2

     negative rho (up, down):  6.850E-03 6.820E-03

     total cpu time spent up to now is     9617.2 secs

     total energy              =  -10530.49561269 Ry
     estimated scf accuracy    <       0.00759088 Ry

     total magnetization       =     0.21 Bohr mag/cell
     absolute magnetization    =   114.27 Bohr mag/cell

     iteration # 28     ecut=    71.00 Ry     beta= 0.10
     Davidson diagonalization with overlap
     ethr =  1.48E-06,  avg # of iterations =  4.3

     negative rho (up, down):  6.769E-03 6.741E-03

     total cpu time spent up to now is     9992.8 secs

     total energy              =  -10530.49589727 Ry
     estimated scf accuracy    <       0.01102504 Ry

     total magnetization       =    -0.23 Bohr mag/cell
     absolute magnetization    =   114.21 Bohr mag/cell

     iteration # 29     ecut=    71.00 Ry     beta= 0.10
     Davidson diagonalization with overlap
     c_bands:  1 eigenvalues not converged
     c_bands:  1 eigenvalues not converged
     ethr =  1.48E-06,  avg # of iterations =  4.3

     negative rho (up, down):  6.645E-03 6.624E-03

     total cpu time spent up to now is    10357.4 secs

     total energy              =  -10530.49677518 Ry
     estimated scf accuracy    <       0.01131667 Ry

     total magnetization       =    -0.03 Bohr mag/cell
     absolute magnetization    =   114.17 Bohr mag/cell

     iteration # 30     ecut=    71.00 Ry     beta= 0.10
     Davidson diagonalization with overlap
     c_bands:  1 eigenvalues not converged
     c_bands:  1 eigenvalues not converged
     ethr =  1.48E-06,  avg # of iterations =  5.8

     negative rho (up, down):  6.556E-03 6.534E-03

     total cpu time spent up to now is    10732.4 secs

     total energy              =  -10530.49750255 Ry
     estimated scf accuracy    <       0.00601391 Ry

     total magnetization       =     0.11 Bohr mag/cell
     absolute magnetization    =   114.13 Bohr mag/cell

     iteration # 31     ecut=    71.00 Ry     beta= 0.10
     Davidson diagonalization with overlap
     ethr =  1.17E-06,  avg # of iterations =  3.9

     negative rho (up, down):  6.282E-03 6.269E-03

     total cpu time spent up to now is    11101.5 secs

     total energy              =  -10530.49902554 Ry
     estimated scf accuracy    <       0.02112330 Ry

     total magnetization       =     0.09 Bohr mag/cell
     absolute magnetization    =   114.06 Bohr mag/cell

     iteration # 32     ecut=    71.00 Ry     beta= 0.10
     Davidson diagonalization with overlap
     c_bands:  1 eigenvalues not converged
     c_bands:  1 eigenvalues not converged
     c_bands:  1 eigenvalues not converged
     c_bands:  1 eigenvalues not converged
     c_bands:  1 eigenvalues not converged
     ethr =  1.17E-06,  avg # of iterations =  7.2

     negative rho (up, down):  6.250E-03 6.244E-03

     total cpu time spent up to now is    11520.1 secs

     total energy              =  -10530.50029847 Ry
     estimated scf accuracy    <       0.00608384 Ry

     total magnetization       =     0.11 Bohr mag/cell
     absolute magnetization    =   113.88 Bohr mag/cell

     iteration # 33     ecut=    71.00 Ry     beta= 0.10
     Davidson diagonalization with overlap
     ethr =  1.17E-06,  avg # of iterations =  2.5

     negative rho (up, down):  6.207E-03 6.199E-03

     total cpu time spent up to now is    11875.0 secs

     total energy              =  -10530.50062853 Ry
     estimated scf accuracy    <       0.00501226 Ry

     total magnetization       =    -0.08 Bohr mag/cell
     absolute magnetization    =   113.86 Bohr mag/cell

     iteration # 34     ecut=    71.00 Ry     beta= 0.10
     Davidson diagonalization with overlap
     ethr =  9.79E-07,  avg # of iterations =  2.3

     negative rho (up, down):  6.234E-03 6.224E-03

     total cpu time spent up to now is    12213.4 secs

     total energy              =  -10530.50020720 Ry
     estimated scf accuracy    <       0.00347141 Ry

     total magnetization       =     0.06 Bohr mag/cell
     absolute magnetization    =   113.83 Bohr mag/cell

     iteration # 35     ecut=    71.00 Ry     beta= 0.10
     Davidson diagonalization with overlap
     ethr =  6.78E-07,  avg # of iterations =  2.8

     negative rho (up, down):  6.079E-03 6.072E-03

     total cpu time spent up to now is    12562.7 secs

     total energy              =  -10530.50092626 Ry
     estimated scf accuracy    <       0.00692717 Ry

     total magnetization       =    -0.05 Bohr mag/cell
     absolute magnetization    =   113.81 Bohr mag/cell

     iteration # 36     ecut=    71.00 Ry     beta= 0.10
     Davidson diagonalization with overlap
     ethr =  6.78E-07,  avg # of iterations =  4.3

     negative rho (up, down):  5.996E-03 5.992E-03

     total cpu time spent up to now is    12926.5 secs

     total energy              =  -10530.50127206 Ry
     estimated scf accuracy    <       0.00371008 Ry

     total magnetization       =     0.06 Bohr mag/cell
     absolute magnetization    =   113.76 Bohr mag/cell

     iteration # 37     ecut=    71.00 Ry     beta= 0.10
     Davidson diagonalization with overlap
     ethr =  6.78E-07,  avg # of iterations =  2.0

     negative rho (up, down):  5.995E-03 5.992E-03

     total cpu time spent up to now is    13257.2 secs

     total energy              =  -10530.50160678 Ry
     estimated scf accuracy    <       0.00100056 Ry

     total magnetization       =    -0.02 Bohr mag/cell
     absolute magnetization    =   113.72 Bohr mag/cell

     iteration # 38     ecut=    71.00 Ry     beta= 0.10
     Davidson diagonalization with overlap
     ethr =  1.95E-07,  avg # of iterations =  9.0

     negative rho (up, down):  5.996E-03 5.993E-03

     total cpu time spent up to now is    13811.9 secs

     total energy              =  -10530.50168032 Ry
     estimated scf accuracy    <       0.00104859 Ry

     total magnetization       =     0.05 Bohr mag/cell
     absolute magnetization    =   113.66 Bohr mag/cell

     iteration # 39     ecut=    71.00 Ry     beta= 0.10
     Davidson diagonalization with overlap
     ethr =  1.95E-07,  avg # of iterations =  1.6

     negative rho (up, down):  6.010E-03 6.010E-03

     total cpu time spent up to now is    14169.9 secs

     total energy              =  -10530.50199828 Ry
     estimated scf accuracy    <       0.00096533 Ry

     total magnetization       =    -0.02 Bohr mag/cell
     absolute magnetization    =   113.66 Bohr mag/cell

     iteration # 40     ecut=    71.00 Ry     beta= 0.10
     Davidson diagonalization with overlap
     ethr =  1.89E-07,  avg # of iterations =  6.1

     negative rho (up, down):  5.957E-03 5.959E-03

     total cpu time spent up to now is    14601.0 secs

     total energy              =  -10530.50226779 Ry
     estimated scf accuracy    <       0.00202397 Ry

     total magnetization       =    -0.04 Bohr mag/cell
     absolute magnetization    =   113.65 Bohr mag/cell

     iteration # 41     ecut=    71.00 Ry     beta= 0.10
     Davidson diagonalization with overlap
     ethr =  1.89E-07,  avg # of iterations =  7.4

     negative rho (up, down):  5.938E-03 5.940E-03

     total cpu time spent up to now is    15038.5 secs

     total energy              =  -10530.50234995 Ry
     estimated scf accuracy    <       0.00116713 Ry

     total magnetization       =    -0.02 Bohr mag/cell
     absolute magnetization    =   113.62 Bohr mag/cell

     iteration # 42     ecut=    71.00 Ry     beta= 0.10
     Davidson diagonalization with overlap
     ethr =  1.89E-07,  avg # of iterations =  1.7

     negative rho (up, down):  5.995E-03 5.998E-03

     total cpu time spent up to now is    15366.3 secs

     total energy              =  -10530.50258727 Ry
     estimated scf accuracy    <       0.00126187 Ry

     total magnetization       =     0.02 Bohr mag/cell
     absolute magnetization    =   113.61 Bohr mag/cell

     iteration # 43     ecut=    71.00 Ry     beta= 0.10
     Davidson diagonalization with overlap
     ethr =  1.89E-07,  avg # of iterations =  5.7

     negative rho (up, down):  6.008E-03 6.012E-03

     total cpu time spent up to now is    15757.1 secs

     total energy              =  -10530.50273997 Ry
     estimated scf accuracy    <       0.00111684 Ry

     total magnetization       =     0.05 Bohr mag/cell
     absolute magnetization    =   113.63 Bohr mag/cell

     iteration # 44     ecut=    71.00 Ry     beta= 0.10
     Davidson diagonalization with overlap
     ethr =  1.89E-07,  avg # of iterations =  3.3

     negative rho (up, down):  6.058E-03 6.063E-03

     total cpu time spent up to now is    16161.5 secs

     total energy              =  -10530.50280252 Ry
     estimated scf accuracy    <       0.00075005 Ry

     total magnetization       =     0.03 Bohr mag/cell
     absolute magnetization    =   113.64 Bohr mag/cell

     iteration # 45     ecut=    71.00 Ry     beta= 0.10
     Davidson diagonalization with overlap
     c_bands:  1 eigenvalues not converged
     ethr =  1.46E-07,  avg # of iterations =  4.4

     negative rho (up, down):  6.021E-03 6.025E-03

     total cpu time spent up to now is    16528.0 secs

     total energy              =  -10530.50277900 Ry
     estimated scf accuracy    <       0.00142115 Ry

     total magnetization       =    -0.09 Bohr mag/cell
     absolute magnetization    =   113.67 Bohr mag/cell

     iteration # 46     ecut=    71.00 Ry     beta= 0.10
     Davidson diagonalization with overlap
     ethr =  1.46E-07,  avg # of iterations =  2.5

     negative rho (up, down):  6.066E-03 6.071E-03

     total cpu time spent up to now is    16869.1 secs

     total energy              =  -10530.50289520 Ry
     estimated scf accuracy    <       0.00087711 Ry

     total magnetization       =     0.02 Bohr mag/cell
     absolute magnetization    =   113.66 Bohr mag/cell

     iteration # 47     ecut=    71.00 Ry     beta= 0.10
     Davidson diagonalization with overlap
     ethr =  1.46E-07,  avg # of iterations =  6.1

     negative rho (up, down):  6.107E-03 6.111E-03

     total cpu time spent up to now is    17253.0 secs

     total energy              =  -10530.50296545 Ry
     estimated scf accuracy    <       0.00071437 Ry

     total magnetization       =    -0.03 Bohr mag/cell
     absolute magnetization    =   113.69 Bohr mag/cell

     iteration # 48     ecut=    71.00 Ry     beta= 0.10
     Davidson diagonalization with overlap
     ethr =  1.40E-07,  avg # of iterations =  3.3

     negative rho (up, down):  6.131E-03 6.135E-03

     total cpu time spent up to now is    17606.8 secs

     total energy              =  -10530.50299595 Ry
     estimated scf accuracy    <       0.00057606 Ry

     total magnetization       =    -0.01 Bohr mag/cell
     absolute magnetization    =   113.72 Bohr mag/cell

     iteration # 49     ecut=    71.00 Ry     beta= 0.10
     Davidson diagonalization with overlap
     ethr =  1.13E-07,  avg # of iterations =  3.7

     negative rho (up, down):  6.136E-03 6.139E-03

     total cpu time spent up to now is    17969.9 secs

     total energy              =  -10530.50301735 Ry
     estimated scf accuracy    <       0.00003690 Ry

     total magnetization       =    -0.00 Bohr mag/cell
     absolute magnetization    =   113.73 Bohr mag/cell

     iteration # 50     ecut=    71.00 Ry     beta= 0.10
     Davidson diagonalization with overlap
     ethr =  7.21E-09,  avg # of iterations =  8.8

     negative rho (up, down):  6.139E-03 6.142E-03

     total cpu time spent up to now is    18515.4 secs

     total energy              =  -10530.50302840 Ry
     estimated scf accuracy    <       0.00006126 Ry

     total magnetization       =     0.00 Bohr mag/cell
     absolute magnetization    =   113.76 Bohr mag/cell

     iteration # 51     ecut=    71.00 Ry     beta= 0.10
     Davidson diagonalization with overlap
     ethr =  7.21E-09,  avg # of iterations =  1.1

     negative rho (up, down):  6.141E-03 6.144E-03

     total cpu time spent up to now is    18827.6 secs

     total energy              =  -10530.50302618 Ry
     estimated scf accuracy    <       0.00003095 Ry

     total magnetization       =     0.00 Bohr mag/cell
     absolute magnetization    =   113.76 Bohr mag/cell

     iteration # 52     ecut=    71.00 Ry     beta= 0.10
     Davidson diagonalization with overlap
     ethr =  6.04E-09,  avg # of iterations =  1.0

     negative rho (up, down):  6.143E-03 6.146E-03

     total cpu time spent up to now is    19136.5 secs

     total energy              =  -10530.50303144 Ry
     estimated scf accuracy    <       0.00002814 Ry

     total magnetization       =    -0.01 Bohr mag/cell
     absolute magnetization    =   113.76 Bohr mag/cell

     iteration # 53     ecut=    71.00 Ry     beta= 0.10
     Davidson diagonalization with overlap
     ethr =  5.50E-09,  avg # of iterations =  1.0

     negative rho (up, down):  6.145E-03 6.148E-03

     total cpu time spent up to now is    19439.1 secs

     total energy              =  -10530.50303410 Ry
     estimated scf accuracy    <       0.00002169 Ry

     total magnetization       =    -0.00 Bohr mag/cell
     absolute magnetization    =   113.76 Bohr mag/cell

     iteration # 54     ecut=    71.00 Ry     beta= 0.10
     Davidson diagonalization with overlap
     ethr =  4.24E-09,  avg # of iterations =  1.6

     negative rho (up, down):  6.152E-03 6.154E-03

     total cpu time spent up to now is    19760.7 secs

     total energy              =  -10530.50303719 Ry
     estimated scf accuracy    <       0.00004996 Ry

     total magnetization       =    -0.00 Bohr mag/cell
     absolute magnetization    =   113.76 Bohr mag/cell

     iteration # 55     ecut=    71.00 Ry     beta= 0.10
     Davidson diagonalization with overlap
     ethr =  4.24E-09,  avg # of iterations =  6.2

     negative rho (up, down):  6.154E-03 6.156E-03

     total cpu time spent up to now is    20145.4 secs

     total energy              =  -10530.50303886 Ry
     estimated scf accuracy    <       0.00004043 Ry

     total magnetization       =     0.00 Bohr mag/cell
     absolute magnetization    =   113.76 Bohr mag/cell

     iteration # 56     ecut=    71.00 Ry     beta= 0.10
     Davidson diagonalization with overlap
     ethr =  4.24E-09,  avg # of iterations =  3.5

     negative rho (up, down):  6.150E-03 6.151E-03

     total cpu time spent up to now is    20497.9 secs

     total energy              =  -10530.50304010 Ry
     estimated scf accuracy    <       0.00003268 Ry

     total magnetization       =     0.00 Bohr mag/cell
     absolute magnetization    =   113.76 Bohr mag/cell

     iteration # 57     ecut=    71.00 Ry     beta= 0.10
     Davidson diagonalization with overlap
     ethr =  4.24E-09,  avg # of iterations =  1.0

     negative rho (up, down):  6.150E-03 6.151E-03

     total cpu time spent up to now is    20800.8 secs

     total energy              =  -10530.50304070 Ry
     estimated scf accuracy    <       0.00001005 Ry

     total magnetization       =    -0.00 Bohr mag/cell
     absolute magnetization    =   113.76 Bohr mag/cell

     iteration # 58     ecut=    71.00 Ry     beta= 0.10
     Davidson diagonalization with overlap
     ethr =  1.96E-09,  avg # of iterations =  4.6

     negative rho (up, down):  6.151E-03 6.153E-03

     total cpu time spent up to now is    21162.3 secs

     total energy              =  -10530.50304110 Ry
     estimated scf accuracy    <       0.00002575 Ry

     total magnetization       =     0.00 Bohr mag/cell
     absolute magnetization    =   113.76 Bohr mag/cell

     iteration # 59     ecut=    71.00 Ry     beta= 0.10
     Davidson diagonalization with overlap
     ethr =  1.96E-09,  avg # of iterations =  2.6

     negative rho (up, down):  6.148E-03 6.150E-03

     total cpu time spent up to now is    21501.2 secs

     total energy              =  -10530.50304237 Ry
     estimated scf accuracy    <       0.00001551 Ry

     total magnetization       =    -0.00 Bohr mag/cell
     absolute magnetization    =   113.76 Bohr mag/cell

     iteration # 60     ecut=    71.00 Ry     beta= 0.10
     Davidson diagonalization with overlap
     ethr =  1.96E-09,  avg # of iterations =  2.3

     negative rho (up, down):  6.143E-03 6.144E-03

     total cpu time spent up to now is    21840.9 secs

     total energy              =  -10530.50304341 Ry
     estimated scf accuracy    <       0.00000960 Ry

     total magnetization       =    -0.01 Bohr mag/cell
     absolute magnetization    =   113.76 Bohr mag/cell

     iteration # 61     ecut=    71.00 Ry     beta= 0.10
     Davidson diagonalization with overlap
     ethr =  1.87E-09,  avg # of iterations =  5.9

     negative rho (up, down):  6.143E-03 6.144E-03

     total cpu time spent up to now is    22222.0 secs

     total energy              =  -10530.50304431 Ry
     estimated scf accuracy    <       0.00000212 Ry

     total magnetization       =     0.00 Bohr mag/cell
     absolute magnetization    =   113.76 Bohr mag/cell

     iteration # 62     ecut=    71.00 Ry     beta= 0.10
     Davidson diagonalization with overlap
     ethr =  4.15E-10,  avg # of iterations =  8.2

     negative rho (up, down):  6.143E-03 6.144E-03

     total cpu time spent up to now is    22647.5 secs

     total energy              =  -10530.50304472 Ry
     estimated scf accuracy    <       0.00000259 Ry

     total magnetization       =    -0.00 Bohr mag/cell
     absolute magnetization    =   113.76 Bohr mag/cell

     iteration # 63     ecut=    71.00 Ry     beta= 0.10
     Davidson diagonalization with overlap
     ethr =  4.15E-10,  avg # of iterations =  1.3

     negative rho (up, down):  6.141E-03 6.142E-03

     total cpu time spent up to now is    22966.1 secs

     total energy              =  -10530.50304539 Ry
     estimated scf accuracy    <       0.00000195 Ry

     total magnetization       =     0.00 Bohr mag/cell
     absolute magnetization    =   113.76 Bohr mag/cell

     iteration # 64     ecut=    71.00 Ry     beta= 0.10
     Davidson diagonalization with overlap
     ethr =  3.81E-10,  avg # of iterations =  2.8

     negative rho (up, down):  6.139E-03 6.140E-03

     total cpu time spent up to now is    23315.2 secs

     total energy              =  -10530.50304629 Ry
     estimated scf accuracy    <       0.00000306 Ry

     total magnetization       =     0.00 Bohr mag/cell
     absolute magnetization    =   113.76 Bohr mag/cell

     iteration # 65     ecut=    71.00 Ry     beta= 0.10
     Davidson diagonalization with overlap
     ethr =  3.81E-10,  avg # of iterations =  6.7

     negative rho (up, down):  6.139E-03 6.139E-03

     total cpu time spent up to now is    23732.4 secs

     total energy              =  -10530.50304673 Ry
     estimated scf accuracy    <       0.00000173 Ry

     total magnetization       =    -0.00 Bohr mag/cell
     absolute magnetization    =   113.75 Bohr mag/cell

     iteration # 66     ecut=    71.00 Ry     beta= 0.10
     Davidson diagonalization with overlap
     ethr =  3.38E-10,  avg # of iterations =  1.8

     negative rho (up, down):  6.139E-03 6.139E-03

     total cpu time spent up to now is    24053.5 secs

     total energy              =  -10530.50304680 Ry
     estimated scf accuracy    <       0.00000104 Ry

     total magnetization       =     0.00 Bohr mag/cell
     absolute magnetization    =   113.75 Bohr mag/cell

     iteration # 67     ecut=    71.00 Ry     beta= 0.10
     Davidson diagonalization with overlap
     ethr =  2.04E-10,  avg # of iterations =  3.6

     negative rho (up, down):  6.141E-03 6.141E-03
 
     Magnetic moment per site:
     atom:    1    charge:   15.0646    magn:    3.4857    constr:    0.0000
     atom:    2    charge:   15.0645    magn:   -3.4858    constr:    0.0000
     atom:    3    charge:   15.0645    magn:    3.4858    constr:    0.0000
     atom:    4    charge:   15.0645    magn:   -3.4858    constr:    0.0000
     atom:    5    charge:   15.0645    magn:    3.4858    constr:    0.0000
     atom:    6    charge:   15.0645    magn:   -3.4858    constr:    0.0000
     atom:    7    charge:   15.0645    magn:    3.4858    constr:    0.0000
     atom:    8    charge:   15.0645    magn:   -3.4858    constr:    0.0000
     atom:    9    charge:   15.0646    magn:    3.4857    constr:    0.0000
     atom:   10    charge:   15.0645    magn:   -3.4858    constr:    0.0000
     atom:   11    charge:   15.0644    magn:    3.4858    constr:    0.0000
     atom:   12    charge:   15.0645    magn:   -3.4858    constr:    0.0000
     atom:   13    charge:   15.0646    magn:    3.4858    constr:    0.0000
     atom:   14    charge:   15.0645    magn:   -3.4858    constr:    0.0000
     atom:   15    charge:   15.0644    magn:    3.4858    constr:    0.0000
     atom:   16    charge:   15.0645    magn:   -3.4858    constr:    0.0000
     atom:   17    charge:   15.0646    magn:    3.4858    constr:    0.0000
     atom:   18    charge:   15.0645    magn:   -3.4858    constr:    0.0000
     atom:   19    charge:   15.0645    magn:    3.4858    constr:    0.0000
     atom:   20    charge:   15.0645    magn:   -3.4857    constr:    0.0000
     atom:   21    charge:   15.0646    magn:    3.4857    constr:    0.0000
     atom:   22    charge:   15.0645    magn:   -3.4858    constr:    0.0000
     atom:   23    charge:   15.0645    magn:    3.4858    constr:    0.0000
     atom:   24    charge:   15.0645    magn:   -3.4857    constr:    0.0000
     atom:   25    charge:   15.0644    magn:    3.4858    constr:    0.0000
     atom:   26    charge:   15.0645    magn:   -3.4858    constr:    0.0000
     atom:   27    charge:   15.0644    magn:    3.4858    constr:    0.0000
     atom:   28    charge:   15.0645    magn:   -3.4857    constr:    0.0000
     atom:   29    charge:   15.0645    magn:    3.4857    constr:    0.0000
     atom:   30    charge:   15.0645    magn:   -3.4858    constr:    0.0000
     atom:   31    charge:   15.0644    magn:    3.4858    constr:    0.0000
     atom:   32    charge:   15.0645    magn:   -3.4857    constr:    0.0000

     total cpu time spent up to now is    24406.2 secs

     End of self-consistent calculation

     Number of k-points >= 100: set verbosity='high' to print the bands.

     the Fermi energy is     5.5207 ev

!    total energy              =  -10530.50304767 Ry

     total all-electron energy =    -81451.992106 Ry
     estimated scf accuracy    <       0.00000081 Ry
     smearing contrib. (-TS)   =      -0.35449559 Ry
     internal energy E=F+TS    =  -10530.14855207 Ry

     The total energy is F=E-TS. E is the sum of the following terms:
     one-electron contribution =   -5997.37105585 Ry
     hartree contribution      =    3070.90289657 Ry
     xc contribution           =    -880.69300722 Ry
     ewald contribution        =   -4074.19130946 Ry
     one-center paw contrib.   =   -2648.79607611 Ry

     total magnetization       =    -0.00 Bohr mag/cell
     absolute magnetization    =   113.75 Bohr mag/cell

     convergence has been achieved in  67 iterations

     negative rho (up, down):  6.141E-03 6.141E-03

     Forces acting on atoms (cartesian axes, Ry/au):

     atom    1 type  1   force =     0.00000000    0.00000000    0.00000000
     atom    2 type  2   force =    -0.00001241   -0.00001535   -0.00000000
     atom    3 type  3   force =     0.00001824    0.00000000    0.00005069
     atom    4 type  4   force =     0.00000000    0.00000914   -0.00000301
     atom    5 type  1   force =     0.00000000    0.00000000    0.00000000
     atom    6 type  2   force =     0.00001446   -0.00002352    0.00000000
     atom    7 type  3   force =     0.00001824    0.00000000   -0.00005069
     atom    8 type  4   force =     0.00000000    0.00000914    0.00000301
     atom    9 type  1   force =     0.00000000    0.00000000    0.00000000
     atom   10 type  2   force =    -0.00001241    0.00001535    0.00000000
     atom   11 type  3   force =    -0.00006550   -0.00000000    0.00000072
     atom   12 type  4   force =     0.00000000   -0.00000914   -0.00000301
     atom   13 type  1   force =     0.00000000    0.00000000    0.00000000
     atom   14 type  2   force =     0.00001446    0.00002352    0.00000000
     atom   15 type  3   force =    -0.00006550    0.00000000   -0.00000072
     atom   16 type  4   force =     0.00000000   -0.00000914    0.00000301
     atom   17 type  1   force =     0.00000000    0.00000000    0.00000000
     atom   18 type  2   force =     0.00001241   -0.00001535    0.00000000
     atom   19 type  3   force =    -0.00001824    0.00000000    0.00005069
     atom   20 type  4   force =     0.00000000    0.00005737   -0.00009726
     atom   21 type  1   force =     0.00000000    0.00000000    0.00000000
     atom   22 type  2   force =    -0.00001446   -0.00002352    0.00000000
     atom   23 type  3   force =    -0.00001824    0.00000000   -0.00005069
     atom   24 type  4   force =     0.00000000    0.00005737    0.00009726
     atom   25 type  1   force =     0.00000000    0.00000000    0.00000000
     atom   26 type  2   force =     0.00001241    0.00001535   -0.00000000
     atom   27 type  3   force =     0.00006550    0.00000000    0.00000072
     atom   28 type  4   force =     0.00000000   -0.00005737   -0.00009726
     atom   29 type  1   force =     0.00000000    0.00000000    0.00000000
     atom   30 type  2   force =    -0.00001446    0.00002352   -0.00000000
     atom   31 type  3   force =     0.00006550    0.00000000   -0.00000072
     atom   32 type  4   force =    -0.00000000   -0.00005737    0.00009726

     Total force =     0.000291     Total SCF correction =     0.000933
     SCF correction compared to forces is large: reduce conv_thr to get better values


     Computing stress (Cartesian axis) and pressure


     negative rho (up, down):  6.141E-03 6.141E-03
          total   stress  (Ry/bohr**3)                   (kbar)     P=     -184.97
  -0.00128802   0.00000000   0.00000000         -189.47        0.00        0.00
   0.00000000  -0.00119603   0.00000000            0.00     -175.94        0.00
   0.00000000   0.00000000  -0.00128809            0.00        0.00     -189.48


     Writing output data file /scratch/bxp912/fecohfcc140.save/
 
     init_run     :    144.12s CPU    146.26s WALL (       1 calls)
     electrons    :  23829.24s CPU  24256.41s WALL (       1 calls)
     forces       :     58.74s CPU     59.23s WALL (       1 calls)
     stress       :    564.64s CPU    568.28s WALL (       1 calls)

     Called by init_run:
     wfcinit      :    141.27s CPU    143.28s WALL (       1 calls)
     potinit      :      1.13s CPU      1.17s WALL (       1 calls)
     hinit0       :      0.59s CPU      0.60s WALL (       1 calls)

     Called by electrons:
     c_bands      :  20848.72s CPU  21231.53s WALL (      67 calls)
     sum_band     :   2948.66s CPU   2990.06s WALL (      67 calls)
     v_of_rho     :      3.73s CPU      3.90s WALL (      68 calls)
     newd         :     13.36s CPU     15.33s WALL (      68 calls)
     PAW_pot      :     12.68s CPU     13.31s WALL (      68 calls)
     mix_rho      :      1.22s CPU      1.38s WALL (      67 calls)

     Called by c_bands:
     init_us_2    :    139.29s CPU    140.79s WALL (   34250 calls)
     cegterg      :  20298.30s CPU  20526.57s WALL (   16750 calls)

     Called by *egterg:
     cdiaghg      :   1673.97s CPU   1687.19s WALL (   72480 calls)
     h_psi        :  10816.62s CPU  10955.14s WALL (   72730 calls)
     s_psi        :   1109.95s CPU   1118.33s WALL (   72730 calls)
     g_psi        :     30.40s CPU     30.91s WALL (   55730 calls)

     Called by h_psi:
     h_psi:calbec :   1740.51s CPU   1754.80s WALL (   72730 calls)
     vloc_psi     :   7834.75s CPU   7947.93s WALL (   72730 calls)
     add_vuspsi   :   1166.76s CPU   1176.63s WALL (   72730 calls)

     General routines
     calbec       :   2575.02s CPU   2596.45s WALL (   90730 calls)
     fft          :      3.68s CPU      3.76s WALL (    1738 calls)
     ffts         :      0.91s CPU      0.94s WALL (     270 calls)
     fftw         :   9419.98s CPU   9557.16s WALL (26415572 calls)
     interpolate  :      1.08s CPU      1.10s WALL (     136 calls)
 
     Parallel routines
     fft_scatt_xy :    748.70s CPU    758.38s WALL (26417580 calls)
     fft_scatt_yz :   7039.65s CPU   7148.58s WALL (26417580 calls)
 
     PWSCF        :      6h51m CPU      6h58m WALL

 
   This run was terminated on:   3:10: 4   4Dec2021            

=------------------------------------------------------------------------------=
   JOB DONE.
=------------------------------------------------------------------------------=
