
     Program PWSCF v.6.7MaX starts on  3Dec2021 at  8:50:16 

     This program is part of the open-source Quantum ESPRESSO suite
     for quantum simulation of materials; please cite
         "P. Giannozzi et al., J. Phys.:Condens. Matter 21 395502 (2009);
         "P. Giannozzi et al., J. Phys.:Condens. Matter 29 465901 (2017);
          URL http://www.quantum-espresso.org", 
     in publications or presentations arising from this work. More details at
     http://www.quantum-espresso.org/quote

     Parallel version (MPI & OpenMP), running on      72 processor cores
     Number of MPI processes:                72
     Threads/MPI process:                     1

     MPI processes distributed on     1 nodes
     R & G space division:  proc/nbgrp/npool/nimage =      72
     Reading input from fcc_132.in
Warning: card &CELL ignored
Warning: card CELL_DYNAMICS = 'BFGS', ignored
Warning: card CELL_FACTOR = 2.0, ignored
Warning: card PRESS = 0.0, ignored
Warning: card / ignored

     Current dimensions of program PWSCF are:
     Max number of different atomic species (ntypx) = 10
     Max number of k-points (npk) =  40000
     Max angular momentum in pseudopotentials (lmaxx) =  3
     file Fe.pbe-spn-kjpaw_psl.1.0.0.UPF: wavefunction(s)  3P 3D renormalized
     file Fe.pbe-spn-kjpaw_psl.1.0.0.UPF: wavefunction(s)  3P 3D renormalized
     file Fe.pbe-spn-kjpaw_psl.1.0.0.UPF: wavefunction(s)  3P 3D renormalized
     file Fe.pbe-spn-kjpaw_psl.1.0.0.UPF: wavefunction(s)  3P 3D renormalized

     Subspace diagonalization in iterative solution of the eigenvalue problem:
     one sub-group per band group will be used
     ELPA distributed-memory algorithm (size of sub-group:  8*  8 procs)

     Found symmetry operation: I + (  0.0000  0.0000  0.5000)
     This is a supercell, fractional translations are disabled
     Message from routine setup:
     using ibrav=0 with symmetry is DISCOURAGED, use correct ibrav instead
 
     Parallelization info
     --------------------
     sticks:   dense  smooth     PW     G-vecs:    dense   smooth      PW
     Min         146      96     25                10982     5894     817
     Max         147      97     26                10987     5901     824
     Sum       10519    6951   1869               790835   424541   59143
 


     bravais-lattice index     =            0
     lattice parameter (alat)  =      12.9382  a.u.
     unit-cell volume          =    5252.6234 (a.u.)^3
     number of atoms/cell      =           32
     number of atomic types    =            4
     number of electrons       =       512.00
     number of Kohn-Sham states=          307
     kinetic-energy cutoff     =      71.0000  Ry
     charge density cutoff     =     430.0000  Ry
     scf convergence threshold =      1.0E-06
     mixing beta               =       0.1000
     number of iterations used =           10  plain     mixing
     Exchange-correlation= SLA  PW   PBX  PBC
                           (   1   4   3   4   0   0   0)

     celldm(1)=  12.938187  celldm(2)=   0.000000  celldm(3)=   0.000000
     celldm(4)=   0.000000  celldm(5)=   0.000000  celldm(6)=   0.000000

     crystal axes: (cart. coord. in units of alat)
               a(1) = (   1.320000   0.000000   0.000000 )  
               a(2) = (   0.000000   1.391900   0.000000 )  
               a(3) = (   0.000000   0.000000   1.320000 )  

     reciprocal axes: (cart. coord. in units 2 pi/alat)
               b(1) = (  0.757576  0.000000  0.000000 )  
               b(2) = (  0.000000  0.718442  0.000000 )  
               b(3) = (  0.000000  0.000000  0.757576 )  


     PseudoPot. # 1 for Fe read from file:
     /rds/homes/b/bxp912/pp/Fe.pbe-spn-kjpaw_psl.1.0.0.UPF
     MD5 check sum: 42f43b795421b414b0dc916aa790dbcb
     Pseudo is Projector augmented-wave + core cor, Zval = 16.0
     Generated using &quot;atomic&quot; code by A. Dal Corso  v.6.3
     Shape of augmentation charge: PSQ
     Using radial grid of 1191 points,  6 beta functions with: 
                l(1) =   0
                l(2) =   0
                l(3) =   1
                l(4) =   1
                l(5) =   2
                l(6) =   2
     Q(r) pseudized with 0 coefficients 


     PseudoPot. # 2 for Fe read from file:
     /rds/homes/b/bxp912/pp/Fe.pbe-spn-kjpaw_psl.1.0.0.UPF
     MD5 check sum: 42f43b795421b414b0dc916aa790dbcb
     Pseudo is Projector augmented-wave + core cor, Zval = 16.0
     Generated using &quot;atomic&quot; code by A. Dal Corso  v.6.3
     Shape of augmentation charge: PSQ
     Using radial grid of 1191 points,  6 beta functions with: 
                l(1) =   0
                l(2) =   0
                l(3) =   1
                l(4) =   1
                l(5) =   2
                l(6) =   2
     Q(r) pseudized with 0 coefficients 


     PseudoPot. # 3 for Fe read from file:
     /rds/homes/b/bxp912/pp/Fe.pbe-spn-kjpaw_psl.1.0.0.UPF
     MD5 check sum: 42f43b795421b414b0dc916aa790dbcb
     Pseudo is Projector augmented-wave + core cor, Zval = 16.0
     Generated using &quot;atomic&quot; code by A. Dal Corso  v.6.3
     Shape of augmentation charge: PSQ
     Using radial grid of 1191 points,  6 beta functions with: 
                l(1) =   0
                l(2) =   0
                l(3) =   1
                l(4) =   1
                l(5) =   2
                l(6) =   2
     Q(r) pseudized with 0 coefficients 


     PseudoPot. # 4 for Fe read from file:
     /rds/homes/b/bxp912/pp/Fe.pbe-spn-kjpaw_psl.1.0.0.UPF
     MD5 check sum: 42f43b795421b414b0dc916aa790dbcb
     Pseudo is Projector augmented-wave + core cor, Zval = 16.0
     Generated using &quot;atomic&quot; code by A. Dal Corso  v.6.3
     Shape of augmentation charge: PSQ
     Using radial grid of 1191 points,  6 beta functions with: 
                l(1) =   0
                l(2) =   0
                l(3) =   1
                l(4) =   1
                l(5) =   2
                l(6) =   2
     Q(r) pseudized with 0 coefficients 


     atomic species   valence    mass     pseudopotential
        Fe1           16.00    55.84500     Fe( 1.00)
        Fe2           16.00    55.84500     Fe( 1.00)
        Fe3           16.00    55.84500     Fe( 1.00)
        Fe4           16.00    55.84500     Fe( 1.00)

     Starting magnetic structure 
     atomic species   magnetization
        Fe1          0.100
        Fe2         -0.100
        Fe3          0.100
        Fe4         -0.100

      8 Sym. Ops., with inversion, found



   Cartesian axes

     site n.     atom                  positions (alat units)
         1           Fe1 tau(   1) = (   0.0000000   0.0000000   0.0000000  )
         2           Fe2 tau(   2) = (   0.3300000   0.3479751   0.0000000  )
         3           Fe3 tau(   3) = (   0.3300000   0.0000000   0.3300000  )
         4           Fe4 tau(   4) = (   0.0000000   0.3479751   0.3300000  )
         5           Fe1 tau(   5) = (   0.0000000   0.0000000   0.6600000  )
         6           Fe2 tau(   6) = (   0.3300000   0.3479751   0.6600000  )
         7           Fe3 tau(   7) = (   0.3300000   0.0000000   0.9900000  )
         8           Fe4 tau(   8) = (   0.0000000   0.3479751   0.9900000  )
         9           Fe1 tau(   9) = (   0.0000000   0.6959502   0.0000000  )
        10           Fe2 tau(  10) = (   0.3300000   1.0439253   0.0000000  )
        11           Fe3 tau(  11) = (   0.3300000   0.6959502   0.3300000  )
        12           Fe4 tau(  12) = (   0.0000000   1.0439253   0.3300000  )
        13           Fe1 tau(  13) = (   0.0000000   0.6959502   0.6600000  )
        14           Fe2 tau(  14) = (   0.3300000   1.0439253   0.6600000  )
        15           Fe3 tau(  15) = (   0.3300000   0.6959502   0.9900000  )
        16           Fe4 tau(  16) = (   0.0000000   1.0439253   0.9900000  )
        17           Fe1 tau(  17) = (   0.6600000   0.0000000   0.0000000  )
        18           Fe2 tau(  18) = (   0.9900000   0.3479751   0.0000000  )
        19           Fe3 tau(  19) = (   0.9900000   0.0000000   0.3300000  )
        20           Fe4 tau(  20) = (   0.6600000   0.3479751   0.3300000  )
        21           Fe1 tau(  21) = (   0.6600000   0.0000000   0.6600000  )
        22           Fe2 tau(  22) = (   0.9900000   0.3479751   0.6600000  )
        23           Fe3 tau(  23) = (   0.9900000   0.0000000   0.9900000  )
        24           Fe4 tau(  24) = (   0.6600000   0.3479751   0.9900000  )
        25           Fe1 tau(  25) = (   0.6600000   0.6959502   0.0000000  )
        26           Fe2 tau(  26) = (   0.9900000   1.0439253   0.0000000  )
        27           Fe3 tau(  27) = (   0.9900000   0.6959502   0.3300000  )
        28           Fe4 tau(  28) = (   0.6600000   1.0439253   0.3300000  )
        29           Fe1 tau(  29) = (   0.6600000   0.6959502   0.6600000  )
        30           Fe2 tau(  30) = (   0.9900000   1.0439253   0.6600000  )
        31           Fe3 tau(  31) = (   0.9900000   0.6959502   0.9900000  )
        32           Fe4 tau(  32) = (   0.6600000   1.0439253   0.9900000  )

     number of k points=   125  Marzari-Vanderbilt smearing, width (Ry)=  0.0400

     Number of k-points >= 100: set verbosity='high' to print them.

     Dense  grid:   790835 G-vectors     FFT dimensions: ( 120, 120, 120)

     Smooth grid:   424541 G-vectors     FFT dimensions: (  96, 100,  96)

     Estimated max dynamical RAM per process >     928.09 MB

     Estimated total dynamical RAM >      65.26 GB

     Check: negative core charge=   -0.000004
     Generating pointlists ...
     new r_m :   0.1925 (alat units)  2.4907 (a.u.) for type    1
     new r_m :   0.1925 (alat units)  2.4907 (a.u.) for type    2
     new r_m :   0.1925 (alat units)  2.4907 (a.u.) for type    3
     new r_m :   0.1925 (alat units)  2.4907 (a.u.) for type    4

     Initial potential from superposition of free atoms

     starting charge  511.98600, renormalised to  512.00000
     Starting wfcs are  320 randomized atomic wfcs
     Checking if some PAW data can be deallocated... 

     total cpu time spent up to now is      113.3 secs

     Self-consistent Calculation

     iteration #  1     ecut=    71.00 Ry     beta= 0.10
     Davidson diagonalization with overlap
     ethr =  1.00E-02,  avg # of iterations =  4.2

     total cpu time spent up to now is      467.1 secs

     total energy              =  -10529.79346565 Ry
     estimated scf accuracy    <       7.01093045 Ry

     total magnetization       =     0.33 Bohr mag/cell
     absolute magnetization    =    87.41 Bohr mag/cell

     iteration #  2     ecut=    71.00 Ry     beta= 0.10
     Davidson diagonalization with overlap
     ethr =  1.37E-03,  avg # of iterations =  4.0

     total cpu time spent up to now is      839.7 secs

     total energy              =  -10530.09981434 Ry
     estimated scf accuracy    <       6.25621193 Ry

     total magnetization       =    -1.32 Bohr mag/cell
     absolute magnetization    =    89.79 Bohr mag/cell

     iteration #  3     ecut=    71.00 Ry     beta= 0.10
     Davidson diagonalization with overlap
     ethr =  1.22E-03,  avg # of iterations =  2.0

     total cpu time spent up to now is     1140.8 secs

     total energy              =  -10530.16310254 Ry
     estimated scf accuracy    <      31.26310053 Ry

     total magnetization       =     1.11 Bohr mag/cell
     absolute magnetization    =    90.47 Bohr mag/cell

     iteration #  4     ecut=    71.00 Ry     beta= 0.10
     Davidson diagonalization with overlap
     ethr =  1.22E-03,  avg # of iterations =  2.0

     total cpu time spent up to now is     1441.8 secs

     total energy              =  -10530.63036877 Ry
     estimated scf accuracy    <       8.63019316 Ry

     total magnetization       =     1.05 Bohr mag/cell
     absolute magnetization    =    92.25 Bohr mag/cell

     iteration #  5     ecut=    71.00 Ry     beta= 0.10
     Davidson diagonalization with overlap
     ethr =  1.22E-03,  avg # of iterations =  1.3

     total cpu time spent up to now is     1713.3 secs

     total energy              =  -10530.78213004 Ry
     estimated scf accuracy    <       1.51029055 Ry

     total magnetization       =     1.77 Bohr mag/cell
     absolute magnetization    =    93.31 Bohr mag/cell

     iteration #  6     ecut=    71.00 Ry     beta= 0.10
     Davidson diagonalization with overlap
     ethr =  2.95E-04,  avg # of iterations =  4.6

     total cpu time spent up to now is     2047.3 secs

     total energy              =  -10530.84561213 Ry
     estimated scf accuracy    <       1.14757197 Ry

     total magnetization       =     0.19 Bohr mag/cell
     absolute magnetization    =    94.15 Bohr mag/cell

     iteration #  7     ecut=    71.00 Ry     beta= 0.10
     Davidson diagonalization with overlap
     ethr =  2.24E-04,  avg # of iterations =  1.5

     total cpu time spent up to now is     2326.2 secs

     total energy              =  -10531.04515296 Ry
     estimated scf accuracy    <       1.04418381 Ry

     total magnetization       =    -1.17 Bohr mag/cell
     absolute magnetization    =    94.64 Bohr mag/cell

     iteration #  8     ecut=    71.00 Ry     beta= 0.10
     Davidson diagonalization with overlap
     ethr =  2.04E-04,  avg # of iterations =  2.0

     negative rho (up, down):  1.976E-04 1.046E-04

     total cpu time spent up to now is     2622.4 secs

     total energy              =  -10531.39859053 Ry
     estimated scf accuracy    <       1.15764491 Ry

     total magnetization       =    -1.55 Bohr mag/cell
     absolute magnetization    =    96.65 Bohr mag/cell

     iteration #  9     ecut=    71.00 Ry     beta= 0.10
     Davidson diagonalization with overlap
     ethr =  2.04E-04,  avg # of iterations =  2.3

     negative rho (up, down):  4.399E-03 4.291E-03

     total cpu time spent up to now is     2935.9 secs

     total energy              =  -10531.55660048 Ry
     estimated scf accuracy    <       3.10387690 Ry

     total magnetization       =     4.64 Bohr mag/cell
     absolute magnetization    =   100.45 Bohr mag/cell

     iteration # 10     ecut=    71.00 Ry     beta= 0.10
     Davidson diagonalization with overlap
     ethr =  2.04E-04,  avg # of iterations =  6.5

     negative rho (up, down):  4.817E-03 4.726E-03

     total cpu time spent up to now is     3297.4 secs

     total energy              =  -10531.74923970 Ry
     estimated scf accuracy    <       1.20551781 Ry

     total magnetization       =     3.12 Bohr mag/cell
     absolute magnetization    =   106.85 Bohr mag/cell

     iteration # 11     ecut=    71.00 Ry     beta= 0.10
     Davidson diagonalization with overlap
     ethr =  2.04E-04,  avg # of iterations =  1.3

     negative rho (up, down):  5.143E-03 5.065E-03

     total cpu time spent up to now is     3570.8 secs

     total energy              =  -10531.77192236 Ry
     estimated scf accuracy    <       0.62324628 Ry

     total magnetization       =     1.75 Bohr mag/cell
     absolute magnetization    =   107.66 Bohr mag/cell

     iteration # 12     ecut=    71.00 Ry     beta= 0.10
     Davidson diagonalization with overlap
     ethr =  1.22E-04,  avg # of iterations =  2.4

     negative rho (up, down):  6.329E-03 6.275E-03

     total cpu time spent up to now is     3869.1 secs

     total energy              =  -10531.79417254 Ry
     estimated scf accuracy    <       0.45481450 Ry

     total magnetization       =     0.78 Bohr mag/cell
     absolute magnetization    =   108.47 Bohr mag/cell

     iteration # 13     ecut=    71.00 Ry     beta= 0.10
     Davidson diagonalization with overlap
     ethr =  8.88E-05,  avg # of iterations =  6.4

     negative rho (up, down):  6.327E-03 6.258E-03

     total cpu time spent up to now is     4274.4 secs

     total energy              =  -10531.77513861 Ry
     estimated scf accuracy    <       0.39309900 Ry

     total magnetization       =    -0.93 Bohr mag/cell
     absolute magnetization    =   112.30 Bohr mag/cell

     iteration # 14     ecut=    71.00 Ry     beta= 0.10
     Davidson diagonalization with overlap
     ethr =  7.68E-05,  avg # of iterations =  2.1

     negative rho (up, down):  6.582E-03 6.518E-03

     total cpu time spent up to now is     4580.2 secs

     total energy              =  -10531.80317767 Ry
     estimated scf accuracy    <       0.15186361 Ry

     total magnetization       =     0.46 Bohr mag/cell
     absolute magnetization    =   111.53 Bohr mag/cell

     iteration # 15     ecut=    71.00 Ry     beta= 0.10
     Davidson diagonalization with overlap
     ethr =  2.97E-05,  avg # of iterations =  5.0

     negative rho (up, down):  6.461E-03 6.404E-03

     total cpu time spent up to now is     4909.6 secs

     total energy              =  -10531.79883279 Ry
     estimated scf accuracy    <       0.06751262 Ry

     total magnetization       =    -0.03 Bohr mag/cell
     absolute magnetization    =   111.31 Bohr mag/cell

     iteration # 16     ecut=    71.00 Ry     beta= 0.10
     Davidson diagonalization with overlap
     ethr =  1.32E-05,  avg # of iterations =  6.1

     negative rho (up, down):  6.240E-03 6.187E-03

     total cpu time spent up to now is     5273.9 secs

     total energy              =  -10531.79312095 Ry
     estimated scf accuracy    <       0.18937908 Ry

     total magnetization       =    -0.06 Bohr mag/cell
     absolute magnetization    =   110.67 Bohr mag/cell

     iteration # 17     ecut=    71.00 Ry     beta= 0.10
     Davidson diagonalization with overlap
     ethr =  1.32E-05,  avg # of iterations =  5.7

     negative rho (up, down):  6.464E-03 6.410E-03

     total cpu time spent up to now is     5651.8 secs

     total energy              =  -10531.79073044 Ry
     estimated scf accuracy    <       0.21030589 Ry

     total magnetization       =     0.71 Bohr mag/cell
     absolute magnetization    =   110.33 Bohr mag/cell

     iteration # 18     ecut=    71.00 Ry     beta= 0.10
     Davidson diagonalization with overlap
     ethr =  1.32E-05,  avg # of iterations =  3.4

     negative rho (up, down):  6.343E-03 6.305E-03

     total cpu time spent up to now is     5968.6 secs

     total energy              =  -10531.78906825 Ry
     estimated scf accuracy    <       0.08434262 Ry

     total magnetization       =     0.04 Bohr mag/cell
     absolute magnetization    =   110.73 Bohr mag/cell

     iteration # 19     ecut=    71.00 Ry     beta= 0.10
     Davidson diagonalization with overlap
     ethr =  1.32E-05,  avg # of iterations =  3.7

     negative rho (up, down):  5.626E-03 5.595E-03

     total cpu time spent up to now is     6288.9 secs

     total energy              =  -10531.78614215 Ry
     estimated scf accuracy    <       0.05726822 Ry

     total magnetization       =    -0.58 Bohr mag/cell
     absolute magnetization    =   111.14 Bohr mag/cell

     iteration # 20     ecut=    71.00 Ry     beta= 0.10
     Davidson diagonalization with overlap
     ethr =  1.12E-05,  avg # of iterations =  3.0

     negative rho (up, down):  5.575E-03 5.548E-03

     total cpu time spent up to now is     6611.1 secs

     total energy              =  -10531.78711993 Ry
     estimated scf accuracy    <       0.03065403 Ry

     total magnetization       =    -0.24 Bohr mag/cell
     absolute magnetization    =   111.14 Bohr mag/cell

     iteration # 21     ecut=    71.00 Ry     beta= 0.10
     Davidson diagonalization with overlap
     ethr =  5.99E-06,  avg # of iterations =  1.2

     negative rho (up, down):  5.601E-03 5.576E-03

     total cpu time spent up to now is     6881.1 secs

     total energy              =  -10531.78577195 Ry
     estimated scf accuracy    <       0.01775196 Ry

     total magnetization       =    -0.16 Bohr mag/cell
     absolute magnetization    =   111.04 Bohr mag/cell

     iteration # 22     ecut=    71.00 Ry     beta= 0.10
     Davidson diagonalization with overlap
     c_bands:  1 eigenvalues not converged
     ethr =  3.47E-06,  avg # of iterations =  3.0

     negative rho (up, down):  5.662E-03 5.644E-03

     total cpu time spent up to now is     7197.9 secs

     total energy              =  -10531.78699963 Ry
     estimated scf accuracy    <       0.00363862 Ry

     total magnetization       =     0.11 Bohr mag/cell
     absolute magnetization    =   110.99 Bohr mag/cell

     iteration # 23     ecut=    71.00 Ry     beta= 0.10
     Davidson diagonalization with overlap
     c_bands:  1 eigenvalues not converged
     c_bands:  1 eigenvalues not converged
     c_bands:  2 eigenvalues not converged
     c_bands:  1 eigenvalues not converged
     c_bands:  1 eigenvalues not converged
     ethr =  7.11E-07,  avg # of iterations =  6.9

     negative rho (up, down):  5.674E-03 5.655E-03

     total cpu time spent up to now is     7704.5 secs

     total energy              =  -10531.78734864 Ry
     estimated scf accuracy    <       0.01053717 Ry

     total magnetization       =     0.07 Bohr mag/cell
     absolute magnetization    =   110.77 Bohr mag/cell

     iteration # 24     ecut=    71.00 Ry     beta= 0.10
     Davidson diagonalization with overlap
     ethr =  7.11E-07,  avg # of iterations =  5.7

     negative rho (up, down):  5.608E-03 5.590E-03

     total cpu time spent up to now is     8123.7 secs

     total energy              =  -10531.78751904 Ry
     estimated scf accuracy    <       0.00535109 Ry

     total magnetization       =     0.10 Bohr mag/cell
     absolute magnetization    =   111.00 Bohr mag/cell

     iteration # 25     ecut=    71.00 Ry     beta= 0.10
     Davidson diagonalization with overlap
     ethr =  7.11E-07,  avg # of iterations =  2.0

     negative rho (up, down):  5.589E-03 5.574E-03

     total cpu time spent up to now is     8419.7 secs

     total energy              =  -10531.78804314 Ry
     estimated scf accuracy    <       0.00346124 Ry

     total magnetization       =    -0.02 Bohr mag/cell
     absolute magnetization    =   110.96 Bohr mag/cell

     iteration # 26     ecut=    71.00 Ry     beta= 0.10
     Davidson diagonalization with overlap
     ethr =  6.76E-07,  avg # of iterations =  1.0

     negative rho (up, down):  5.579E-03 5.563E-03

     total cpu time spent up to now is     8692.8 secs

     total energy              =  -10531.78829927 Ry
     estimated scf accuracy    <       0.00197959 Ry

     total magnetization       =    -0.06 Bohr mag/cell
     absolute magnetization    =   110.96 Bohr mag/cell

     iteration # 27     ecut=    71.00 Ry     beta= 0.10
     Davidson diagonalization with overlap
     ethr =  3.87E-07,  avg # of iterations =  1.8

     negative rho (up, down):  5.546E-03 5.541E-03

     total cpu time spent up to now is     8981.1 secs

     total energy              =  -10531.78915876 Ry
     estimated scf accuracy    <       0.00208391 Ry

     total magnetization       =     0.06 Bohr mag/cell
     absolute magnetization    =   110.99 Bohr mag/cell

     iteration # 28     ecut=    71.00 Ry     beta= 0.10
     Davidson diagonalization with overlap
     c_bands:  1 eigenvalues not converged
     ethr =  3.87E-07,  avg # of iterations =  6.1

     negative rho (up, down):  5.530E-03 5.529E-03

     total cpu time spent up to now is     9335.5 secs

     total energy              =  -10531.78966889 Ry
     estimated scf accuracy    <       0.00547751 Ry

     total magnetization       =     0.00 Bohr mag/cell
     absolute magnetization    =   111.09 Bohr mag/cell

     iteration # 29     ecut=    71.00 Ry     beta= 0.10
     Davidson diagonalization with overlap
     ethr =  3.87E-07,  avg # of iterations =  2.1

     negative rho (up, down):  5.533E-03 5.528E-03

     total cpu time spent up to now is     9632.8 secs

     total energy              =  -10531.78947905 Ry
     estimated scf accuracy    <       0.00095692 Ry

     total magnetization       =    -0.00 Bohr mag/cell
     absolute magnetization    =   111.13 Bohr mag/cell

     iteration # 30     ecut=    71.00 Ry     beta= 0.10
     Davidson diagonalization with overlap
     ethr =  1.87E-07,  avg # of iterations =  2.5

     negative rho (up, down):  5.532E-03 5.531E-03

     total cpu time spent up to now is     9942.7 secs

     total energy              =  -10531.78972695 Ry
     estimated scf accuracy    <       0.00424153 Ry

     total magnetization       =    -0.04 Bohr mag/cell
     absolute magnetization    =   111.10 Bohr mag/cell

     iteration # 31     ecut=    71.00 Ry     beta= 0.10
     Davidson diagonalization with overlap
     ethr =  1.87E-07,  avg # of iterations =  2.7

     negative rho (up, down):  5.533E-03 5.532E-03

     total cpu time spent up to now is    10292.0 secs

     total energy              =  -10531.78988205 Ry
     estimated scf accuracy    <       0.00049280 Ry

     total magnetization       =    -0.05 Bohr mag/cell
     absolute magnetization    =   111.12 Bohr mag/cell

     iteration # 32     ecut=    71.00 Ry     beta= 0.10
     Davidson diagonalization with overlap
     c_bands:  1 eigenvalues not converged
     ethr =  9.63E-08,  avg # of iterations =  4.6

     negative rho (up, down):  5.523E-03 5.523E-03

     total cpu time spent up to now is    10609.7 secs

     total energy              =  -10531.78994038 Ry
     estimated scf accuracy    <       0.00038816 Ry

     total magnetization       =     0.00 Bohr mag/cell
     absolute magnetization    =   111.12 Bohr mag/cell

     iteration # 33     ecut=    71.00 Ry     beta= 0.10
     Davidson diagonalization with overlap
     ethr =  7.58E-08,  avg # of iterations =  3.6

     negative rho (up, down):  5.495E-03 5.494E-03

     total cpu time spent up to now is    10918.6 secs

     total energy              =  -10531.79004046 Ry
     estimated scf accuracy    <       0.00061972 Ry

     total magnetization       =     0.01 Bohr mag/cell
     absolute magnetization    =   111.11 Bohr mag/cell

     iteration # 34     ecut=    71.00 Ry     beta= 0.10
     Davidson diagonalization with overlap
     ethr =  7.58E-08,  avg # of iterations =  5.3

     negative rho (up, down):  5.504E-03 5.506E-03

     total cpu time spent up to now is    11255.6 secs

     total energy              =  -10531.79004011 Ry
     estimated scf accuracy    <       0.00044394 Ry

     total magnetization       =     0.09 Bohr mag/cell
     absolute magnetization    =   111.07 Bohr mag/cell

     iteration # 35     ecut=    71.00 Ry     beta= 0.10
     Davidson diagonalization with overlap
     ethr =  7.58E-08,  avg # of iterations =  1.7

     negative rho (up, down):  5.459E-03 5.460E-03

     total cpu time spent up to now is    11537.4 secs

     total energy              =  -10531.79009869 Ry
     estimated scf accuracy    <       0.00024272 Ry

     total magnetization       =    -0.04 Bohr mag/cell
     absolute magnetization    =   111.09 Bohr mag/cell

     iteration # 36     ecut=    71.00 Ry     beta= 0.10
     Davidson diagonalization with overlap
     c_bands:  1 eigenvalues not converged
     ethr =  4.74E-08,  avg # of iterations =  5.3

     negative rho (up, down):  5.461E-03 5.462E-03

     total cpu time spent up to now is    11895.0 secs

     total energy              =  -10531.79013323 Ry
     estimated scf accuracy    <       0.00008539 Ry

     total magnetization       =    -0.03 Bohr mag/cell
     absolute magnetization    =   111.06 Bohr mag/cell

     iteration # 37     ecut=    71.00 Ry     beta= 0.10
     Davidson diagonalization with overlap
     c_bands:  1 eigenvalues not converged
     c_bands:  1 eigenvalues not converged
     ethr =  1.67E-08,  avg # of iterations =  6.7

     negative rho (up, down):  5.461E-03 5.462E-03

     total cpu time spent up to now is    12235.4 secs

     total energy              =  -10531.79013509 Ry
     estimated scf accuracy    <       0.00012999 Ry

     total magnetization       =    -0.02 Bohr mag/cell
     absolute magnetization    =   111.06 Bohr mag/cell

     iteration # 38     ecut=    71.00 Ry     beta= 0.10
     Davidson diagonalization with overlap
     ethr =  1.67E-08,  avg # of iterations =  1.3

     negative rho (up, down):  5.466E-03 5.466E-03

     total cpu time spent up to now is    12500.7 secs

     total energy              =  -10531.79013837 Ry
     estimated scf accuracy    <       0.00002790 Ry

     total magnetization       =    -0.01 Bohr mag/cell
     absolute magnetization    =   111.05 Bohr mag/cell

     iteration # 39     ecut=    71.00 Ry     beta= 0.10
     Davidson diagonalization with overlap
     ethr =  5.45E-09,  avg # of iterations =  5.6

     negative rho (up, down):  5.467E-03 5.467E-03

     total cpu time spent up to now is    12833.5 secs

     total energy              =  -10531.79014178 Ry
     estimated scf accuracy    <       0.00002373 Ry

     total magnetization       =    -0.00 Bohr mag/cell
     absolute magnetization    =   111.05 Bohr mag/cell

     iteration # 40     ecut=    71.00 Ry     beta= 0.10
     Davidson diagonalization with overlap
     ethr =  4.64E-09,  avg # of iterations =  2.1

     negative rho (up, down):  5.464E-03 5.465E-03

     total cpu time spent up to now is    13120.1 secs

     total energy              =  -10531.79014621 Ry
     estimated scf accuracy    <       0.00002376 Ry

     total magnetization       =     0.01 Bohr mag/cell
     absolute magnetization    =   111.04 Bohr mag/cell

     iteration # 41     ecut=    71.00 Ry     beta= 0.10
     Davidson diagonalization with overlap
     ethr =  4.64E-09,  avg # of iterations =  2.7

     negative rho (up, down):  5.465E-03 5.466E-03

     total cpu time spent up to now is    13420.4 secs

     total energy              =  -10531.79014882 Ry
     estimated scf accuracy    <       0.00002909 Ry

     total magnetization       =     0.01 Bohr mag/cell
     absolute magnetization    =   111.04 Bohr mag/cell

     iteration # 42     ecut=    71.00 Ry     beta= 0.10
     Davidson diagonalization with overlap
     ethr =  4.64E-09,  avg # of iterations =  2.6

     negative rho (up, down):  5.466E-03 5.466E-03

     total cpu time spent up to now is    13713.7 secs

     total energy              =  -10531.79015384 Ry
     estimated scf accuracy    <       0.00001463 Ry

     total magnetization       =     0.00 Bohr mag/cell
     absolute magnetization    =   111.04 Bohr mag/cell

     iteration # 43     ecut=    71.00 Ry     beta= 0.10
     Davidson diagonalization with overlap
     ethr =  2.86E-09,  avg # of iterations =  6.2

     negative rho (up, down):  5.469E-03 5.469E-03

     total cpu time spent up to now is    14043.6 secs

     total energy              =  -10531.79015508 Ry
     estimated scf accuracy    <       0.00002934 Ry

     total magnetization       =     0.00 Bohr mag/cell
     absolute magnetization    =   111.04 Bohr mag/cell

     iteration # 44     ecut=    71.00 Ry     beta= 0.10
     Davidson diagonalization with overlap
     ethr =  2.86E-09,  avg # of iterations =  2.0

     negative rho (up, down):  5.469E-03 5.469E-03

     total cpu time spent up to now is    14320.8 secs

     total energy              =  -10531.79015681 Ry
     estimated scf accuracy    <       0.00001141 Ry

     total magnetization       =    -0.00 Bohr mag/cell
     absolute magnetization    =   111.04 Bohr mag/cell

     iteration # 45     ecut=    71.00 Ry     beta= 0.10
     Davidson diagonalization with overlap
     ethr =  2.23E-09,  avg # of iterations =  2.3

     negative rho (up, down):  5.471E-03 5.471E-03

     total cpu time spent up to now is    14608.4 secs

     total energy              =  -10531.79015928 Ry
     estimated scf accuracy    <       0.00000790 Ry

     total magnetization       =    -0.00 Bohr mag/cell
     absolute magnetization    =   111.04 Bohr mag/cell

     iteration # 46     ecut=    71.00 Ry     beta= 0.10
     Davidson diagonalization with overlap
     ethr =  1.54E-09,  avg # of iterations =  4.9

     negative rho (up, down):  5.473E-03 5.473E-03

     total cpu time spent up to now is    14922.4 secs

     total energy              =  -10531.79016058 Ry
     estimated scf accuracy    <       0.00000675 Ry

     total magnetization       =    -0.00 Bohr mag/cell
     absolute magnetization    =   111.04 Bohr mag/cell

     iteration # 47     ecut=    71.00 Ry     beta= 0.10
     Davidson diagonalization with overlap
     ethr =  1.32E-09,  avg # of iterations =  3.2

     negative rho (up, down):  5.475E-03 5.475E-03

     total cpu time spent up to now is    15222.5 secs

     total energy              =  -10531.79016379 Ry
     estimated scf accuracy    <       0.00000717 Ry

     total magnetization       =    -0.00 Bohr mag/cell
     absolute magnetization    =   111.04 Bohr mag/cell

     iteration # 48     ecut=    71.00 Ry     beta= 0.10
     Davidson diagonalization with overlap
     ethr =  1.32E-09,  avg # of iterations =  6.3

     negative rho (up, down):  5.475E-03 5.475E-03

     total cpu time spent up to now is    15563.9 secs

     total energy              =  -10531.79016678 Ry
     estimated scf accuracy    <       0.00000723 Ry

     total magnetization       =     0.01 Bohr mag/cell
     absolute magnetization    =   111.04 Bohr mag/cell

     iteration # 49     ecut=    71.00 Ry     beta= 0.10
     Davidson diagonalization with overlap
     ethr =  1.32E-09,  avg # of iterations =  6.0

     negative rho (up, down):  5.475E-03 5.475E-03

     total cpu time spent up to now is    15899.3 secs

     total energy              =  -10531.79016538 Ry
     estimated scf accuracy    <       0.00000805 Ry

     total magnetization       =    -0.00 Bohr mag/cell
     absolute magnetization    =   111.04 Bohr mag/cell

     iteration # 50     ecut=    71.00 Ry     beta= 0.10
     Davidson diagonalization with overlap
     ethr =  1.32E-09,  avg # of iterations =  1.4

     negative rho (up, down):  5.474E-03 5.474E-03

     total cpu time spent up to now is    16171.4 secs

     total energy              =  -10531.79016785 Ry
     estimated scf accuracy    <       0.00001065 Ry

     total magnetization       =    -0.00 Bohr mag/cell
     absolute magnetization    =   111.04 Bohr mag/cell

     iteration # 51     ecut=    71.00 Ry     beta= 0.10
     Davidson diagonalization with overlap
     ethr =  1.32E-09,  avg # of iterations =  5.4

     negative rho (up, down):  5.474E-03 5.474E-03

     total cpu time spent up to now is    16497.3 secs

     total energy              =  -10531.79016940 Ry
     estimated scf accuracy    <       0.00000262 Ry

     total magnetization       =    -0.00 Bohr mag/cell
     absolute magnetization    =   111.04 Bohr mag/cell

     iteration # 52     ecut=    71.00 Ry     beta= 0.10
     Davidson diagonalization with overlap
     ethr =  5.11E-10,  avg # of iterations =  6.4

     negative rho (up, down):  5.474E-03 5.474E-03

     total cpu time spent up to now is    16832.0 secs

     total energy              =  -10531.79016997 Ry
     estimated scf accuracy    <       0.00000141 Ry

     total magnetization       =    -0.00 Bohr mag/cell
     absolute magnetization    =   111.04 Bohr mag/cell

     iteration # 53     ecut=    71.00 Ry     beta= 0.10
     Davidson diagonalization with overlap
     ethr =  2.76E-10,  avg # of iterations =  6.3

     negative rho (up, down):  5.474E-03 5.474E-03

     total cpu time spent up to now is    17177.2 secs

     total energy              =  -10531.79017037 Ry
     estimated scf accuracy    <       0.00000216 Ry

     total magnetization       =     0.00 Bohr mag/cell
     absolute magnetization    =   111.04 Bohr mag/cell

     iteration # 54     ecut=    71.00 Ry     beta= 0.10
     Davidson diagonalization with overlap
     ethr =  2.76E-10,  avg # of iterations =  5.6

     negative rho (up, down):  5.473E-03 5.474E-03
 
     Magnetic moment per site:
     atom:    1    charge:   14.9577    magn:    3.3931    constr:    0.0000
     atom:    2    charge:   14.9580    magn:   -3.3928    constr:    0.0000
     atom:    3    charge:   14.9579    magn:    3.3929    constr:    0.0000
     atom:    4    charge:   14.9578    magn:   -3.3930    constr:    0.0000
     atom:    5    charge:   14.9579    magn:    3.3929    constr:    0.0000
     atom:    6    charge:   14.9580    magn:   -3.3928    constr:    0.0000
     atom:    7    charge:   14.9579    magn:    3.3929    constr:    0.0000
     atom:    8    charge:   14.9578    magn:   -3.3930    constr:    0.0000
     atom:    9    charge:   14.9578    magn:    3.3930    constr:    0.0000
     atom:   10    charge:   14.9580    magn:   -3.3928    constr:    0.0000
     atom:   11    charge:   14.9577    magn:    3.3931    constr:    0.0000
     atom:   12    charge:   14.9578    magn:   -3.3930    constr:    0.0000
     atom:   13    charge:   14.9582    magn:    3.3926    constr:    0.0000
     atom:   14    charge:   14.9580    magn:   -3.3928    constr:    0.0000
     atom:   15    charge:   14.9577    magn:    3.3931    constr:    0.0000
     atom:   16    charge:   14.9578    magn:   -3.3930    constr:    0.0000
     atom:   17    charge:   14.9575    magn:    3.3933    constr:    0.0000
     atom:   18    charge:   14.9580    magn:   -3.3928    constr:    0.0000
     atom:   19    charge:   14.9579    magn:    3.3929    constr:    0.0000
     atom:   20    charge:   14.9579    magn:   -3.3929    constr:    0.0000
     atom:   21    charge:   14.9581    magn:    3.3928    constr:    0.0000
     atom:   22    charge:   14.9580    magn:   -3.3928    constr:    0.0000
     atom:   23    charge:   14.9579    magn:    3.3929    constr:    0.0000
     atom:   24    charge:   14.9579    magn:   -3.3929    constr:    0.0000
     atom:   25    charge:   14.9579    magn:    3.3930    constr:    0.0000
     atom:   26    charge:   14.9580    magn:   -3.3928    constr:    0.0000
     atom:   27    charge:   14.9577    magn:    3.3931    constr:    0.0000
     atom:   28    charge:   14.9579    magn:   -3.3929    constr:    0.0000
     atom:   29    charge:   14.9580    magn:    3.3928    constr:    0.0000
     atom:   30    charge:   14.9580    magn:   -3.3928    constr:    0.0000
     atom:   31    charge:   14.9577    magn:    3.3931    constr:    0.0000
     atom:   32    charge:   14.9579    magn:   -3.3929    constr:    0.0000

     total cpu time spent up to now is    17501.5 secs

     End of self-consistent calculation

     Number of k-points >= 100: set verbosity='high' to print the bands.

     the Fermi energy is     7.1691 ev

!    total energy              =  -10531.79017038 Ry

     total all-electron energy =    -81453.279228 Ry
     estimated scf accuracy    <       0.00000089 Ry
     smearing contrib. (-TS)   =      -0.23901939 Ry
     internal energy E=F+TS    =  -10531.55115100 Ry

     The total energy is F=E-TS. E is the sum of the following terms:
     one-electron contribution =   -5568.69169824 Ry
     hartree contribution      =    2888.39187088 Ry
     xc contribution           =    -881.23538963 Ry
     ewald contribution        =   -4321.11199489 Ry
     one-center paw contrib.   =   -2648.90393912 Ry

     total magnetization       =     0.00 Bohr mag/cell
     absolute magnetization    =   111.04 Bohr mag/cell

     convergence has been achieved in  54 iterations

     negative rho (up, down):  5.473E-03 5.474E-03

     Forces acting on atoms (cartesian axes, Ry/au):

     atom    1 type  1   force =     0.00000000    0.00000000    0.00000000
     atom    2 type  2   force =    -0.00012167   -0.00000438   -0.00000000
     atom    3 type  3   force =    -0.00006954    0.00000000   -0.00001454
     atom    4 type  4   force =     0.00000000    0.00003266   -0.00000402
     atom    5 type  1   force =     0.00000000    0.00000000    0.00000000
     atom    6 type  2   force =     0.00000573    0.00002399    0.00000000
     atom    7 type  3   force =    -0.00006954    0.00000000    0.00001454
     atom    8 type  4   force =     0.00000000    0.00003266    0.00000402
     atom    9 type  1   force =     0.00000000    0.00000000    0.00000000
     atom   10 type  2   force =    -0.00012167    0.00000438    0.00000000
     atom   11 type  3   force =    -0.00006643    0.00000000    0.00000124
     atom   12 type  4   force =     0.00000000   -0.00003266   -0.00000402
     atom   13 type  1   force =     0.00000000    0.00000000    0.00000000
     atom   14 type  2   force =     0.00000573   -0.00002399    0.00000000
     atom   15 type  3   force =    -0.00006643    0.00000000   -0.00000124
     atom   16 type  4   force =     0.00000000   -0.00003266    0.00000402
     atom   17 type  1   force =     0.00000000    0.00000000    0.00000000
     atom   18 type  2   force =     0.00012167   -0.00000438    0.00000000
     atom   19 type  3   force =     0.00006954    0.00000000   -0.00001454
     atom   20 type  4   force =     0.00000000    0.00002983   -0.00002727
     atom   21 type  1   force =     0.00000000    0.00000000    0.00000000
     atom   22 type  2   force =    -0.00000573    0.00002399    0.00000000
     atom   23 type  3   force =     0.00006954    0.00000000    0.00001454
     atom   24 type  4   force =     0.00000000    0.00002983    0.00002727
     atom   25 type  1   force =     0.00000000    0.00000000    0.00000000
     atom   26 type  2   force =     0.00012167    0.00000438   -0.00000000
     atom   27 type  3   force =     0.00006643    0.00000000    0.00000124
     atom   28 type  4   force =     0.00000000   -0.00002983   -0.00002727
     atom   29 type  1   force =     0.00000000    0.00000000    0.00000000
     atom   30 type  2   force =    -0.00000573   -0.00002399    0.00000000
     atom   31 type  3   force =     0.00006643   -0.00000000   -0.00000124
     atom   32 type  4   force =     0.00000000   -0.00002983    0.00002727

     Total force =     0.000332     Total SCF correction =     0.002743
     SCF correction compared to forces is large: reduce conv_thr to get better values


     Computing stress (Cartesian axis) and pressure


     negative rho (up, down):  5.473E-03 5.474E-03
          total   stress  (Ry/bohr**3)                   (kbar)     P=     -229.45
  -0.00160344   0.00000000   0.00000000         -235.87        0.00        0.00
   0.00000000  -0.00147231   0.00000000            0.00     -216.58        0.00
   0.00000000   0.00000000  -0.00160350            0.00        0.00     -235.88


     Writing output data file /scratch/bxp912/fecohfcc132.save/
 
     init_run     :    106.18s CPU    108.30s WALL (       1 calls)
     electrons    :  17124.67s CPU  17388.25s WALL (       1 calls)
     forces       :     48.37s CPU     48.72s WALL (       1 calls)
     stress       :    465.55s CPU    468.35s WALL (       1 calls)

     Called by init_run:
     wfcinit      :    104.61s CPU    106.53s WALL (       1 calls)
     potinit      :      0.48s CPU      0.53s WALL (       1 calls)
     hinit0       :      0.49s CPU      0.58s WALL (       1 calls)

     Called by electrons:
     c_bands      :  15052.12s CPU  15283.21s WALL (      54 calls)
     sum_band     :   2050.35s CPU   2080.71s WALL (      54 calls)
     v_of_rho     :      2.42s CPU      2.56s WALL (      55 calls)
     newd         :      8.43s CPU      9.82s WALL (      55 calls)
     PAW_pot      :     10.20s CPU     10.70s WALL (      55 calls)
     mix_rho      :      0.89s CPU      0.98s WALL (      54 calls)

     Called by c_bands:
     init_us_2    :     98.20s CPU     99.24s WALL (   27750 calls)
     cegterg      :  14680.65s CPU  14848.14s WALL (   13500 calls)

     Called by *egterg:
     cdiaghg      :   1471.08s CPU   1482.86s WALL (   64008 calls)
     h_psi        :   7676.84s CPU   7784.98s WALL (   64258 calls)
     s_psi        :    736.07s CPU    741.46s WALL (   64258 calls)
     g_psi        :     19.33s CPU     19.68s WALL (   50508 calls)

     Called by h_psi:
     h_psi:calbec :   1127.91s CPU   1137.68s WALL (   64258 calls)
     vloc_psi     :   5761.20s CPU   5853.64s WALL (   64258 calls)
     add_vuspsi   :    737.59s CPU    743.16s WALL (   64258 calls)

     General routines
     calbec       :   1706.38s CPU   1720.28s WALL (   79008 calls)
     fft          :      1.87s CPU      1.95s WALL (    1413 calls)
     ffts         :      0.26s CPU      0.26s WALL (     218 calls)
     fftw         :   6902.71s CPU   7012.03s WALL (21884108 calls)
     interpolate  :      0.26s CPU      0.27s WALL (     110 calls)
 
     Parallel routines
     fft_scatt_xy :    685.12s CPU    694.27s WALL (21885739 calls)
     fft_scatt_yz :   5220.16s CPU   5309.95s WALL (21885739 calls)
 
     PWSCF        :      4h57m CPU      5h 1m WALL

 
   This run was terminated on:  13:52: 6   3Dec2021            

=------------------------------------------------------------------------------=
   JOB DONE.
=------------------------------------------------------------------------------=
