
     Program PWSCF v.6.7MaX starts on  2Dec2021 at 10:19:34 

     This program is part of the open-source Quantum ESPRESSO suite
     for quantum simulation of materials; please cite
         "P. Giannozzi et al., J. Phys.:Condens. Matter 21 395502 (2009);
         "P. Giannozzi et al., J. Phys.:Condens. Matter 29 465901 (2017);
          URL http://www.quantum-espresso.org", 
     in publications or presentations arising from this work. More details at
     http://www.quantum-espresso.org/quote

     Parallel version (MPI & OpenMP), running on      72 processor cores
     Number of MPI processes:                72
     Threads/MPI process:                     1

     MPI processes distributed on     1 nodes
     R & G space division:  proc/nbgrp/npool/nimage =      72
     Reading input from fcc_124.in
Warning: card &CELL ignored
Warning: card CELL_DYNAMICS = 'BFGS', ignored
Warning: card CELL_FACTOR = 2.0, ignored
Warning: card PRESS = 0.0, ignored
Warning: card / ignored

     Current dimensions of program PWSCF are:
     Max number of different atomic species (ntypx) = 10
     Max number of k-points (npk) =  40000
     Max angular momentum in pseudopotentials (lmaxx) =  3
     file Fe.pbe-spn-kjpaw_psl.1.0.0.UPF: wavefunction(s)  3P 3D renormalized
     file Fe.pbe-spn-kjpaw_psl.1.0.0.UPF: wavefunction(s)  3P 3D renormalized
     file Fe.pbe-spn-kjpaw_psl.1.0.0.UPF: wavefunction(s)  3P 3D renormalized
     file Fe.pbe-spn-kjpaw_psl.1.0.0.UPF: wavefunction(s)  3P 3D renormalized

     Subspace diagonalization in iterative solution of the eigenvalue problem:
     one sub-group per band group will be used
     ELPA distributed-memory algorithm (size of sub-group:  8*  8 procs)

     Found symmetry operation: I + (  0.0000  0.0000 -0.5000)
     This is a supercell, fractional translations are disabled
     Message from routine setup:
     using ibrav=0 with symmetry is DISCOURAGED, use correct ibrav instead
 
     Parallelization info
     --------------------
     sticks:   dense  smooth     PW     G-vecs:    dense   smooth      PW
     Min         128      85     23                 9102     4887     685
     Max         129      86     24                 9109     4892     689
     Sum        9275    6133   1663               655651   351975   49467
 


     bravais-lattice index     =            0
     lattice parameter (alat)  =      12.9382  a.u.
     unit-cell volume          =    4354.3118 (a.u.)^3
     number of atoms/cell      =           32
     number of atomic types    =            4
     number of electrons       =       512.00
     number of Kohn-Sham states=          307
     kinetic-energy cutoff     =      71.0000  Ry
     charge density cutoff     =     430.0000  Ry
     scf convergence threshold =      1.0E-06
     mixing beta               =       0.1000
     number of iterations used =           10  plain     mixing
     Exchange-correlation= SLA  PW   PBX  PBC
                           (   1   4   3   4   0   0   0)

     celldm(1)=  12.938187  celldm(2)=   0.000000  celldm(3)=   0.000000
     celldm(4)=   0.000000  celldm(5)=   0.000000  celldm(6)=   0.000000

     crystal axes: (cart. coord. in units of alat)
               a(1) = (   1.240000   0.000000   0.000000 )  
               a(2) = (   0.000000   1.307543   0.000000 )  
               a(3) = (   0.000000   0.000000   1.240000 )  

     reciprocal axes: (cart. coord. in units 2 pi/alat)
               b(1) = (  0.806452  0.000000  0.000000 )  
               b(2) = (  0.000000  0.764793  0.000000 )  
               b(3) = (  0.000000  0.000000  0.806452 )  


     PseudoPot. # 1 for Fe read from file:
     /rds/homes/b/bxp912/pp/Fe.pbe-spn-kjpaw_psl.1.0.0.UPF
     MD5 check sum: 42f43b795421b414b0dc916aa790dbcb
     Pseudo is Projector augmented-wave + core cor, Zval = 16.0
     Generated using &quot;atomic&quot; code by A. Dal Corso  v.6.3
     Shape of augmentation charge: PSQ
     Using radial grid of 1191 points,  6 beta functions with: 
                l(1) =   0
                l(2) =   0
                l(3) =   1
                l(4) =   1
                l(5) =   2
                l(6) =   2
     Q(r) pseudized with 0 coefficients 


     PseudoPot. # 2 for Fe read from file:
     /rds/homes/b/bxp912/pp/Fe.pbe-spn-kjpaw_psl.1.0.0.UPF
     MD5 check sum: 42f43b795421b414b0dc916aa790dbcb
     Pseudo is Projector augmented-wave + core cor, Zval = 16.0
     Generated using &quot;atomic&quot; code by A. Dal Corso  v.6.3
     Shape of augmentation charge: PSQ
     Using radial grid of 1191 points,  6 beta functions with: 
                l(1) =   0
                l(2) =   0
                l(3) =   1
                l(4) =   1
                l(5) =   2
                l(6) =   2
     Q(r) pseudized with 0 coefficients 


     PseudoPot. # 3 for Fe read from file:
     /rds/homes/b/bxp912/pp/Fe.pbe-spn-kjpaw_psl.1.0.0.UPF
     MD5 check sum: 42f43b795421b414b0dc916aa790dbcb
     Pseudo is Projector augmented-wave + core cor, Zval = 16.0
     Generated using &quot;atomic&quot; code by A. Dal Corso  v.6.3
     Shape of augmentation charge: PSQ
     Using radial grid of 1191 points,  6 beta functions with: 
                l(1) =   0
                l(2) =   0
                l(3) =   1
                l(4) =   1
                l(5) =   2
                l(6) =   2
     Q(r) pseudized with 0 coefficients 


     PseudoPot. # 4 for Fe read from file:
     /rds/homes/b/bxp912/pp/Fe.pbe-spn-kjpaw_psl.1.0.0.UPF
     MD5 check sum: 42f43b795421b414b0dc916aa790dbcb
     Pseudo is Projector augmented-wave + core cor, Zval = 16.0
     Generated using &quot;atomic&quot; code by A. Dal Corso  v.6.3
     Shape of augmentation charge: PSQ
     Using radial grid of 1191 points,  6 beta functions with: 
                l(1) =   0
                l(2) =   0
                l(3) =   1
                l(4) =   1
                l(5) =   2
                l(6) =   2
     Q(r) pseudized with 0 coefficients 


     atomic species   valence    mass     pseudopotential
        Fe1           16.00    55.84500     Fe( 1.00)
        Fe2           16.00    55.84500     Fe( 1.00)
        Fe3           16.00    55.84500     Fe( 1.00)
        Fe4           16.00    55.84500     Fe( 1.00)

     Starting magnetic structure 
     atomic species   magnetization
        Fe1          0.100
        Fe2         -0.100
        Fe3          0.100
        Fe4         -0.100

      8 Sym. Ops., with inversion, found



   Cartesian axes

     site n.     atom                  positions (alat units)
         1           Fe1 tau(   1) = (   0.0000000   0.0000000   0.0000000  )
         2           Fe2 tau(   2) = (   0.3100000   0.3268857   0.0000000  )
         3           Fe3 tau(   3) = (   0.3100000   0.0000000   0.3100000  )
         4           Fe4 tau(   4) = (   0.0000000   0.3268857   0.3100000  )
         5           Fe1 tau(   5) = (   0.0000000   0.0000000   0.6200000  )
         6           Fe2 tau(   6) = (   0.3100000   0.3268857   0.6200000  )
         7           Fe3 tau(   7) = (   0.3100000   0.0000000   0.9300000  )
         8           Fe4 tau(   8) = (   0.0000000   0.3268857   0.9300000  )
         9           Fe1 tau(   9) = (   0.0000000   0.6537714   0.0000000  )
        10           Fe2 tau(  10) = (   0.3100000   0.9806571   0.0000000  )
        11           Fe3 tau(  11) = (   0.3100000   0.6537714   0.3100000  )
        12           Fe4 tau(  12) = (   0.0000000   0.9806571   0.3100000  )
        13           Fe1 tau(  13) = (   0.0000000   0.6537714   0.6200000  )
        14           Fe2 tau(  14) = (   0.3100000   0.9806571   0.6200000  )
        15           Fe3 tau(  15) = (   0.3100000   0.6537714   0.9300000  )
        16           Fe4 tau(  16) = (   0.0000000   0.9806571   0.9300000  )
        17           Fe1 tau(  17) = (   0.6200000   0.0000000   0.0000000  )
        18           Fe2 tau(  18) = (   0.9300000   0.3268857   0.0000000  )
        19           Fe3 tau(  19) = (   0.9300000   0.0000000   0.3100000  )
        20           Fe4 tau(  20) = (   0.6200000   0.3268857   0.3100000  )
        21           Fe1 tau(  21) = (   0.6200000   0.0000000   0.6200000  )
        22           Fe2 tau(  22) = (   0.9300000   0.3268857   0.6200000  )
        23           Fe3 tau(  23) = (   0.9300000   0.0000000   0.9300000  )
        24           Fe4 tau(  24) = (   0.6200000   0.3268857   0.9300000  )
        25           Fe1 tau(  25) = (   0.6200000   0.6537714   0.0000000  )
        26           Fe2 tau(  26) = (   0.9300000   0.9806571   0.0000000  )
        27           Fe3 tau(  27) = (   0.9300000   0.6537714   0.3100000  )
        28           Fe4 tau(  28) = (   0.6200000   0.9806571   0.3100000  )
        29           Fe1 tau(  29) = (   0.6200000   0.6537714   0.6200000  )
        30           Fe2 tau(  30) = (   0.9300000   0.9806571   0.6200000  )
        31           Fe3 tau(  31) = (   0.9300000   0.6537714   0.9300000  )
        32           Fe4 tau(  32) = (   0.6200000   0.9806571   0.9300000  )

     number of k points=   125  Marzari-Vanderbilt smearing, width (Ry)=  0.0400

     Number of k-points >= 100: set verbosity='high' to print them.

     Dense  grid:   655651 G-vectors     FFT dimensions: ( 108, 120, 108)

     Smooth grid:   351975 G-vectors     FFT dimensions: (  90,  96,  90)

     Estimated max dynamical RAM per process >     769.61 MB

     Estimated total dynamical RAM >      54.11 GB

     Check: negative core charge=   -0.000004
     Generating pointlists ...
     new r_m :   0.1808 (alat units)  2.3398 (a.u.) for type    1
     new r_m :   0.1808 (alat units)  2.3398 (a.u.) for type    2
     new r_m :   0.1808 (alat units)  2.3398 (a.u.) for type    3
     new r_m :   0.1808 (alat units)  2.3398 (a.u.) for type    4

     Initial potential from superposition of free atoms

     starting charge  511.98600, renormalised to  512.00000
     Starting wfcs are  320 randomized atomic wfcs
     Checking if some PAW data can be deallocated... 

     total cpu time spent up to now is      100.9 secs

     Self-consistent Calculation

     iteration #  1     ecut=    71.00 Ry     beta= 0.10
     Davidson diagonalization with overlap
     ethr =  1.00E-02,  avg # of iterations =  3.9

     Threshold (ethr) on eigenvalues was too large:
     Diagonalizing with lowered threshold

     Davidson diagonalization with overlap
     ethr =  6.37E-04,  avg # of iterations =  5.6

     total cpu time spent up to now is      750.0 secs

     total energy              =  -10532.11973930 Ry
     estimated scf accuracy    <       2.23620237 Ry

     total magnetization       =     0.19 Bohr mag/cell
     absolute magnetization    =    81.60 Bohr mag/cell

     iteration #  2     ecut=    71.00 Ry     beta= 0.10
     Davidson diagonalization with overlap
     ethr =  4.37E-04,  avg # of iterations =  2.9

     total cpu time spent up to now is     1037.2 secs

     total energy              =  -10532.13081139 Ry
     estimated scf accuracy    <       3.04560214 Ry

     total magnetization       =    -0.96 Bohr mag/cell
     absolute magnetization    =    82.70 Bohr mag/cell

     iteration #  3     ecut=    71.00 Ry     beta= 0.10
     Davidson diagonalization with overlap
     ethr =  4.37E-04,  avg # of iterations =  1.5

     total cpu time spent up to now is     1284.7 secs

     total energy              =  -10532.21736502 Ry
     estimated scf accuracy    <       4.64015493 Ry

     total magnetization       =     0.32 Bohr mag/cell
     absolute magnetization    =    83.37 Bohr mag/cell

     iteration #  4     ecut=    71.00 Ry     beta= 0.10
     Davidson diagonalization with overlap
     ethr =  4.37E-04,  avg # of iterations =  1.9

     total cpu time spent up to now is     1549.0 secs

     total energy              =  -10532.31742810 Ry
     estimated scf accuracy    <       3.95581602 Ry

     total magnetization       =     0.77 Bohr mag/cell
     absolute magnetization    =    84.86 Bohr mag/cell

     iteration #  5     ecut=    71.00 Ry     beta= 0.10
     Davidson diagonalization with overlap
     ethr =  4.37E-04,  avg # of iterations =  1.2

     total cpu time spent up to now is     1782.5 secs

     total energy              =  -10532.41495942 Ry
     estimated scf accuracy    <       0.74804182 Ry

     total magnetization       =     0.62 Bohr mag/cell
     absolute magnetization    =    86.17 Bohr mag/cell

     iteration #  6     ecut=    71.00 Ry     beta= 0.10
     Davidson diagonalization with overlap
     ethr =  1.46E-04,  avg # of iterations =  2.9

     total cpu time spent up to now is     2049.6 secs

     total energy              =  -10532.66434357 Ry
     estimated scf accuracy    <       0.73204576 Ry

     total magnetization       =    -0.62 Bohr mag/cell
     absolute magnetization    =    86.98 Bohr mag/cell

     iteration #  7     ecut=    71.00 Ry     beta= 0.10
     Davidson diagonalization with overlap
     ethr =  1.43E-04,  avg # of iterations =  4.4

     negative rho (up, down):  2.589E-03 2.572E-03

     total cpu time spent up to now is     2343.1 secs

     total energy              =  -10532.92175767 Ry
     estimated scf accuracy    <       1.82149747 Ry

     total magnetization       =    -2.44 Bohr mag/cell
     absolute magnetization    =    92.49 Bohr mag/cell

     iteration #  8     ecut=    71.00 Ry     beta= 0.10
     Davidson diagonalization with overlap
     ethr =  1.43E-04,  avg # of iterations =  5.0

     negative rho (up, down):  4.393E-03 4.316E-03

     total cpu time spent up to now is     2665.7 secs

     total energy              =  -10533.08601113 Ry
     estimated scf accuracy    <       0.64938827 Ry

     total magnetization       =    -1.19 Bohr mag/cell
     absolute magnetization    =    97.89 Bohr mag/cell

     iteration #  9     ecut=    71.00 Ry     beta= 0.10
     Davidson diagonalization with overlap
     ethr =  1.27E-04,  avg # of iterations =  4.6

     negative rho (up, down):  4.785E-03 4.709E-03

     total cpu time spent up to now is     2956.3 secs

     total energy              =  -10533.12562110 Ry
     estimated scf accuracy    <       0.57065845 Ry

     total magnetization       =     1.58 Bohr mag/cell
     absolute magnetization    =   100.69 Bohr mag/cell

     iteration # 10     ecut=    71.00 Ry     beta= 0.10
     Davidson diagonalization with overlap
     ethr =  1.11E-04,  avg # of iterations =  5.2

     negative rho (up, down):  4.967E-03 4.901E-03

     total cpu time spent up to now is     3247.7 secs

     total energy              =  -10533.17114357 Ry
     estimated scf accuracy    <       0.22124680 Ry

     total magnetization       =     1.18 Bohr mag/cell
     absolute magnetization    =   102.41 Bohr mag/cell

     iteration # 11     ecut=    71.00 Ry     beta= 0.10
     Davidson diagonalization with overlap
     ethr =  4.32E-05,  avg # of iterations =  4.7

     negative rho (up, down):  5.495E-03 5.431E-03

     total cpu time spent up to now is     3543.0 secs

     total energy              =  -10533.18359706 Ry
     estimated scf accuracy    <       0.20125242 Ry

     total magnetization       =     0.63 Bohr mag/cell
     absolute magnetization    =   103.03 Bohr mag/cell

     iteration # 12     ecut=    71.00 Ry     beta= 0.10
     Davidson diagonalization with overlap
     ethr =  3.93E-05,  avg # of iterations =  4.5

     negative rho (up, down):  6.308E-03 6.249E-03

     total cpu time spent up to now is     3828.2 secs

     total energy              =  -10533.17099635 Ry
     estimated scf accuracy    <       0.24410820 Ry

     total magnetization       =     0.41 Bohr mag/cell
     absolute magnetization    =   104.34 Bohr mag/cell

     iteration # 13     ecut=    71.00 Ry     beta= 0.10
     Davidson diagonalization with overlap
     ethr =  3.93E-05,  avg # of iterations =  2.5

     negative rho (up, down):  5.599E-03 5.547E-03

     total cpu time spent up to now is     4094.4 secs

     total energy              =  -10533.15854170 Ry
     estimated scf accuracy    <       0.08174013 Ry

     total magnetization       =     0.17 Bohr mag/cell
     absolute magnetization    =   105.81 Bohr mag/cell

     iteration # 14     ecut=    71.00 Ry     beta= 0.10
     Davidson diagonalization with overlap
     ethr =  1.60E-05,  avg # of iterations =  2.3

     negative rho (up, down):  5.764E-03 5.717E-03

     total cpu time spent up to now is     4369.2 secs

     total energy              =  -10533.16541319 Ry
     estimated scf accuracy    <       0.03736786 Ry

     total magnetization       =     0.17 Bohr mag/cell
     absolute magnetization    =   105.40 Bohr mag/cell

     iteration # 15     ecut=    71.00 Ry     beta= 0.10
     Davidson diagonalization with overlap
     ethr =  7.30E-06,  avg # of iterations =  2.3

     negative rho (up, down):  5.727E-03 5.682E-03

     total cpu time spent up to now is     4626.2 secs

     total energy              =  -10533.16479766 Ry
     estimated scf accuracy    <       0.04567005 Ry

     total magnetization       =    -0.04 Bohr mag/cell
     absolute magnetization    =   105.55 Bohr mag/cell

     iteration # 16     ecut=    71.00 Ry     beta= 0.10
     Davidson diagonalization with overlap
     ethr =  7.30E-06,  avg # of iterations =  1.6

     negative rho (up, down):  5.825E-03 5.781E-03

     total cpu time spent up to now is     4872.7 secs

     total energy              =  -10533.16605165 Ry
     estimated scf accuracy    <       0.00940995 Ry

     total magnetization       =    -0.06 Bohr mag/cell
     absolute magnetization    =   105.67 Bohr mag/cell

     iteration # 17     ecut=    71.00 Ry     beta= 0.10
     Davidson diagonalization with overlap
     c_bands:  1 eigenvalues not converged
     c_bands:  1 eigenvalues not converged
     ethr =  1.84E-06,  avg # of iterations =  4.6

     negative rho (up, down):  5.762E-03 5.722E-03

     total cpu time spent up to now is     5157.2 secs

     total energy              =  -10533.16607948 Ry
     estimated scf accuracy    <       0.00375130 Ry

     total magnetization       =     0.05 Bohr mag/cell
     absolute magnetization    =   105.79 Bohr mag/cell

     iteration # 18     ecut=    71.00 Ry     beta= 0.10
     Davidson diagonalization with overlap
     c_bands:  1 eigenvalues not converged
     ethr =  7.33E-07,  avg # of iterations =  5.6

     negative rho (up, down):  5.625E-03 5.595E-03

     total cpu time spent up to now is     5455.5 secs

     total energy              =  -10533.16628103 Ry
     estimated scf accuracy    <       0.00278383 Ry

     total magnetization       =    -0.07 Bohr mag/cell
     absolute magnetization    =   105.82 Bohr mag/cell

     iteration # 19     ecut=    71.00 Ry     beta= 0.10
     Davidson diagonalization with overlap
     c_bands:  1 eigenvalues not converged
     c_bands:  1 eigenvalues not converged
     ethr =  5.44E-07,  avg # of iterations =  5.4

     negative rho (up, down):  5.652E-03 5.621E-03

     total cpu time spent up to now is     5769.0 secs

     total energy              =  -10533.16641900 Ry
     estimated scf accuracy    <       0.00223043 Ry

     total magnetization       =     0.03 Bohr mag/cell
     absolute magnetization    =   105.91 Bohr mag/cell

     iteration # 20     ecut=    71.00 Ry     beta= 0.10
     Davidson diagonalization with overlap
     ethr =  4.36E-07,  avg # of iterations =  2.2

     negative rho (up, down):  5.511E-03 5.488E-03

     total cpu time spent up to now is     6030.5 secs

     total energy              =  -10533.16676944 Ry
     estimated scf accuracy    <       0.00791870 Ry

     total magnetization       =    -0.09 Bohr mag/cell
     absolute magnetization    =   105.89 Bohr mag/cell

     iteration # 21     ecut=    71.00 Ry     beta= 0.10
     Davidson diagonalization with overlap
     ethr =  4.36E-07,  avg # of iterations =  2.0

     negative rho (up, down):  5.447E-03 5.425E-03

     total cpu time spent up to now is     6304.6 secs

     total energy              =  -10533.16714757 Ry
     estimated scf accuracy    <       0.00057917 Ry

     total magnetization       =    -0.03 Bohr mag/cell
     absolute magnetization    =   105.89 Bohr mag/cell

     iteration # 22     ecut=    71.00 Ry     beta= 0.10
     Davidson diagonalization with overlap
     c_bands:  1 eigenvalues not converged
     ethr =  1.13E-07,  avg # of iterations =  4.7

     negative rho (up, down):  5.359E-03 5.342E-03

     total cpu time spent up to now is     6601.9 secs

     total energy              =  -10533.16735526 Ry
     estimated scf accuracy    <       0.00062220 Ry

     total magnetization       =     0.03 Bohr mag/cell
     absolute magnetization    =   105.86 Bohr mag/cell

     iteration # 23     ecut=    71.00 Ry     beta= 0.10
     Davidson diagonalization with overlap
     ethr =  1.13E-07,  avg # of iterations =  4.3

     negative rho (up, down):  5.333E-03 5.320E-03

     total cpu time spent up to now is     6898.6 secs

     total energy              =  -10533.16750801 Ry
     estimated scf accuracy    <       0.00037699 Ry

     total magnetization       =    -0.01 Bohr mag/cell
     absolute magnetization    =   105.80 Bohr mag/cell

     iteration # 24     ecut=    71.00 Ry     beta= 0.10
     Davidson diagonalization with overlap
     ethr =  7.36E-08,  avg # of iterations =  3.5

     negative rho (up, down):  5.315E-03 5.302E-03

     total cpu time spent up to now is     7180.5 secs

     total energy              =  -10533.16755190 Ry
     estimated scf accuracy    <       0.00076253 Ry

     total magnetization       =    -0.02 Bohr mag/cell
     absolute magnetization    =   105.79 Bohr mag/cell

     iteration # 25     ecut=    71.00 Ry     beta= 0.10
     Davidson diagonalization with overlap
     ethr =  7.36E-08,  avg # of iterations =  1.8

     negative rho (up, down):  5.301E-03 5.291E-03

     total cpu time spent up to now is     7434.4 secs

     total energy              =  -10533.16767253 Ry
     estimated scf accuracy    <       0.00022323 Ry

     total magnetization       =     0.01 Bohr mag/cell
     absolute magnetization    =   105.79 Bohr mag/cell

     iteration # 26     ecut=    71.00 Ry     beta= 0.10
     Davidson diagonalization with overlap
     ethr =  4.36E-08,  avg # of iterations =  3.6

     negative rho (up, down):  5.301E-03 5.294E-03

     total cpu time spent up to now is     7713.5 secs

     total energy              =  -10533.16776461 Ry
     estimated scf accuracy    <       0.00023419 Ry

     total magnetization       =    -0.03 Bohr mag/cell
     absolute magnetization    =   105.80 Bohr mag/cell

     iteration # 27     ecut=    71.00 Ry     beta= 0.10
     Davidson diagonalization with overlap
     ethr =  4.36E-08,  avg # of iterations =  5.2

     negative rho (up, down):  5.285E-03 5.280E-03

     total cpu time spent up to now is     8018.1 secs

     total energy              =  -10533.16782484 Ry
     estimated scf accuracy    <       0.00007708 Ry

     total magnetization       =    -0.00 Bohr mag/cell
     absolute magnetization    =   105.85 Bohr mag/cell

     iteration # 28     ecut=    71.00 Ry     beta= 0.10
     Davidson diagonalization with overlap
     ethr =  1.51E-08,  avg # of iterations =  6.2

     negative rho (up, down):  5.284E-03 5.280E-03

     total cpu time spent up to now is     8335.1 secs

     total energy              =  -10533.16784962 Ry
     estimated scf accuracy    <       0.00008143 Ry

     total magnetization       =     0.01 Bohr mag/cell
     absolute magnetization    =   105.85 Bohr mag/cell

     iteration # 29     ecut=    71.00 Ry     beta= 0.10
     Davidson diagonalization with overlap
     ethr =  1.51E-08,  avg # of iterations =  2.8

     negative rho (up, down):  5.282E-03 5.279E-03

     total cpu time spent up to now is     8598.8 secs

     total energy              =  -10533.16786275 Ry
     estimated scf accuracy    <       0.00010339 Ry

     total magnetization       =     0.00 Bohr mag/cell
     absolute magnetization    =   105.86 Bohr mag/cell

     iteration # 30     ecut=    71.00 Ry     beta= 0.10
     Davidson diagonalization with overlap
     c_bands:  1 eigenvalues not converged
     ethr =  1.51E-08,  avg # of iterations =  2.3

     negative rho (up, down):  5.293E-03 5.291E-03

     total cpu time spent up to now is     8859.1 secs

     total energy              =  -10533.16787178 Ry
     estimated scf accuracy    <       0.00007759 Ry

     total magnetization       =    -0.02 Bohr mag/cell
     absolute magnetization    =   105.87 Bohr mag/cell

     iteration # 31     ecut=    71.00 Ry     beta= 0.10
     Davidson diagonalization with overlap
     ethr =  1.51E-08,  avg # of iterations =  3.2

     negative rho (up, down):  5.292E-03 5.290E-03

     total cpu time spent up to now is     9129.1 secs

     total energy              =  -10533.16787962 Ry
     estimated scf accuracy    <       0.00002451 Ry

     total magnetization       =    -0.01 Bohr mag/cell
     absolute magnetization    =   105.88 Bohr mag/cell

     iteration # 32     ecut=    71.00 Ry     beta= 0.10
     Davidson diagonalization with overlap
     ethr =  4.79E-09,  avg # of iterations =  6.1

     negative rho (up, down):  5.296E-03 5.294E-03

     total cpu time spent up to now is     9426.6 secs

     total energy              =  -10533.16788058 Ry
     estimated scf accuracy    <       0.00002878 Ry

     total magnetization       =     0.00 Bohr mag/cell
     absolute magnetization    =   105.88 Bohr mag/cell

     iteration # 33     ecut=    71.00 Ry     beta= 0.10
     Davidson diagonalization with overlap
     ethr =  4.79E-09,  avg # of iterations =  1.7

     negative rho (up, down):  5.294E-03 5.293E-03

     total cpu time spent up to now is     9675.0 secs

     total energy              =  -10533.16788481 Ry
     estimated scf accuracy    <       0.00001666 Ry

     total magnetization       =     0.00 Bohr mag/cell
     absolute magnetization    =   105.88 Bohr mag/cell

     iteration # 34     ecut=    71.00 Ry     beta= 0.10
     Davidson diagonalization with overlap
     ethr =  3.25E-09,  avg # of iterations =  2.5

     negative rho (up, down):  5.298E-03 5.296E-03

     total cpu time spent up to now is     9944.5 secs

     total energy              =  -10533.16788776 Ry
     estimated scf accuracy    <       0.00001398 Ry

     total magnetization       =    -0.00 Bohr mag/cell
     absolute magnetization    =   105.89 Bohr mag/cell

     iteration # 35     ecut=    71.00 Ry     beta= 0.10
     Davidson diagonalization with overlap
     ethr =  2.73E-09,  avg # of iterations =  3.6

     negative rho (up, down):  5.296E-03 5.296E-03

     total cpu time spent up to now is    10220.3 secs

     total energy              =  -10533.16789432 Ry
     estimated scf accuracy    <       0.00001631 Ry

     total magnetization       =     0.00 Bohr mag/cell
     absolute magnetization    =   105.89 Bohr mag/cell

     iteration # 36     ecut=    71.00 Ry     beta= 0.10
     Davidson diagonalization with overlap
     ethr =  2.73E-09,  avg # of iterations =  5.9

     negative rho (up, down):  5.294E-03 5.294E-03

     total cpu time spent up to now is    10534.9 secs

     total energy              =  -10533.16789879 Ry
     estimated scf accuracy    <       0.00001282 Ry

     total magnetization       =    -0.00 Bohr mag/cell
     absolute magnetization    =   105.89 Bohr mag/cell

     iteration # 37     ecut=    71.00 Ry     beta= 0.10
     Davidson diagonalization with overlap
     ethr =  2.50E-09,  avg # of iterations =  3.0

     negative rho (up, down):  5.288E-03 5.288E-03

     total cpu time spent up to now is    10808.0 secs

     total energy              =  -10533.16790069 Ry
     estimated scf accuracy    <       0.00001042 Ry

     total magnetization       =     0.00 Bohr mag/cell
     absolute magnetization    =   105.89 Bohr mag/cell

     iteration # 38     ecut=    71.00 Ry     beta= 0.10
     Davidson diagonalization with overlap
     ethr =  2.04E-09,  avg # of iterations =  5.1

     negative rho (up, down):  5.289E-03 5.289E-03

     total cpu time spent up to now is    11095.0 secs

     total energy              =  -10533.16790257 Ry
     estimated scf accuracy    <       0.00000412 Ry

     total magnetization       =    -0.00 Bohr mag/cell
     absolute magnetization    =   105.88 Bohr mag/cell

     iteration # 39     ecut=    71.00 Ry     beta= 0.10
     Davidson diagonalization with overlap
     ethr =  8.04E-10,  avg # of iterations =  5.9

     negative rho (up, down):  5.288E-03 5.288E-03

     total cpu time spent up to now is    11395.7 secs

     total energy              =  -10533.16790342 Ry
     estimated scf accuracy    <       0.00000436 Ry

     total magnetization       =     0.00 Bohr mag/cell
     absolute magnetization    =   105.88 Bohr mag/cell

     iteration # 40     ecut=    71.00 Ry     beta= 0.10
     Davidson diagonalization with overlap
     ethr =  8.04E-10,  avg # of iterations =  2.5

     negative rho (up, down):  5.292E-03 5.292E-03

     total cpu time spent up to now is    11653.7 secs

     total energy              =  -10533.16790611 Ry
     estimated scf accuracy    <       0.00000299 Ry

     total magnetization       =     0.00 Bohr mag/cell
     absolute magnetization    =   105.88 Bohr mag/cell

     iteration # 41     ecut=    71.00 Ry     beta= 0.10
     Davidson diagonalization with overlap
     ethr =  5.84E-10,  avg # of iterations =  6.4

     negative rho (up, down):  5.293E-03 5.294E-03

     total cpu time spent up to now is    12013.1 secs

     total energy              =  -10533.16790790 Ry
     estimated scf accuracy    <       0.00000373 Ry

     total magnetization       =    -0.00 Bohr mag/cell
     absolute magnetization    =   105.88 Bohr mag/cell

     iteration # 42     ecut=    71.00 Ry     beta= 0.10
     Davidson diagonalization with overlap
     ethr =  5.84E-10,  avg # of iterations =  3.3

     negative rho (up, down):  5.292E-03 5.292E-03

     total cpu time spent up to now is    12292.2 secs

     total energy              =  -10533.16790801 Ry
     estimated scf accuracy    <       0.00000534 Ry

     total magnetization       =    -0.00 Bohr mag/cell
     absolute magnetization    =   105.88 Bohr mag/cell

     iteration # 43     ecut=    71.00 Ry     beta= 0.10
     Davidson diagonalization with overlap
     ethr =  5.84E-10,  avg # of iterations =  2.2

     negative rho (up, down):  5.295E-03 5.295E-03

     total cpu time spent up to now is    12554.9 secs

     total energy              =  -10533.16790884 Ry
     estimated scf accuracy    <       0.00000289 Ry

     total magnetization       =     0.00 Bohr mag/cell
     absolute magnetization    =   105.88 Bohr mag/cell

     iteration # 44     ecut=    71.00 Ry     beta= 0.10
     Davidson diagonalization with overlap
     ethr =  5.64E-10,  avg # of iterations =  4.5

     negative rho (up, down):  5.296E-03 5.296E-03

     total cpu time spent up to now is    12836.7 secs

     total energy              =  -10533.16790919 Ry
     estimated scf accuracy    <       0.00000142 Ry

     total magnetization       =     0.00 Bohr mag/cell
     absolute magnetization    =   105.88 Bohr mag/cell

     iteration # 45     ecut=    71.00 Ry     beta= 0.10
     Davidson diagonalization with overlap
     ethr =  2.78E-10,  avg # of iterations =  5.4

     negative rho (up, down):  5.294E-03 5.294E-03
 
     Magnetic moment per site:
     atom:    1    charge:   14.8420    magn:    3.2272    constr:    0.0000
     atom:    2    charge:   14.8422    magn:   -3.2270    constr:    0.0000
     atom:    3    charge:   14.8422    magn:    3.2270    constr:    0.0000
     atom:    4    charge:   14.8421    magn:   -3.2271    constr:    0.0000
     atom:    5    charge:   14.8420    magn:    3.2272    constr:    0.0000
     atom:    6    charge:   14.8420    magn:   -3.2272    constr:    0.0000
     atom:    7    charge:   14.8422    magn:    3.2270    constr:    0.0000
     atom:    8    charge:   14.8421    magn:   -3.2271    constr:    0.0000
     atom:    9    charge:   14.8422    magn:    3.2271    constr:    0.0000
     atom:   10    charge:   14.8422    magn:   -3.2270    constr:    0.0000
     atom:   11    charge:   14.8422    magn:    3.2270    constr:    0.0000
     atom:   12    charge:   14.8421    magn:   -3.2271    constr:    0.0000
     atom:   13    charge:   14.8419    magn:    3.2273    constr:    0.0000
     atom:   14    charge:   14.8420    magn:   -3.2272    constr:    0.0000
     atom:   15    charge:   14.8422    magn:    3.2270    constr:    0.0000
     atom:   16    charge:   14.8421    magn:   -3.2271    constr:    0.0000
     atom:   17    charge:   14.8421    magn:    3.2272    constr:    0.0000
     atom:   18    charge:   14.8422    magn:   -3.2270    constr:    0.0000
     atom:   19    charge:   14.8422    magn:    3.2270    constr:    0.0000
     atom:   20    charge:   14.8421    magn:   -3.2271    constr:    0.0000
     atom:   21    charge:   14.8419    magn:    3.2273    constr:    0.0000
     atom:   22    charge:   14.8420    magn:   -3.2272    constr:    0.0000
     atom:   23    charge:   14.8422    magn:    3.2270    constr:    0.0000
     atom:   24    charge:   14.8421    magn:   -3.2271    constr:    0.0000
     atom:   25    charge:   14.8421    magn:    3.2271    constr:    0.0000
     atom:   26    charge:   14.8422    magn:   -3.2270    constr:    0.0000
     atom:   27    charge:   14.8422    magn:    3.2270    constr:    0.0000
     atom:   28    charge:   14.8421    magn:   -3.2271    constr:    0.0000
     atom:   29    charge:   14.8420    magn:    3.2272    constr:    0.0000
     atom:   30    charge:   14.8420    magn:   -3.2272    constr:    0.0000
     atom:   31    charge:   14.8422    magn:    3.2270    constr:    0.0000
     atom:   32    charge:   14.8421    magn:   -3.2271    constr:    0.0000

     total cpu time spent up to now is    13122.9 secs

     End of self-consistent calculation

     Number of k-points >= 100: set verbosity='high' to print the bands.

     the Fermi energy is     9.2477 ev

!    total energy              =  -10533.16790925 Ry

     total all-electron energy =    -81454.656967 Ry
     estimated scf accuracy    <       0.00000069 Ry
     smearing contrib. (-TS)   =      -0.12414577 Ry
     internal energy E=F+TS    =  -10533.04376347 Ry

     The total energy is F=E-TS. E is the sum of the following terms:
     one-electron contribution =   -5093.54421099 Ry
     hartree contribution      =    2691.48355019 Ry
     xc contribution           =    -882.05732464 Ry
     ewald contribution        =   -4599.89341391 Ry
     one-center paw contrib.   =   -2649.03236412 Ry

     total magnetization       =     0.00 Bohr mag/cell
     absolute magnetization    =   105.88 Bohr mag/cell

     convergence has been achieved in  45 iterations

     negative rho (up, down):  5.294E-03 5.294E-03

     Forces acting on atoms (cartesian axes, Ry/au):

     atom    1 type  1   force =     0.00000000    0.00000000    0.00000000
     atom    2 type  2   force =     0.00003068    0.00001173    0.00000000
     atom    3 type  3   force =    -0.00000573    0.00000000   -0.00009326
     atom    4 type  4   force =     0.00000000   -0.00006274   -0.00001552
     atom    5 type  1   force =     0.00000000    0.00000000    0.00000000
     atom    6 type  2   force =    -0.00000330    0.00002790   -0.00000000
     atom    7 type  3   force =    -0.00000573    0.00000000    0.00009326
     atom    8 type  4   force =     0.00000000   -0.00006274    0.00001552
     atom    9 type  1   force =     0.00000000    0.00000000    0.00000000
     atom   10 type  2   force =     0.00003068   -0.00001173    0.00000000
     atom   11 type  3   force =     0.00012461    0.00000000    0.00000378
     atom   12 type  4   force =     0.00000000    0.00006274   -0.00001552
     atom   13 type  1   force =     0.00000000    0.00000000    0.00000000
     atom   14 type  2   force =    -0.00000330   -0.00002790   -0.00000000
     atom   15 type  3   force =     0.00012461    0.00000000   -0.00000378
     atom   16 type  4   force =     0.00000000    0.00006274    0.00001552
     atom   17 type  1   force =     0.00000000    0.00000000    0.00000000
     atom   18 type  2   force =    -0.00003068    0.00001173    0.00000000
     atom   19 type  3   force =     0.00000573    0.00000000   -0.00009326
     atom   20 type  4   force =     0.00000000   -0.00008788    0.00017205
     atom   21 type  1   force =     0.00000000    0.00000000    0.00000000
     atom   22 type  2   force =     0.00000330    0.00002790   -0.00000000
     atom   23 type  3   force =     0.00000573    0.00000000    0.00009326
     atom   24 type  4   force =     0.00000000   -0.00008788   -0.00017205
     atom   25 type  1   force =     0.00000000    0.00000000    0.00000000
     atom   26 type  2   force =    -0.00003068   -0.00001173    0.00000000
     atom   27 type  3   force =    -0.00012461    0.00000000    0.00000378
     atom   28 type  4   force =     0.00000000    0.00008788    0.00017205
     atom   29 type  1   force =     0.00000000    0.00000000    0.00000000
     atom   30 type  2   force =     0.00000330   -0.00002790   -0.00000000
     atom   31 type  3   force =    -0.00012461    0.00000000   -0.00000378
     atom   32 type  4   force =     0.00000000    0.00008788   -0.00017205

     Total force =     0.000520     Total SCF correction =     0.002019
     SCF correction compared to forces is large: reduce conv_thr to get better values


     Computing stress (Cartesian axis) and pressure


     negative rho (up, down):  5.294E-03 5.294E-03
          total   stress  (Ry/bohr**3)                   (kbar)     P=     -269.51
  -0.00189903   0.00000000   0.00000000         -279.36        0.00        0.00
   0.00000000  -0.00169822   0.00000000            0.00     -249.82        0.00
   0.00000000   0.00000000  -0.00189911            0.00        0.00     -279.37


     Writing output data file /scratch/bxp912/fecohfcc124.save/
 
     init_run     :     94.45s CPU     96.05s WALL (       1 calls)
     electrons    :  12876.09s CPU  13022.05s WALL (       1 calls)
     forces       :     44.04s CPU     44.34s WALL (       1 calls)
     stress       :    368.70s CPU    371.06s WALL (       1 calls)

     Called by init_run:
     wfcinit      :     93.14s CPU     94.63s WALL (       1 calls)
     potinit      :      0.41s CPU      0.44s WALL (       1 calls)
     hinit0       :      0.43s CPU      0.44s WALL (       1 calls)

     Called by electrons:
     c_bands      :  11260.49s CPU  11383.23s WALL (      46 calls)
     sum_band     :   1598.78s CPU   1620.52s WALL (      46 calls)
     v_of_rho     :      1.82s CPU      1.90s WALL (      46 calls)
     newd         :      5.81s CPU      6.80s WALL (      46 calls)
     PAW_pot      :      8.24s CPU      8.58s WALL (      46 calls)
     mix_rho      :      0.67s CPU      0.74s WALL (      46 calls)

     Called by c_bands:
     init_us_2    :     67.45s CPU     68.13s WALL (   23750 calls)
     cegterg      :  10998.63s CPU  11116.99s WALL (   11500 calls)

     Called by *egterg:
     cdiaghg      :   1169.60s CPU   1178.29s WALL (   54350 calls)
     h_psi        :   5854.98s CPU   5932.97s WALL (   54850 calls)
     s_psi        :    510.03s CPU    513.29s WALL (   54850 calls)
     g_psi        :     14.68s CPU     14.94s WALL (   43100 calls)

     Called by h_psi:
     h_psi:calbec :    840.93s CPU    846.75s WALL (   54850 calls)
     vloc_psi     :   4455.47s CPU   4523.93s WALL (   54850 calls)
     add_vuspsi   :    521.23s CPU    524.60s WALL (   54850 calls)

     General routines
     calbec       :   1283.39s CPU   1292.15s WALL (   67600 calls)
     fft          :      1.74s CPU      1.80s WALL (    1190 calls)
     ffts         :      0.13s CPU      0.14s WALL (     184 calls)
     fftw         :   5363.67s CPU   5445.97s WALL (18462650 calls)
     interpolate  :      0.32s CPU      0.33s WALL (      92 calls)
 
     Parallel routines
     fft_scatt_xy :    470.43s CPU    476.74s WALL (18464024 calls)
     fft_scatt_yz :   4022.59s CPU   4088.76s WALL (18464024 calls)
 
     PWSCF        :      3h44m CPU      3h47m WALL

 
   This run was terminated on:  14: 6:37   2Dec2021            

=------------------------------------------------------------------------------=
   JOB DONE.
=------------------------------------------------------------------------------=
