
     Program PWSCF v.6.7MaX starts on  2Dec2021 at 14: 6:43 

     This program is part of the open-source Quantum ESPRESSO suite
     for quantum simulation of materials; please cite
         "P. Giannozzi et al., J. Phys.:Condens. Matter 21 395502 (2009);
         "P. Giannozzi et al., J. Phys.:Condens. Matter 29 465901 (2017);
          URL http://www.quantum-espresso.org", 
     in publications or presentations arising from this work. More details at
     http://www.quantum-espresso.org/quote

     Parallel version (MPI & OpenMP), running on      72 processor cores
     Number of MPI processes:                72
     Threads/MPI process:                     1

     MPI processes distributed on     1 nodes
     R & G space division:  proc/nbgrp/npool/nimage =      72
     Reading input from fcc_128.in
Warning: card &CELL ignored
Warning: card CELL_DYNAMICS = 'BFGS', ignored
Warning: card CELL_FACTOR = 2.0, ignored
Warning: card PRESS = 0.0, ignored
Warning: card / ignored

     Current dimensions of program PWSCF are:
     Max number of different atomic species (ntypx) = 10
     Max number of k-points (npk) =  40000
     Max angular momentum in pseudopotentials (lmaxx) =  3
     file Fe.pbe-spn-kjpaw_psl.1.0.0.UPF: wavefunction(s)  3P 3D renormalized
     file Fe.pbe-spn-kjpaw_psl.1.0.0.UPF: wavefunction(s)  3P 3D renormalized
     file Fe.pbe-spn-kjpaw_psl.1.0.0.UPF: wavefunction(s)  3P 3D renormalized
     file Fe.pbe-spn-kjpaw_psl.1.0.0.UPF: wavefunction(s)  3P 3D renormalized

     Subspace diagonalization in iterative solution of the eigenvalue problem:
     one sub-group per band group will be used
     ELPA distributed-memory algorithm (size of sub-group:  8*  8 procs)

     Found symmetry operation: I + (  0.0000  0.0000 -0.5000)
     This is a supercell, fractional translations are disabled
     Message from routine setup:
     using ibrav=0 with symmetry is DISCOURAGED, use correct ibrav instead
 
     Parallelization info
     --------------------
     sticks:   dense  smooth     PW     G-vecs:    dense   smooth      PW
     Min         137      90     24                10015     5372     750
     Max         138      91     25                10022     5379     755
     Sum        9903    6541   1767               721259   387105   54101
 


     bravais-lattice index     =            0
     lattice parameter (alat)  =      12.9382  a.u.
     unit-cell volume          =    4789.4360 (a.u.)^3
     number of atoms/cell      =           32
     number of atomic types    =            4
     number of electrons       =       512.00
     number of Kohn-Sham states=          307
     kinetic-energy cutoff     =      71.0000  Ry
     charge density cutoff     =     430.0000  Ry
     scf convergence threshold =      1.0E-06
     mixing beta               =       0.1000
     number of iterations used =           10  plain     mixing
     Exchange-correlation= SLA  PW   PBX  PBC
                           (   1   4   3   4   0   0   0)

     celldm(1)=  12.938187  celldm(2)=   0.000000  celldm(3)=   0.000000
     celldm(4)=   0.000000  celldm(5)=   0.000000  celldm(6)=   0.000000

     crystal axes: (cart. coord. in units of alat)
               a(1) = (   1.280000   0.000000   0.000000 )  
               a(2) = (   0.000000   1.349722   0.000000 )  
               a(3) = (   0.000000   0.000000   1.280000 )  

     reciprocal axes: (cart. coord. in units 2 pi/alat)
               b(1) = (  0.781250  0.000000  0.000000 )  
               b(2) = (  0.000000  0.740894  0.000000 )  
               b(3) = (  0.000000  0.000000  0.781250 )  


     PseudoPot. # 1 for Fe read from file:
     /rds/homes/b/bxp912/pp/Fe.pbe-spn-kjpaw_psl.1.0.0.UPF
     MD5 check sum: 42f43b795421b414b0dc916aa790dbcb
     Pseudo is Projector augmented-wave + core cor, Zval = 16.0
     Generated using &quot;atomic&quot; code by A. Dal Corso  v.6.3
     Shape of augmentation charge: PSQ
     Using radial grid of 1191 points,  6 beta functions with: 
                l(1) =   0
                l(2) =   0
                l(3) =   1
                l(4) =   1
                l(5) =   2
                l(6) =   2
     Q(r) pseudized with 0 coefficients 


     PseudoPot. # 2 for Fe read from file:
     /rds/homes/b/bxp912/pp/Fe.pbe-spn-kjpaw_psl.1.0.0.UPF
     MD5 check sum: 42f43b795421b414b0dc916aa790dbcb
     Pseudo is Projector augmented-wave + core cor, Zval = 16.0
     Generated using &quot;atomic&quot; code by A. Dal Corso  v.6.3
     Shape of augmentation charge: PSQ
     Using radial grid of 1191 points,  6 beta functions with: 
                l(1) =   0
                l(2) =   0
                l(3) =   1
                l(4) =   1
                l(5) =   2
                l(6) =   2
     Q(r) pseudized with 0 coefficients 


     PseudoPot. # 3 for Fe read from file:
     /rds/homes/b/bxp912/pp/Fe.pbe-spn-kjpaw_psl.1.0.0.UPF
     MD5 check sum: 42f43b795421b414b0dc916aa790dbcb
     Pseudo is Projector augmented-wave + core cor, Zval = 16.0
     Generated using &quot;atomic&quot; code by A. Dal Corso  v.6.3
     Shape of augmentation charge: PSQ
     Using radial grid of 1191 points,  6 beta functions with: 
                l(1) =   0
                l(2) =   0
                l(3) =   1
                l(4) =   1
                l(5) =   2
                l(6) =   2
     Q(r) pseudized with 0 coefficients 


     PseudoPot. # 4 for Fe read from file:
     /rds/homes/b/bxp912/pp/Fe.pbe-spn-kjpaw_psl.1.0.0.UPF
     MD5 check sum: 42f43b795421b414b0dc916aa790dbcb
     Pseudo is Projector augmented-wave + core cor, Zval = 16.0
     Generated using &quot;atomic&quot; code by A. Dal Corso  v.6.3
     Shape of augmentation charge: PSQ
     Using radial grid of 1191 points,  6 beta functions with: 
                l(1) =   0
                l(2) =   0
                l(3) =   1
                l(4) =   1
                l(5) =   2
                l(6) =   2
     Q(r) pseudized with 0 coefficients 


     atomic species   valence    mass     pseudopotential
        Fe1           16.00    55.84500     Fe( 1.00)
        Fe2           16.00    55.84500     Fe( 1.00)
        Fe3           16.00    55.84500     Fe( 1.00)
        Fe4           16.00    55.84500     Fe( 1.00)

     Starting magnetic structure 
     atomic species   magnetization
        Fe1          0.100
        Fe2         -0.100
        Fe3          0.100
        Fe4         -0.100

      8 Sym. Ops., with inversion, found



   Cartesian axes

     site n.     atom                  positions (alat units)
         1           Fe1 tau(   1) = (   0.0000000   0.0000000   0.0000000  )
         2           Fe2 tau(   2) = (   0.3200000   0.3374304   0.0000000  )
         3           Fe3 tau(   3) = (   0.3200000   0.0000000   0.3200000  )
         4           Fe4 tau(   4) = (   0.0000000   0.3374304   0.3200000  )
         5           Fe1 tau(   5) = (   0.0000000   0.0000000   0.6400000  )
         6           Fe2 tau(   6) = (   0.3200000   0.3374304   0.6400000  )
         7           Fe3 tau(   7) = (   0.3200000   0.0000000   0.9600000  )
         8           Fe4 tau(   8) = (   0.0000000   0.3374304   0.9600000  )
         9           Fe1 tau(   9) = (   0.0000000   0.6748608   0.0000000  )
        10           Fe2 tau(  10) = (   0.3200000   1.0122912   0.0000000  )
        11           Fe3 tau(  11) = (   0.3200000   0.6748608   0.3200000  )
        12           Fe4 tau(  12) = (   0.0000000   1.0122912   0.3200000  )
        13           Fe1 tau(  13) = (   0.0000000   0.6748608   0.6400000  )
        14           Fe2 tau(  14) = (   0.3200000   1.0122912   0.6400000  )
        15           Fe3 tau(  15) = (   0.3200000   0.6748608   0.9600000  )
        16           Fe4 tau(  16) = (   0.0000000   1.0122912   0.9600000  )
        17           Fe1 tau(  17) = (   0.6400000   0.0000000   0.0000000  )
        18           Fe2 tau(  18) = (   0.9600000   0.3374304   0.0000000  )
        19           Fe3 tau(  19) = (   0.9600000   0.0000000   0.3200000  )
        20           Fe4 tau(  20) = (   0.6400000   0.3374304   0.3200000  )
        21           Fe1 tau(  21) = (   0.6400000   0.0000000   0.6400000  )
        22           Fe2 tau(  22) = (   0.9600000   0.3374304   0.6400000  )
        23           Fe3 tau(  23) = (   0.9600000   0.0000000   0.9600000  )
        24           Fe4 tau(  24) = (   0.6400000   0.3374304   0.9600000  )
        25           Fe1 tau(  25) = (   0.6400000   0.6748608   0.0000000  )
        26           Fe2 tau(  26) = (   0.9600000   1.0122912   0.0000000  )
        27           Fe3 tau(  27) = (   0.9600000   0.6748608   0.3200000  )
        28           Fe4 tau(  28) = (   0.6400000   1.0122912   0.3200000  )
        29           Fe1 tau(  29) = (   0.6400000   0.6748608   0.6400000  )
        30           Fe2 tau(  30) = (   0.9600000   1.0122912   0.6400000  )
        31           Fe3 tau(  31) = (   0.9600000   0.6748608   0.9600000  )
        32           Fe4 tau(  32) = (   0.6400000   1.0122912   0.9600000  )

     number of k points=   125  Marzari-Vanderbilt smearing, width (Ry)=  0.0400

     Number of k-points >= 100: set verbosity='high' to print them.

     Dense  grid:   721259 G-vectors     FFT dimensions: ( 120, 120, 120)

     Smooth grid:   387105 G-vectors     FFT dimensions: (  90,  96,  90)

     Estimated max dynamical RAM per process >     847.13 MB

     Estimated total dynamical RAM >      59.56 GB

     Check: negative core charge=   -0.000004
     Generating pointlists ...
     new r_m :   0.1867 (alat units)  2.4153 (a.u.) for type    1
     new r_m :   0.1867 (alat units)  2.4153 (a.u.) for type    2
     new r_m :   0.1867 (alat units)  2.4153 (a.u.) for type    3
     new r_m :   0.1867 (alat units)  2.4153 (a.u.) for type    4

     Initial potential from superposition of free atoms

     starting charge  511.98600, renormalised to  512.00000
     Starting wfcs are  320 randomized atomic wfcs
     Checking if some PAW data can be deallocated... 

     total cpu time spent up to now is      116.3 secs

     Self-consistent Calculation

     iteration #  1     ecut=    71.00 Ry     beta= 0.10
     Davidson diagonalization with overlap
     ethr =  1.00E-02,  avg # of iterations =  4.1

     Threshold (ethr) on eigenvalues was too large:
     Diagonalizing with lowered threshold

     Davidson diagonalization with overlap
     ethr =  9.86E-04,  avg # of iterations =  3.4

     total cpu time spent up to now is      759.1 secs

     total energy              =  -10531.12074772 Ry
     estimated scf accuracy    <       3.96168012 Ry

     total magnetization       =     0.26 Bohr mag/cell
     absolute magnetization    =    85.04 Bohr mag/cell

     iteration #  2     ecut=    71.00 Ry     beta= 0.10
     Davidson diagonalization with overlap
     ethr =  7.74E-04,  avg # of iterations =  3.4

     total cpu time spent up to now is     1070.7 secs

     total energy              =  -10531.14324012 Ry
     estimated scf accuracy    <       4.54077700 Ry

     total magnetization       =    -1.17 Bohr mag/cell
     absolute magnetization    =    86.56 Bohr mag/cell

     iteration #  3     ecut=    71.00 Ry     beta= 0.10
     Davidson diagonalization with overlap
     ethr =  7.74E-04,  avg # of iterations =  1.8

     total cpu time spent up to now is     1332.0 secs

     total energy              =  -10531.22716509 Ry
     estimated scf accuracy    <      12.92226057 Ry

     total magnetization       =     0.83 Bohr mag/cell
     absolute magnetization    =    87.22 Bohr mag/cell

     iteration #  4     ecut=    71.00 Ry     beta= 0.10
     Davidson diagonalization with overlap
     ethr =  7.74E-04,  avg # of iterations =  2.1

     total cpu time spent up to now is     1609.2 secs

     total energy              =  -10531.46089046 Ry
     estimated scf accuracy    <       6.14045535 Ry

     total magnetization       =     0.79 Bohr mag/cell
     absolute magnetization    =    88.91 Bohr mag/cell

     iteration #  5     ecut=    71.00 Ry     beta= 0.10
     Davidson diagonalization with overlap
     ethr =  7.74E-04,  avg # of iterations =  1.4

     total cpu time spent up to now is     1860.4 secs

     total energy              =  -10531.58676475 Ry
     estimated scf accuracy    <       0.97358637 Ry

     total magnetization       =     1.11 Bohr mag/cell
     absolute magnetization    =    90.12 Bohr mag/cell

     iteration #  6     ecut=    71.00 Ry     beta= 0.10
     Davidson diagonalization with overlap
     ethr =  1.90E-04,  avg # of iterations =  5.3

     total cpu time spent up to now is     2184.2 secs

     total energy              =  -10531.69250621 Ry
     estimated scf accuracy    <       0.89368884 Ry

     total magnetization       =    -0.39 Bohr mag/cell
     absolute magnetization    =    91.00 Bohr mag/cell

     iteration #  7     ecut=    71.00 Ry     beta= 0.10
     Davidson diagonalization with overlap
     ethr =  1.75E-04,  avg # of iterations =  1.3

     total cpu time spent up to now is     2442.7 secs

     total energy              =  -10531.90777120 Ry
     estimated scf accuracy    <       1.12880828 Ry

     total magnetization       =    -1.55 Bohr mag/cell
     absolute magnetization    =    92.34 Bohr mag/cell

     iteration #  8     ecut=    71.00 Ry     beta= 0.10
     Davidson diagonalization with overlap
     ethr =  1.75E-04,  avg # of iterations =  2.0

     negative rho (up, down):  2.078E-03 1.999E-03

     total cpu time spent up to now is     2727.0 secs

     total energy              =  -10532.21344354 Ry
     estimated scf accuracy    <       1.15769240 Ry

     total magnetization       =    -1.19 Bohr mag/cell
     absolute magnetization    =    95.37 Bohr mag/cell

     iteration #  9     ecut=    71.00 Ry     beta= 0.10
     Davidson diagonalization with overlap
     ethr =  1.75E-04,  avg # of iterations =  4.4

     negative rho (up, down):  4.411E-03 4.335E-03

     total cpu time spent up to now is     3033.0 secs

     total energy              =  -10532.31360192 Ry
     estimated scf accuracy    <       1.91761966 Ry

     total magnetization       =     3.15 Bohr mag/cell
     absolute magnetization    =   100.70 Bohr mag/cell

     iteration # 10     ecut=    71.00 Ry     beta= 0.10
     Davidson diagonalization with overlap
     ethr =  1.75E-04,  avg # of iterations =  6.3

     negative rho (up, down):  4.693E-03 4.629E-03

     total cpu time spent up to now is     3383.5 secs

     total energy              =  -10532.48324921 Ry
     estimated scf accuracy    <       0.45350853 Ry

     total magnetization       =     1.76 Bohr mag/cell
     absolute magnetization    =   106.42 Bohr mag/cell

     iteration # 11     ecut=    71.00 Ry     beta= 0.10
     Davidson diagonalization with overlap
     ethr =  8.86E-05,  avg # of iterations =  2.4

     negative rho (up, down):  5.185E-03 5.129E-03

     total cpu time spent up to now is     3659.1 secs

     total energy              =  -10532.51019806 Ry
     estimated scf accuracy    <       0.37438206 Ry

     total magnetization       =     0.86 Bohr mag/cell
     absolute magnetization    =   106.96 Bohr mag/cell

     iteration # 12     ecut=    71.00 Ry     beta= 0.10
     Davidson diagonalization with overlap
     ethr =  7.31E-05,  avg # of iterations =  3.4

     negative rho (up, down):  5.747E-03 5.700E-03

     total cpu time spent up to now is     3952.7 secs

     total energy              =  -10532.51181837 Ry
     estimated scf accuracy    <       0.38505156 Ry

     total magnetization       =     0.28 Bohr mag/cell
     absolute magnetization    =   108.11 Bohr mag/cell

     iteration # 13     ecut=    71.00 Ry     beta= 0.10
     Davidson diagonalization with overlap
     ethr =  7.31E-05,  avg # of iterations =  1.6

     negative rho (up, down):  5.104E-03 5.057E-03

     total cpu time spent up to now is     4221.3 secs

     total energy              =  -10532.45640809 Ry
     estimated scf accuracy    <       0.20319474 Ry

     total magnetization       =    -0.26 Bohr mag/cell
     absolute magnetization    =   109.02 Bohr mag/cell

     iteration # 14     ecut=    71.00 Ry     beta= 0.10
     Davidson diagonalization with overlap
     ethr =  3.97E-05,  avg # of iterations =  2.0

     negative rho (up, down):  5.741E-03 5.698E-03

     total cpu time spent up to now is     4504.7 secs

     total energy              =  -10532.48047544 Ry
     estimated scf accuracy    <       0.10622818 Ry

     total magnetization       =     0.18 Bohr mag/cell
     absolute magnetization    =   108.58 Bohr mag/cell

     iteration # 15     ecut=    71.00 Ry     beta= 0.10
     Davidson diagonalization with overlap
     ethr =  2.07E-05,  avg # of iterations =  1.8

     negative rho (up, down):  5.746E-03 5.707E-03

     total cpu time spent up to now is     4771.9 secs

     total energy              =  -10532.48113028 Ry
     estimated scf accuracy    <       0.12156822 Ry

     total magnetization       =    -0.26 Bohr mag/cell
     absolute magnetization    =   108.80 Bohr mag/cell

     iteration # 16     ecut=    71.00 Ry     beta= 0.10
     Davidson diagonalization with overlap
     ethr =  2.07E-05,  avg # of iterations =  1.2

     negative rho (up, down):  5.738E-03 5.691E-03

     total cpu time spent up to now is     5021.1 secs

     total energy              =  -10532.47337725 Ry
     estimated scf accuracy    <       0.14168736 Ry

     total magnetization       =    -0.45 Bohr mag/cell
     absolute magnetization    =   108.85 Bohr mag/cell

     iteration # 17     ecut=    71.00 Ry     beta= 0.10
     Davidson diagonalization with overlap
     ethr =  2.07E-05,  avg # of iterations =  1.1

     negative rho (up, down):  5.736E-03 5.695E-03

     total cpu time spent up to now is     5267.3 secs

     total energy              =  -10532.47521345 Ry
     estimated scf accuracy    <       0.03518412 Ry

     total magnetization       =     0.33 Bohr mag/cell
     absolute magnetization    =   108.94 Bohr mag/cell

     iteration # 18     ecut=    71.00 Ry     beta= 0.10
     Davidson diagonalization with overlap
     ethr =  6.87E-06,  avg # of iterations =  2.0

     negative rho (up, down):  5.757E-03 5.720E-03

     total cpu time spent up to now is     5541.4 secs

     total energy              =  -10532.47444679 Ry
     estimated scf accuracy    <       0.00988804 Ry

     total magnetization       =     0.03 Bohr mag/cell
     absolute magnetization    =   109.00 Bohr mag/cell

     iteration # 19     ecut=    71.00 Ry     beta= 0.10
     Davidson diagonalization with overlap
     c_bands:  1 eigenvalues not converged
     c_bands:  1 eigenvalues not converged
     c_bands:  1 eigenvalues not converged
     c_bands:  1 eigenvalues not converged
     ethr =  1.93E-06,  avg # of iterations =  6.3

     negative rho (up, down):  5.701E-03 5.669E-03

     total cpu time spent up to now is     5852.0 secs

     total energy              =  -10532.47191924 Ry
     estimated scf accuracy    <       0.00963112 Ry

     total magnetization       =    -0.12 Bohr mag/cell
     absolute magnetization    =   109.12 Bohr mag/cell

     iteration # 20     ecut=    71.00 Ry     beta= 0.10
     Davidson diagonalization with overlap
     ethr =  1.88E-06,  avg # of iterations =  3.3

     negative rho (up, down):  5.423E-03 5.396E-03

     total cpu time spent up to now is     6143.5 secs

     total energy              =  -10532.47083062 Ry
     estimated scf accuracy    <       0.00471662 Ry

     total magnetization       =    -0.16 Bohr mag/cell
     absolute magnetization    =   109.28 Bohr mag/cell

     iteration # 21     ecut=    71.00 Ry     beta= 0.10
     Davidson diagonalization with overlap
     ethr =  9.21E-07,  avg # of iterations =  4.4

     negative rho (up, down):  5.160E-03 5.139E-03

     total cpu time spent up to now is     6466.1 secs

     total energy              =  -10532.47099512 Ry
     estimated scf accuracy    <       0.00510365 Ry

     total magnetization       =     0.04 Bohr mag/cell
     absolute magnetization    =   109.21 Bohr mag/cell

     iteration # 22     ecut=    71.00 Ry     beta= 0.10
     Davidson diagonalization with overlap
     ethr =  9.21E-07,  avg # of iterations =  3.1

     negative rho (up, down):  5.081E-03 5.063E-03

     total cpu time spent up to now is     6767.1 secs

     total energy              =  -10532.47135662 Ry
     estimated scf accuracy    <       0.00166542 Ry

     total magnetization       =     0.07 Bohr mag/cell
     absolute magnetization    =   109.07 Bohr mag/cell

     iteration # 23     ecut=    71.00 Ry     beta= 0.10
     Davidson diagonalization with overlap
     ethr =  3.25E-07,  avg # of iterations =  6.4

     negative rho (up, down):  5.061E-03 5.045E-03

     total cpu time spent up to now is     7153.5 secs

     total energy              =  -10532.47158899 Ry
     estimated scf accuracy    <       0.00296222 Ry

     total magnetization       =    -0.06 Bohr mag/cell
     absolute magnetization    =   108.84 Bohr mag/cell

     iteration # 24     ecut=    71.00 Ry     beta= 0.10
     Davidson diagonalization with overlap
     ethr =  3.25E-07,  avg # of iterations =  2.1

     negative rho (up, down):  4.978E-03 4.964E-03

     total cpu time spent up to now is     7438.7 secs

     total energy              =  -10532.47185018 Ry
     estimated scf accuracy    <       0.00070184 Ry

     total magnetization       =    -0.03 Bohr mag/cell
     absolute magnetization    =   108.90 Bohr mag/cell

     iteration # 25     ecut=    71.00 Ry     beta= 0.10
     Davidson diagonalization with overlap
     ethr =  1.37E-07,  avg # of iterations =  2.2

     negative rho (up, down):  4.962E-03 4.948E-03

     total cpu time spent up to now is     7722.1 secs

     total energy              =  -10532.47197129 Ry
     estimated scf accuracy    <       0.00068853 Ry

     total magnetization       =     0.01 Bohr mag/cell
     absolute magnetization    =   108.85 Bohr mag/cell

     iteration # 26     ecut=    71.00 Ry     beta= 0.10
     Davidson diagonalization with overlap
     ethr =  1.34E-07,  avg # of iterations =  1.1

     negative rho (up, down):  4.928E-03 4.916E-03

     total cpu time spent up to now is     7968.0 secs

     total energy              =  -10532.47212475 Ry
     estimated scf accuracy    <       0.00054509 Ry

     total magnetization       =     0.03 Bohr mag/cell
     absolute magnetization    =   108.84 Bohr mag/cell

     iteration # 27     ecut=    71.00 Ry     beta= 0.10
     Davidson diagonalization with overlap
     ethr =  1.06E-07,  avg # of iterations =  2.2

     negative rho (up, down):  4.908E-03 4.898E-03

     total cpu time spent up to now is     8244.5 secs

     total energy              =  -10532.47221255 Ry
     estimated scf accuracy    <       0.00058709 Ry

     total magnetization       =     0.03 Bohr mag/cell
     absolute magnetization    =   108.83 Bohr mag/cell

     iteration # 28     ecut=    71.00 Ry     beta= 0.10
     Davidson diagonalization with overlap
     ethr =  1.06E-07,  avg # of iterations =  1.1

     negative rho (up, down):  4.896E-03 4.887E-03

     total cpu time spent up to now is     8495.3 secs

     total energy              =  -10532.47227062 Ry
     estimated scf accuracy    <       0.00054064 Ry

     total magnetization       =     0.02 Bohr mag/cell
     absolute magnetization    =   108.83 Bohr mag/cell

     iteration # 29     ecut=    71.00 Ry     beta= 0.10
     Davidson diagonalization with overlap
     ethr =  1.06E-07,  avg # of iterations =  1.0

     negative rho (up, down):  4.878E-03 4.873E-03

     total cpu time spent up to now is     8739.0 secs

     total energy              =  -10532.47244774 Ry
     estimated scf accuracy    <       0.00037591 Ry

     total magnetization       =     0.04 Bohr mag/cell
     absolute magnetization    =   108.82 Bohr mag/cell

     iteration # 30     ecut=    71.00 Ry     beta= 0.10
     Davidson diagonalization with overlap
     ethr =  7.34E-08,  avg # of iterations =  3.4

     negative rho (up, down):  4.885E-03 4.884E-03

     total cpu time spent up to now is     9027.9 secs

     total energy              =  -10532.47258863 Ry
     estimated scf accuracy    <       0.00044109 Ry

     total magnetization       =    -0.01 Bohr mag/cell
     absolute magnetization    =   108.83 Bohr mag/cell

     iteration # 31     ecut=    71.00 Ry     beta= 0.10
     Davidson diagonalization with overlap
     ethr =  7.34E-08,  avg # of iterations =  5.9

     negative rho (up, down):  4.900E-03 4.897E-03

     total cpu time spent up to now is     9369.4 secs

     total energy              =  -10532.47259218 Ry
     estimated scf accuracy    <       0.00064300 Ry

     total magnetization       =    -0.04 Bohr mag/cell
     absolute magnetization    =   108.87 Bohr mag/cell

     iteration # 32     ecut=    71.00 Ry     beta= 0.10
     Davidson diagonalization with overlap
     ethr =  7.34E-08,  avg # of iterations =  1.7

     negative rho (up, down):  4.891E-03 4.890E-03

     total cpu time spent up to now is     9634.9 secs

     total energy              =  -10532.47265209 Ry
     estimated scf accuracy    <       0.00010411 Ry

     total magnetization       =     0.04 Bohr mag/cell
     absolute magnetization    =   108.88 Bohr mag/cell

     iteration # 33     ecut=    71.00 Ry     beta= 0.10
     Davidson diagonalization with overlap
     ethr =  2.03E-08,  avg # of iterations =  5.9

     negative rho (up, down):  4.879E-03 4.880E-03

     total cpu time spent up to now is     9960.5 secs

     total energy              =  -10532.47267683 Ry
     estimated scf accuracy    <       0.00005932 Ry

     total magnetization       =    -0.01 Bohr mag/cell
     absolute magnetization    =   108.89 Bohr mag/cell

     iteration # 34     ecut=    71.00 Ry     beta= 0.10
     Davidson diagonalization with overlap
     ethr =  1.16E-08,  avg # of iterations =  5.5

     negative rho (up, down):  4.882E-03 4.882E-03

     total cpu time spent up to now is    10278.3 secs

     total energy              =  -10532.47267346 Ry
     estimated scf accuracy    <       0.00005193 Ry

     total magnetization       =    -0.01 Bohr mag/cell
     absolute magnetization    =   108.90 Bohr mag/cell

     iteration # 35     ecut=    71.00 Ry     beta= 0.10
     Davidson diagonalization with overlap
     ethr =  1.01E-08,  avg # of iterations =  1.5

     negative rho (up, down):  4.887E-03 4.887E-03

     total cpu time spent up to now is    10541.1 secs

     total energy              =  -10532.47268730 Ry
     estimated scf accuracy    <       0.00004150 Ry

     total magnetization       =     0.02 Bohr mag/cell
     absolute magnetization    =   108.89 Bohr mag/cell

     iteration # 36     ecut=    71.00 Ry     beta= 0.10
     Davidson diagonalization with overlap
     ethr =  8.11E-09,  avg # of iterations =  4.6

     negative rho (up, down):  4.883E-03 4.884E-03

     total cpu time spent up to now is    10836.8 secs

     total energy              =  -10532.47269505 Ry
     estimated scf accuracy    <       0.00002785 Ry

     total magnetization       =     0.01 Bohr mag/cell
     absolute magnetization    =   108.91 Bohr mag/cell

     iteration # 37     ecut=    71.00 Ry     beta= 0.10
     Davidson diagonalization with overlap
     ethr =  5.44E-09,  avg # of iterations =  5.1

     negative rho (up, down):  4.884E-03 4.885E-03

     total cpu time spent up to now is    11139.8 secs

     total energy              =  -10532.47269840 Ry
     estimated scf accuracy    <       0.00002107 Ry

     total magnetization       =    -0.00 Bohr mag/cell
     absolute magnetization    =   108.91 Bohr mag/cell

     iteration # 38     ecut=    71.00 Ry     beta= 0.10
     Davidson diagonalization with overlap
     ethr =  4.11E-09,  avg # of iterations =  4.8

     negative rho (up, down):  4.894E-03 4.894E-03

     total cpu time spent up to now is    11439.6 secs

     total energy              =  -10532.47270114 Ry
     estimated scf accuracy    <       0.00002398 Ry

     total magnetization       =     0.00 Bohr mag/cell
     absolute magnetization    =   108.91 Bohr mag/cell

     iteration # 39     ecut=    71.00 Ry     beta= 0.10
     Davidson diagonalization with overlap
     ethr =  4.11E-09,  avg # of iterations =  2.6

     negative rho (up, down):  4.896E-03 4.897E-03

     total cpu time spent up to now is    11717.0 secs

     total energy              =  -10532.47270271 Ry
     estimated scf accuracy    <       0.00000958 Ry

     total magnetization       =    -0.00 Bohr mag/cell
     absolute magnetization    =   108.92 Bohr mag/cell

     iteration # 40     ecut=    71.00 Ry     beta= 0.10
     Davidson diagonalization with overlap
     ethr =  1.87E-09,  avg # of iterations =  5.4

     negative rho (up, down):  4.900E-03 4.900E-03

     total cpu time spent up to now is    12019.1 secs

     total energy              =  -10532.47270658 Ry
     estimated scf accuracy    <       0.00000718 Ry

     total magnetization       =     0.00 Bohr mag/cell
     absolute magnetization    =   108.92 Bohr mag/cell

     iteration # 41     ecut=    71.00 Ry     beta= 0.10
     Davidson diagonalization with overlap
     ethr =  1.40E-09,  avg # of iterations =  6.5

     negative rho (up, down):  4.901E-03 4.901E-03

     total cpu time spent up to now is    12345.2 secs

     total energy              =  -10532.47270721 Ry
     estimated scf accuracy    <       0.00001944 Ry

     total magnetization       =    -0.00 Bohr mag/cell
     absolute magnetization    =   108.92 Bohr mag/cell

     iteration # 42     ecut=    71.00 Ry     beta= 0.10
     Davidson diagonalization with overlap
     ethr =  1.40E-09,  avg # of iterations =  1.6

     negative rho (up, down):  4.900E-03 4.900E-03

     total cpu time spent up to now is    12600.3 secs

     total energy              =  -10532.47270776 Ry
     estimated scf accuracy    <       0.00000672 Ry

     total magnetization       =     0.00 Bohr mag/cell
     absolute magnetization    =   108.92 Bohr mag/cell

     iteration # 43     ecut=    71.00 Ry     beta= 0.10
     Davidson diagonalization with overlap
     ethr =  1.31E-09,  avg # of iterations =  1.8

     negative rho (up, down):  4.901E-03 4.902E-03

     total cpu time spent up to now is    12867.9 secs

     total energy              =  -10532.47271028 Ry
     estimated scf accuracy    <       0.00001259 Ry

     total magnetization       =     0.00 Bohr mag/cell
     absolute magnetization    =   108.92 Bohr mag/cell

     iteration # 44     ecut=    71.00 Ry     beta= 0.10
     Davidson diagonalization with overlap
     ethr =  1.31E-09,  avg # of iterations =  6.5

     negative rho (up, down):  4.901E-03 4.902E-03

     total cpu time spent up to now is    13225.3 secs

     total energy              =  -10532.47271379 Ry
     estimated scf accuracy    <       0.00000441 Ry

     total magnetization       =    -0.00 Bohr mag/cell
     absolute magnetization    =   108.92 Bohr mag/cell

     iteration # 45     ecut=    71.00 Ry     beta= 0.10
     Davidson diagonalization with overlap
     ethr =  8.61E-10,  avg # of iterations =  2.4

     negative rho (up, down):  4.903E-03 4.903E-03

     total cpu time spent up to now is    13506.5 secs

     total energy              =  -10532.47271456 Ry
     estimated scf accuracy    <       0.00000212 Ry

     total magnetization       =     0.00 Bohr mag/cell
     absolute magnetization    =   108.92 Bohr mag/cell

     iteration # 46     ecut=    71.00 Ry     beta= 0.10
     Davidson diagonalization with overlap
     ethr =  4.13E-10,  avg # of iterations =  3.7

     negative rho (up, down):  4.904E-03 4.904E-03

     total cpu time spent up to now is    13791.4 secs

     total energy              =  -10532.47271519 Ry
     estimated scf accuracy    <       0.00000213 Ry

     total magnetization       =     0.00 Bohr mag/cell
     absolute magnetization    =   108.92 Bohr mag/cell

     iteration # 47     ecut=    71.00 Ry     beta= 0.10
     Davidson diagonalization with overlap
     ethr =  4.13E-10,  avg # of iterations =  4.9

     negative rho (up, down):  4.904E-03 4.904E-03

     total cpu time spent up to now is    14087.2 secs

     total energy              =  -10532.47271579 Ry
     estimated scf accuracy    <       0.00000236 Ry

     total magnetization       =     0.00 Bohr mag/cell
     absolute magnetization    =   108.92 Bohr mag/cell

     iteration # 48     ecut=    71.00 Ry     beta= 0.10
     Davidson diagonalization with overlap
     ethr =  4.13E-10,  avg # of iterations =  5.6

     negative rho (up, down):  4.905E-03 4.905E-03

     total cpu time spent up to now is    14403.8 secs

     total energy              =  -10532.47271631 Ry
     estimated scf accuracy    <       0.00000130 Ry

     total magnetization       =    -0.00 Bohr mag/cell
     absolute magnetization    =   108.92 Bohr mag/cell

     iteration # 49     ecut=    71.00 Ry     beta= 0.10
     Davidson diagonalization with overlap
     ethr =  2.53E-10,  avg # of iterations =  6.5

     negative rho (up, down):  4.905E-03 4.905E-03

     total cpu time spent up to now is    14841.7 secs

     total energy              =  -10532.47271659 Ry
     estimated scf accuracy    <       0.00000234 Ry

     total magnetization       =     0.00 Bohr mag/cell
     absolute magnetization    =   108.91 Bohr mag/cell

     iteration # 50     ecut=    71.00 Ry     beta= 0.10
     Davidson diagonalization with overlap
     ethr =  2.53E-10,  avg # of iterations =  3.9

     negative rho (up, down):  4.905E-03 4.905E-03
 
     Magnetic moment per site:
     atom:    1    charge:   14.9012    magn:    3.3237    constr:    0.0000
     atom:    2    charge:   14.9014    magn:   -3.3235    constr:    0.0000
     atom:    3    charge:   14.9012    magn:    3.3237    constr:    0.0000
     atom:    4    charge:   14.9014    magn:   -3.3235    constr:    0.0000
     atom:    5    charge:   14.9012    magn:    3.3237    constr:    0.0000
     atom:    6    charge:   14.9013    magn:   -3.3236    constr:    0.0000
     atom:    7    charge:   14.9012    magn:    3.3237    constr:    0.0000
     atom:    8    charge:   14.9014    magn:   -3.3235    constr:    0.0000
     atom:    9    charge:   14.9015    magn:    3.3234    constr:    0.0000
     atom:   10    charge:   14.9014    magn:   -3.3235    constr:    0.0000
     atom:   11    charge:   14.9013    magn:    3.3236    constr:    0.0000
     atom:   12    charge:   14.9014    magn:   -3.3235    constr:    0.0000
     atom:   13    charge:   14.9014    magn:    3.3236    constr:    0.0000
     atom:   14    charge:   14.9013    magn:   -3.3236    constr:    0.0000
     atom:   15    charge:   14.9013    magn:    3.3236    constr:    0.0000
     atom:   16    charge:   14.9014    magn:   -3.3235    constr:    0.0000
     atom:   17    charge:   14.9012    magn:    3.3237    constr:    0.0000
     atom:   18    charge:   14.9014    magn:   -3.3235    constr:    0.0000
     atom:   19    charge:   14.9012    magn:    3.3237    constr:    0.0000
     atom:   20    charge:   14.9010    magn:   -3.3238    constr:    0.0000
     atom:   21    charge:   14.9011    magn:    3.3238    constr:    0.0000
     atom:   22    charge:   14.9013    magn:   -3.3236    constr:    0.0000
     atom:   23    charge:   14.9012    magn:    3.3237    constr:    0.0000
     atom:   24    charge:   14.9010    magn:   -3.3238    constr:    0.0000
     atom:   25    charge:   14.9011    magn:    3.3238    constr:    0.0000
     atom:   26    charge:   14.9014    magn:   -3.3235    constr:    0.0000
     atom:   27    charge:   14.9013    magn:    3.3236    constr:    0.0000
     atom:   28    charge:   14.9010    magn:   -3.3238    constr:    0.0000
     atom:   29    charge:   14.9012    magn:    3.3237    constr:    0.0000
     atom:   30    charge:   14.9013    magn:   -3.3236    constr:    0.0000
     atom:   31    charge:   14.9013    magn:    3.3236    constr:    0.0000
     atom:   32    charge:   14.9010    magn:   -3.3238    constr:    0.0000

     total cpu time spent up to now is    15131.7 secs

     End of self-consistent calculation

     Number of k-points >= 100: set verbosity='high' to print the bands.

     the Fermi energy is     8.1464 ev

!    total energy              =  -10532.47271656 Ry

     total all-electron energy =    -81453.961774 Ry
     estimated scf accuracy    <       0.00000090 Ry
     smearing contrib. (-TS)   =      -0.17874178 Ry
     internal energy E=F+TS    =  -10532.29397478 Ry

     The total energy is F=E-TS. E is the sum of the following terms:
     one-electron contribution =   -5337.37246985 Ry
     hartree contribution      =    2791.80597603 Ry
     xc contribution           =    -881.61485967 Ry
     ewald contribution        =   -4456.14674473 Ry
     one-center paw contrib.   =   -2648.96587656 Ry

     total magnetization       =     0.00 Bohr mag/cell
     absolute magnetization    =   108.91 Bohr mag/cell

     convergence has been achieved in  50 iterations

     negative rho (up, down):  4.905E-03 4.905E-03

     Forces acting on atoms (cartesian axes, Ry/au):

     atom    1 type  1   force =     0.00000000    0.00000000    0.00000000
     atom    2 type  2   force =     0.00010093   -0.00000795   -0.00000000
     atom    3 type  3   force =     0.00006333    0.00000000   -0.00006090
     atom    4 type  4   force =     0.00000000   -0.00007130    0.00000114
     atom    5 type  1   force =     0.00000000    0.00000000    0.00000000
     atom    6 type  2   force =     0.00003015   -0.00001179    0.00000000
     atom    7 type  3   force =     0.00006333    0.00000000    0.00006090
     atom    8 type  4   force =     0.00000000   -0.00007130   -0.00000114
     atom    9 type  1   force =     0.00000000    0.00000000    0.00000000
     atom   10 type  2   force =     0.00010093    0.00000795   -0.00000000
     atom   11 type  3   force =     0.00013659    0.00000000   -0.00001430
     atom   12 type  4   force =     0.00000000    0.00007130    0.00000114
     atom   13 type  1   force =     0.00000000    0.00000000    0.00000000
     atom   14 type  2   force =     0.00003015    0.00001179    0.00000000
     atom   15 type  3   force =     0.00013659    0.00000000    0.00001430
     atom   16 type  4   force =     0.00000000    0.00007130   -0.00000114
     atom   17 type  1   force =     0.00000000    0.00000000    0.00000000
     atom   18 type  2   force =    -0.00010093   -0.00000795   -0.00000000
     atom   19 type  3   force =    -0.00006333    0.00000000   -0.00006090
     atom   20 type  4   force =     0.00000000   -0.00006427    0.00008272
     atom   21 type  1   force =     0.00000000    0.00000000    0.00000000
     atom   22 type  2   force =    -0.00003015   -0.00001179    0.00000000
     atom   23 type  3   force =    -0.00006333    0.00000000    0.00006090
     atom   24 type  4   force =     0.00000000   -0.00006427   -0.00008272
     atom   25 type  1   force =     0.00000000    0.00000000    0.00000000
     atom   26 type  2   force =    -0.00010093    0.00000795   -0.00000000
     atom   27 type  3   force =    -0.00013659    0.00000000   -0.00001430
     atom   28 type  4   force =     0.00000000    0.00006427    0.00008272
     atom   29 type  1   force =     0.00000000    0.00000000    0.00000000
     atom   30 type  2   force =    -0.00003015    0.00001179   -0.00000000
     atom   31 type  3   force =    -0.00013659    0.00000000    0.00001430
     atom   32 type  4   force =     0.00000000    0.00006427   -0.00008272

     Total force =     0.000464     Total SCF correction =     0.003965
     SCF correction compared to forces is large: reduce conv_thr to get better values


     Computing stress (Cartesian axis) and pressure


     negative rho (up, down):  4.905E-03 4.905E-03
          total   stress  (Ry/bohr**3)                   (kbar)     P=     -250.43
  -0.00175557   0.00000000   0.00000000         -258.25        0.00        0.00
   0.00000000  -0.00159604   0.00000000            0.00     -234.79        0.00
   0.00000000   0.00000000  -0.00175563            0.00        0.00     -258.26


     Writing output data file /scratch/bxp912/fecohfcc128.save/
 
     init_run     :    111.64s CPU    114.05s WALL (       1 calls)
     electrons    :  14705.95s CPU  15015.46s WALL (       1 calls)
     forces       :     46.96s CPU     47.37s WALL (       1 calls)
     stress       :    413.96s CPU    417.01s WALL (       1 calls)

     Called by init_run:
     wfcinit      :    110.09s CPU    112.39s WALL (       1 calls)
     potinit      :      0.45s CPU      0.48s WALL (       1 calls)
     hinit0       :      0.68s CPU      0.69s WALL (       1 calls)

     Called by electrons:
     c_bands      :  12851.51s CPU  13127.18s WALL (      51 calls)
     sum_band     :   1833.39s CPU   1865.42s WALL (      51 calls)
     v_of_rho     :      2.74s CPU      2.89s WALL (      51 calls)
     newd         :      7.34s CPU      8.50s WALL (      51 calls)
     PAW_pot      :      9.47s CPU      9.85s WALL (      51 calls)
     mix_rho      :      0.73s CPU      0.84s WALL (      51 calls)

     Called by c_bands:
     init_us_2    :     88.08s CPU     88.97s WALL (   26250 calls)
     cegterg      :  12538.41s CPU  12681.91s WALL (   12750 calls)

     Called by *egterg:
     cdiaghg      :   1236.34s CPU   1244.73s WALL (   56102 calls)
     h_psi        :   6718.45s CPU   6810.94s WALL (   56602 calls)
     s_psi        :    602.56s CPU    606.63s WALL (   56602 calls)
     g_psi        :     16.82s CPU     17.11s WALL (   43602 calls)

     Called by h_psi:
     h_psi:calbec :    982.10s CPU    989.04s WALL (   56602 calls)
     vloc_psi     :   5089.01s CPU   5169.77s WALL (   56602 calls)
     add_vuspsi   :    606.36s CPU    610.76s WALL (   56602 calls)

     General routines
     calbec       :   1496.01s CPU   1506.75s WALL (   70602 calls)
     fft          :      3.03s CPU      3.09s WALL (    1315 calls)
     ffts         :      0.22s CPU      0.23s WALL (     204 calls)
     fftw         :   6118.52s CPU   6215.86s WALL (20429146 calls)
     interpolate  :      0.70s CPU      0.71s WALL (     102 calls)
 
     Parallel routines
     fft_scatt_xy :    536.78s CPU    543.77s WALL (20430665 calls)
     fft_scatt_yz :   4603.64s CPU   4682.17s WALL (20430665 calls)
 
     PWSCF        :      4h15m CPU      4h21m WALL

 
   This run was terminated on:  18:28: 5   2Dec2021            

=------------------------------------------------------------------------------=
   JOB DONE.
=------------------------------------------------------------------------------=
