
     Program PWSCF v.6.7MaX starts on 20May2022 at  8:50:35 

     This program is part of the open-source Quantum ESPRESSO suite
     for quantum simulation of materials; please cite
         "P. Giannozzi et al., J. Phys.:Condens. Matter 21 395502 (2009);
         "P. Giannozzi et al., J. Phys.:Condens. Matter 29 465901 (2017);
          URL http://www.quantum-espresso.org", 
     in publications or presentations arising from this work. More details at
     http://www.quantum-espresso.org/quote

     Parallel version (MPI & OpenMP), running on      72 processor cores
     Number of MPI processes:                72
     Threads/MPI process:                     1

     MPI processes distributed on     1 nodes
     R & G space division:  proc/nbgrp/npool/nimage =      72
     Reading input from fepd_01.in
Warning: card &CELL ignored
Warning: card CELL_DYNAMICS = 'BFGS', ignored
Warning: card CELL_FACTOR = 2.0, ignored
Warning: card PRESS = 0.0, ignored
Warning: card / ignored

     Current dimensions of program PWSCF are:
     Max number of different atomic species (ntypx) = 10
     Max number of k-points (npk) =  40000
     Max angular momentum in pseudopotentials (lmaxx) =  3
     file Fe.pbe-spn-kjpaw_psl.1.0.0.UPF: wavefunction(s)  3P 3D renormalized
     file Fe.pbe-spn-kjpaw_psl.1.0.0.UPF: wavefunction(s)  3P 3D renormalized
     file Pd.pbe-spn-kjpaw_psl.1.0.0.UPF: wavefunction(s)  4S 5S 4D renormalized

     Subspace diagonalization in iterative solution of the eigenvalue problem:
     one sub-group per band group will be used
     ELPA distributed-memory algorithm (size of sub-group:  8*  8 procs)

     Message from routine setup:
     using ibrav=0 with symmetry is DISCOURAGED, use correct ibrav instead
 
     Parallelization info
     --------------------
     sticks:   dense  smooth     PW     G-vecs:    dense   smooth      PW
     Min          84      55     15                 4857     2605     375
     Max          86      56     16                 4863     2614     380
     Sum        6115    4025   1119               349955   187945   27183
 


     bravais-lattice index     =            0
     lattice parameter (alat)  =      13.0175  a.u.
     unit-cell volume          =    2324.7211 (a.u.)^3
     number of atoms/cell      =           32
     number of atomic types    =            3
     number of electrons       =       514.00
     number of Kohn-Sham states=          308
     kinetic-energy cutoff     =      71.0000  Ry
     charge density cutoff     =     430.0000  Ry
     scf convergence threshold =      1.0E-08
     mixing beta               =       0.3000
     number of iterations used =           10  local-TF  mixing
     Exchange-correlation= SLA  PW   PBX  PBC
                           (   1   4   3   4   0   0   0)

     celldm(1)=  13.017474  celldm(2)=   0.000000  celldm(3)=   0.000000
     celldm(4)=   0.000000  celldm(5)=   0.000000  celldm(6)=   0.000000

     crystal axes: (cart. coord. in units of alat)
               a(1) = (   1.000000   0.000000   0.000000 )  
               a(2) = (   0.000000   1.053879   0.000000 )  
               a(3) = (   0.000000   0.000000   1.000000 )  

     reciprocal axes: (cart. coord. in units 2 pi/alat)
               b(1) = (  1.000000  0.000000  0.000000 )  
               b(2) = (  0.000000  0.948876  0.000000 )  
               b(3) = (  0.000000  0.000000  1.000000 )  


     PseudoPot. # 1 for Fe read from file:
     /rds/homes/b/bxp912/pp/Fe.pbe-spn-kjpaw_psl.1.0.0.UPF
     MD5 check sum: 42f43b795421b414b0dc916aa790dbcb
     Pseudo is Projector augmented-wave + core cor, Zval = 16.0
     Generated using &quot;atomic&quot; code by A. Dal Corso  v.6.3
     Shape of augmentation charge: PSQ
     Using radial grid of 1191 points,  6 beta functions with: 
                l(1) =   0
                l(2) =   0
                l(3) =   1
                l(4) =   1
                l(5) =   2
                l(6) =   2
     Q(r) pseudized with 0 coefficients 


     PseudoPot. # 2 for Fe read from file:
     /rds/homes/b/bxp912/pp/Fe.pbe-spn-kjpaw_psl.1.0.0.UPF
     MD5 check sum: 42f43b795421b414b0dc916aa790dbcb
     Pseudo is Projector augmented-wave + core cor, Zval = 16.0
     Generated using &quot;atomic&quot; code by A. Dal Corso  v.6.3
     Shape of augmentation charge: PSQ
     Using radial grid of 1191 points,  6 beta functions with: 
                l(1) =   0
                l(2) =   0
                l(3) =   1
                l(4) =   1
                l(5) =   2
                l(6) =   2
     Q(r) pseudized with 0 coefficients 


     PseudoPot. # 3 for Pd read from file:
     /rds/homes/b/bxp912/pp/Pd.pbe-spn-kjpaw_psl.1.0.0.UPF
     MD5 check sum: 790f2ebce206edfd9790dcb9844eca51
     Pseudo is Projector augmented-wave + core cor, Zval = 18.0
     Generated using &quot;atomic&quot; code by A. Dal Corso  v.6.3
     Shape of augmentation charge: PSQ
     Using radial grid of 1235 points,  6 beta functions with: 
                l(1) =   0
                l(2) =   0
                l(3) =   1
                l(4) =   1
                l(5) =   2
                l(6) =   2
     Q(r) pseudized with 0 coefficients 


     atomic species   valence    mass     pseudopotential
        Fe1           16.00    55.84500     Fe( 1.00)
        Fe2           16.00    55.84500     Fe( 1.00)
        Pd            18.00   106.42000     Pd( 1.00)

     Starting magnetic structure 
     atomic species   magnetization
        Fe1          0.100
        Fe2         -0.100
        Pd           0.010

     16 Sym. Ops., with inversion, found



   Cartesian axes

     site n.     atom                  positions (alat units)
         1           Pd  tau(   1) = (   0.0000000   0.0000000   0.0000000  )
         2           Fe2 tau(   2) = (   0.2552108   0.2689456   0.0000000  )
         3           Fe1 tau(   3) = (   0.2570288   0.0000000   0.2570288  )
         4           Fe2 tau(   4) = (   0.0000000   0.2689456   0.2552108  )
         5           Fe1 tau(   5) = (   0.0000000   0.0000000   0.5000000  )
         6           Fe2 tau(   6) = (   0.2504870   0.2644622   0.5000000  )
         7           Fe1 tau(   7) = (   0.2570288   0.0000000   0.7429712  )
         8           Fe2 tau(   8) = (   0.0000000   0.2689456   0.7447892  )
         9           Fe1 tau(   9) = (   0.0000000   0.5269394   0.0000000  )
        10           Fe2 tau(  10) = (   0.2552108   0.7849332   0.0000000  )
        11           Fe1 tau(  11) = (   0.2508487   0.5269394   0.2508487  )
        12           Fe2 tau(  12) = (   0.0000000   0.7849332   0.2552108  )
        13           Fe1 tau(  13) = (   0.0000000   0.5269394   0.5000000  )
        14           Fe2 tau(  14) = (   0.2504870   0.7894166   0.5000000  )
        15           Fe1 tau(  15) = (   0.2508487   0.5269394   0.7491513  )
        16           Fe2 tau(  16) = (   0.0000000   0.7849332   0.7447892  )
        17           Fe1 tau(  17) = (   0.5000000   0.0000000   0.0000000  )
        18           Fe2 tau(  18) = (   0.7447892   0.2689456   0.0000000  )
        19           Fe1 tau(  19) = (   0.7429712   0.0000000   0.2570288  )
        20           Fe2 tau(  20) = (   0.5000000   0.2644622   0.2504870  )
        21           Fe1 tau(  21) = (   0.5000000   0.0000000   0.5000000  )
        22           Fe2 tau(  22) = (   0.7495130   0.2644622   0.5000000  )
        23           Fe1 tau(  23) = (   0.7429712   0.0000000   0.7429712  )
        24           Fe2 tau(  24) = (   0.5000000   0.2644622   0.7495130  )
        25           Fe1 tau(  25) = (   0.5000000   0.5269394   0.0000000  )
        26           Fe2 tau(  26) = (   0.7447892   0.7849332   0.0000000  )
        27           Fe1 tau(  27) = (   0.7491513   0.5269394   0.2508487  )
        28           Fe2 tau(  28) = (   0.5000000   0.7894166   0.2504870  )
        29           Fe1 tau(  29) = (   0.5000000   0.5269394   0.5000000  )
        30           Fe2 tau(  30) = (   0.7495130   0.7894166   0.5000000  )
        31           Fe1 tau(  31) = (   0.7491513   0.5269394   0.7491513  )
        32           Fe2 tau(  32) = (   0.5000000   0.7894166   0.7495130  )

     number of k points=    75  Marzari-Vanderbilt smearing, width (Ry)=  0.0400
                       cart. coord. in units 2pi/alat
        k(    1) = (   0.0555556   0.0527153   0.0555556), wk =   0.0109739
        k(    2) = (   0.0555556   0.0527153   0.1666667), wk =   0.0219479
        k(    3) = (   0.0555556   0.0527153   0.2777778), wk =   0.0219479
        k(    4) = (   0.0555556   0.0527153   0.3888889), wk =   0.0219479
        k(    5) = (   0.0555556   0.0527153  -0.5000000), wk =   0.0109739
        k(    6) = (   0.0555556   0.1581459   0.0555556), wk =   0.0109739
        k(    7) = (   0.0555556   0.1581459   0.1666667), wk =   0.0219479
        k(    8) = (   0.0555556   0.1581459   0.2777778), wk =   0.0219479
        k(    9) = (   0.0555556   0.1581459   0.3888889), wk =   0.0219479
        k(   10) = (   0.0555556   0.1581459  -0.5000000), wk =   0.0109739
        k(   11) = (   0.0555556   0.2635766   0.0555556), wk =   0.0109739
        k(   12) = (   0.0555556   0.2635766   0.1666667), wk =   0.0219479
        k(   13) = (   0.0555556   0.2635766   0.2777778), wk =   0.0219479
        k(   14) = (   0.0555556   0.2635766   0.3888889), wk =   0.0219479
        k(   15) = (   0.0555556   0.2635766  -0.5000000), wk =   0.0109739
        k(   16) = (   0.0555556   0.3690072   0.0555556), wk =   0.0109739
        k(   17) = (   0.0555556   0.3690072   0.1666667), wk =   0.0219479
        k(   18) = (   0.0555556   0.3690072   0.2777778), wk =   0.0219479
        k(   19) = (   0.0555556   0.3690072   0.3888889), wk =   0.0219479
        k(   20) = (   0.0555556   0.3690072  -0.5000000), wk =   0.0109739
        k(   21) = (   0.0555556  -0.4744378   0.0555556), wk =   0.0054870
        k(   22) = (   0.0555556  -0.4744378   0.1666667), wk =   0.0109739
        k(   23) = (   0.0555556  -0.4744378   0.2777778), wk =   0.0109739
        k(   24) = (   0.0555556  -0.4744378   0.3888889), wk =   0.0109739
        k(   25) = (   0.0555556  -0.4744378  -0.5000000), wk =   0.0054870
        k(   26) = (   0.1666667   0.0527153   0.1666667), wk =   0.0109739
        k(   27) = (   0.1666667   0.0527153   0.2777778), wk =   0.0219479
        k(   28) = (   0.1666667   0.0527153   0.3888889), wk =   0.0219479
        k(   29) = (   0.1666667   0.0527153  -0.5000000), wk =   0.0109739
        k(   30) = (   0.1666667   0.1581459   0.1666667), wk =   0.0109739
        k(   31) = (   0.1666667   0.1581459   0.2777778), wk =   0.0219479
        k(   32) = (   0.1666667   0.1581459   0.3888889), wk =   0.0219479
        k(   33) = (   0.1666667   0.1581459  -0.5000000), wk =   0.0109739
        k(   34) = (   0.1666667   0.2635766   0.1666667), wk =   0.0109739
        k(   35) = (   0.1666667   0.2635766   0.2777778), wk =   0.0219479
        k(   36) = (   0.1666667   0.2635766   0.3888889), wk =   0.0219479
        k(   37) = (   0.1666667   0.2635766  -0.5000000), wk =   0.0109739
        k(   38) = (   0.1666667   0.3690072   0.1666667), wk =   0.0109739
        k(   39) = (   0.1666667   0.3690072   0.2777778), wk =   0.0219479
        k(   40) = (   0.1666667   0.3690072   0.3888889), wk =   0.0219479
        k(   41) = (   0.1666667   0.3690072  -0.5000000), wk =   0.0109739
        k(   42) = (   0.1666667  -0.4744378   0.1666667), wk =   0.0054870
        k(   43) = (   0.1666667  -0.4744378   0.2777778), wk =   0.0109739
        k(   44) = (   0.1666667  -0.4744378   0.3888889), wk =   0.0109739
        k(   45) = (   0.1666667  -0.4744378  -0.5000000), wk =   0.0054870
        k(   46) = (   0.2777778   0.0527153   0.2777778), wk =   0.0109739
        k(   47) = (   0.2777778   0.0527153   0.3888889), wk =   0.0219479
        k(   48) = (   0.2777778   0.0527153  -0.5000000), wk =   0.0109739
        k(   49) = (   0.2777778   0.1581459   0.2777778), wk =   0.0109739
        k(   50) = (   0.2777778   0.1581459   0.3888889), wk =   0.0219479
        k(   51) = (   0.2777778   0.1581459  -0.5000000), wk =   0.0109739
        k(   52) = (   0.2777778   0.2635766   0.2777778), wk =   0.0109739
        k(   53) = (   0.2777778   0.2635766   0.3888889), wk =   0.0219479
        k(   54) = (   0.2777778   0.2635766  -0.5000000), wk =   0.0109739
        k(   55) = (   0.2777778   0.3690072   0.2777778), wk =   0.0109739
        k(   56) = (   0.2777778   0.3690072   0.3888889), wk =   0.0219479
        k(   57) = (   0.2777778   0.3690072  -0.5000000), wk =   0.0109739
        k(   58) = (   0.2777778  -0.4744378   0.2777778), wk =   0.0054870
        k(   59) = (   0.2777778  -0.4744378   0.3888889), wk =   0.0109739
        k(   60) = (   0.2777778  -0.4744378  -0.5000000), wk =   0.0054870
        k(   61) = (   0.3888889   0.0527153   0.3888889), wk =   0.0109739
        k(   62) = (   0.3888889   0.0527153  -0.5000000), wk =   0.0109739
        k(   63) = (   0.3888889   0.1581459   0.3888889), wk =   0.0109739
        k(   64) = (   0.3888889   0.1581459  -0.5000000), wk =   0.0109739
        k(   65) = (   0.3888889   0.2635766   0.3888889), wk =   0.0109739
        k(   66) = (   0.3888889   0.2635766  -0.5000000), wk =   0.0109739
        k(   67) = (   0.3888889   0.3690072   0.3888889), wk =   0.0109739
        k(   68) = (   0.3888889   0.3690072  -0.5000000), wk =   0.0109739
        k(   69) = (   0.3888889  -0.4744378   0.3888889), wk =   0.0054870
        k(   70) = (   0.3888889  -0.4744378  -0.5000000), wk =   0.0054870
        k(   71) = (  -0.5000000   0.0527153  -0.5000000), wk =   0.0027435
        k(   72) = (  -0.5000000   0.1581459  -0.5000000), wk =   0.0027435
        k(   73) = (  -0.5000000   0.2635766  -0.5000000), wk =   0.0027435
        k(   74) = (  -0.5000000   0.3690072  -0.5000000), wk =   0.0027435
        k(   75) = (  -0.5000000  -0.4744378  -0.5000000), wk =   0.0013717

     Dense  grid:   349955 G-vectors     FFT dimensions: (  90,  96,  90)

     Smooth grid:   187945 G-vectors     FFT dimensions: (  72,  75,  72)

     Estimated max dynamical RAM per process >     262.82 MB

     Estimated total dynamical RAM >      18.48 GB

     Check: negative core charge=   -0.000006
     Generating pointlists ...
     new r_m :   0.1417 (alat units)  1.8451 (a.u.) for type    1
     new r_m :   0.1445 (alat units)  1.8808 (a.u.) for type    2
     new r_m :   0.1499 (alat units)  1.9519 (a.u.) for type    3

     Initial potential from superposition of free atoms

     starting charge  513.98605, renormalised to  514.00000
     Starting wfcs are  320 randomized atomic wfcs
     Checking if some PAW data can be deallocated... 

     total cpu time spent up to now is       36.0 secs

     Self-consistent Calculation

     iteration #  1     ecut=    71.00 Ry     beta= 0.30
     Davidson diagonalization with overlap
     ethr =  1.00E-02,  avg # of iterations =  3.0

     Threshold (ethr) on eigenvalues was too large:
     Diagonalizing with lowered threshold

     Davidson diagonalization with overlap
     ethr =  2.03E-04,  avg # of iterations =  6.4

     total cpu time spent up to now is      301.5 secs

     total energy              =  -10718.88713266 Ry
     estimated scf accuracy    <       1.85311844 Ry

     total magnetization       =    -1.63 Bohr mag/cell
     absolute magnetization    =    43.72 Bohr mag/cell

     iteration #  2     ecut=    71.00 Ry     beta= 0.30
     Davidson diagonalization with overlap
     ethr =  3.61E-04,  avg # of iterations =  1.1

     total cpu time spent up to now is      391.4 secs

     total energy              =  -10718.85176796 Ry
     estimated scf accuracy    <       0.69550883 Ry

     total magnetization       =    -1.75 Bohr mag/cell
     absolute magnetization    =    44.73 Bohr mag/cell

     iteration #  3     ecut=    71.00 Ry     beta= 0.30
     Davidson diagonalization with overlap
     ethr =  1.35E-04,  avg # of iterations =  2.3

     total cpu time spent up to now is      498.2 secs

     total energy              =  -10718.88754183 Ry
     estimated scf accuracy    <       0.66611645 Ry

     total magnetization       =    -1.76 Bohr mag/cell
     absolute magnetization    =    45.58 Bohr mag/cell

     iteration #  4     ecut=    71.00 Ry     beta= 0.30
     Davidson diagonalization with overlap
     ethr =  1.30E-04,  avg # of iterations =  2.0

     total cpu time spent up to now is      597.9 secs

     total energy              =  -10718.93504949 Ry
     estimated scf accuracy    <       0.06822388 Ry

     total magnetization       =    -1.91 Bohr mag/cell
     absolute magnetization    =    46.42 Bohr mag/cell

     iteration #  5     ecut=    71.00 Ry     beta= 0.30
     Davidson diagonalization with overlap
     c_bands:  1 eigenvalues not converged
     ethr =  1.33E-05,  avg # of iterations =  4.7

     total cpu time spent up to now is      715.6 secs

     total energy              =  -10718.95595757 Ry
     estimated scf accuracy    <       0.05973806 Ry

     total magnetization       =    -1.91 Bohr mag/cell
     absolute magnetization    =    46.72 Bohr mag/cell

     iteration #  6     ecut=    71.00 Ry     beta= 0.30
     Davidson diagonalization with overlap
     ethr =  1.16E-05,  avg # of iterations =  2.0

     total cpu time spent up to now is      817.6 secs

     total energy              =  -10718.96755618 Ry
     estimated scf accuracy    <       0.01601750 Ry

     total magnetization       =    -2.04 Bohr mag/cell
     absolute magnetization    =    47.32 Bohr mag/cell

     iteration #  7     ecut=    71.00 Ry     beta= 0.30
     Davidson diagonalization with overlap
     c_bands:  1 eigenvalues not converged
     c_bands:  1 eigenvalues not converged
     ethr =  3.12E-06,  avg # of iterations =  4.7

     total cpu time spent up to now is      933.3 secs

     total energy              =  -10718.97215608 Ry
     estimated scf accuracy    <       0.00777922 Ry

     total magnetization       =    -2.10 Bohr mag/cell
     absolute magnetization    =    47.77 Bohr mag/cell

     iteration #  8     ecut=    71.00 Ry     beta= 0.30
     Davidson diagonalization with overlap
     c_bands:  1 eigenvalues not converged
     c_bands:  2 eigenvalues not converged
     ethr =  1.51E-06,  avg # of iterations =  4.4

     total cpu time spent up to now is     1059.9 secs

     total energy              =  -10718.97421485 Ry
     estimated scf accuracy    <       0.00242460 Ry

     total magnetization       =    -2.18 Bohr mag/cell
     absolute magnetization    =    48.33 Bohr mag/cell

     iteration #  9     ecut=    71.00 Ry     beta= 0.30
     Davidson diagonalization with overlap
     ethr =  4.72E-07,  avg # of iterations =  4.0

     total cpu time spent up to now is     1169.9 secs

     total energy              =  -10718.97466517 Ry
     estimated scf accuracy    <       0.00169081 Ry

     total magnetization       =    -2.22 Bohr mag/cell
     absolute magnetization    =    48.63 Bohr mag/cell

     iteration # 10     ecut=    71.00 Ry     beta= 0.30
     Davidson diagonalization with overlap
     ethr =  3.29E-07,  avg # of iterations =  2.0

     total cpu time spent up to now is     1269.4 secs

     total energy              =  -10718.97507267 Ry
     estimated scf accuracy    <       0.00077931 Ry

     total magnetization       =    -2.25 Bohr mag/cell
     absolute magnetization    =    48.79 Bohr mag/cell

     iteration # 11     ecut=    71.00 Ry     beta= 0.30
     Davidson diagonalization with overlap
     ethr =  1.52E-07,  avg # of iterations =  3.0

     total cpu time spent up to now is     1377.8 secs

     total energy              =  -10718.97540832 Ry
     estimated scf accuracy    <       0.00046505 Ry

     total magnetization       =    -2.31 Bohr mag/cell
     absolute magnetization    =    49.06 Bohr mag/cell

     iteration # 12     ecut=    71.00 Ry     beta= 0.30
     Davidson diagonalization with overlap
     c_bands:  1 eigenvalues not converged
     ethr =  9.05E-08,  avg # of iterations =  4.8

     total cpu time spent up to now is     1506.1 secs

     total energy              =  -10718.97562906 Ry
     estimated scf accuracy    <       0.00027313 Ry

     total magnetization       =    -2.37 Bohr mag/cell
     absolute magnetization    =    49.38 Bohr mag/cell

     iteration # 13     ecut=    71.00 Ry     beta= 0.30
     Davidson diagonalization with overlap
     ethr =  5.31E-08,  avg # of iterations =  4.0

     total cpu time spent up to now is     1630.9 secs

     total energy              =  -10718.97579428 Ry
     estimated scf accuracy    <       0.00014503 Ry

     total magnetization       =    -2.44 Bohr mag/cell
     absolute magnetization    =    49.64 Bohr mag/cell

     iteration # 14     ecut=    71.00 Ry     beta= 0.30
     Davidson diagonalization with overlap
     ethr =  2.82E-08,  avg # of iterations =  4.3

     total cpu time spent up to now is     1755.2 secs

     total energy              =  -10718.97584633 Ry
     estimated scf accuracy    <       0.00008564 Ry

     total magnetization       =    -2.47 Bohr mag/cell
     absolute magnetization    =    49.72 Bohr mag/cell

     iteration # 15     ecut=    71.00 Ry     beta= 0.30
     Davidson diagonalization with overlap
     ethr =  1.67E-08,  avg # of iterations =  2.0

     total cpu time spent up to now is     1855.2 secs

     total energy              =  -10718.97587464 Ry
     estimated scf accuracy    <       0.00005935 Ry

     total magnetization       =    -2.48 Bohr mag/cell
     absolute magnetization    =    49.75 Bohr mag/cell

     iteration # 16     ecut=    71.00 Ry     beta= 0.30
     Davidson diagonalization with overlap
     ethr =  1.15E-08,  avg # of iterations =  2.2

     total cpu time spent up to now is     1959.5 secs

     total energy              =  -10718.97586869 Ry
     estimated scf accuracy    <       0.00005581 Ry

     total magnetization       =    -2.50 Bohr mag/cell
     absolute magnetization    =    49.77 Bohr mag/cell

     iteration # 17     ecut=    71.00 Ry     beta= 0.30
     Davidson diagonalization with overlap
     ethr =  1.09E-08,  avg # of iterations =  4.6

     total cpu time spent up to now is     2093.6 secs

     total energy              =  -10718.97595545 Ry
     estimated scf accuracy    <       0.00003296 Ry

     total magnetization       =    -2.54 Bohr mag/cell
     absolute magnetization    =    49.82 Bohr mag/cell

     iteration # 18     ecut=    71.00 Ry     beta= 0.30
     Davidson diagonalization with overlap
     ethr =  6.41E-09,  avg # of iterations =  1.3

     total cpu time spent up to now is     2186.1 secs

     total energy              =  -10718.97596408 Ry
     estimated scf accuracy    <       0.00002420 Ry

     total magnetization       =    -2.55 Bohr mag/cell
     absolute magnetization    =    49.82 Bohr mag/cell

     iteration # 19     ecut=    71.00 Ry     beta= 0.30
     Davidson diagonalization with overlap
     ethr =  4.71E-09,  avg # of iterations =  1.9

     total cpu time spent up to now is     2286.1 secs

     total energy              =  -10718.97593880 Ry
     estimated scf accuracy    <       0.00002392 Ry

     total magnetization       =    -2.55 Bohr mag/cell
     absolute magnetization    =    49.80 Bohr mag/cell

     iteration # 20     ecut=    71.00 Ry     beta= 0.30
     Davidson diagonalization with overlap
     ethr =  4.65E-09,  avg # of iterations =  4.7

     total cpu time spent up to now is     2433.2 secs

     total energy              =  -10718.97601429 Ry
     estimated scf accuracy    <       0.00002122 Ry

     total magnetization       =    -2.57 Bohr mag/cell
     absolute magnetization    =    49.74 Bohr mag/cell

     iteration # 21     ecut=    71.00 Ry     beta= 0.30
     Davidson diagonalization with overlap
     ethr =  4.13E-09,  avg # of iterations =  2.8

     total cpu time spent up to now is     2550.2 secs

     total energy              =  -10718.97602701 Ry
     estimated scf accuracy    <       0.00001222 Ry

     total magnetization       =    -2.59 Bohr mag/cell
     absolute magnetization    =    49.73 Bohr mag/cell

     iteration # 22     ecut=    71.00 Ry     beta= 0.30
     Davidson diagonalization with overlap
     ethr =  2.38E-09,  avg # of iterations =  4.6

     total cpu time spent up to now is     2684.8 secs

     total energy              =  -10718.97603631 Ry
     estimated scf accuracy    <       0.00001041 Ry

     total magnetization       =    -2.60 Bohr mag/cell
     absolute magnetization    =    49.73 Bohr mag/cell

     iteration # 23     ecut=    71.00 Ry     beta= 0.30
     Davidson diagonalization with overlap
     ethr =  2.02E-09,  avg # of iterations =  4.1

     total cpu time spent up to now is     2815.3 secs

     total energy              =  -10718.97604104 Ry
     estimated scf accuracy    <       0.00000684 Ry

     total magnetization       =    -2.61 Bohr mag/cell
     absolute magnetization    =    49.71 Bohr mag/cell

     iteration # 24     ecut=    71.00 Ry     beta= 0.30
     Davidson diagonalization with overlap
     ethr =  1.33E-09,  avg # of iterations =  4.7

     total cpu time spent up to now is     2968.1 secs

     total energy              =  -10718.97606652 Ry
     estimated scf accuracy    <       0.00000795 Ry

     total magnetization       =    -2.62 Bohr mag/cell
     absolute magnetization    =    49.67 Bohr mag/cell

     iteration # 25     ecut=    71.00 Ry     beta= 0.30
     Davidson diagonalization with overlap
     ethr =  1.33E-09,  avg # of iterations =  2.6

     total cpu time spent up to now is     3077.0 secs

     total energy              =  -10718.97607020 Ry
     estimated scf accuracy    <       0.00000498 Ry

     total magnetization       =    -2.62 Bohr mag/cell
     absolute magnetization    =    49.67 Bohr mag/cell

     iteration # 26     ecut=    71.00 Ry     beta= 0.30
     Davidson diagonalization with overlap
     ethr =  9.68E-10,  avg # of iterations =  3.5

     total cpu time spent up to now is     3193.2 secs

     total energy              =  -10718.97607106 Ry
     estimated scf accuracy    <       0.00000390 Ry

     total magnetization       =    -2.62 Bohr mag/cell
     absolute magnetization    =    49.67 Bohr mag/cell

     iteration # 27     ecut=    71.00 Ry     beta= 0.30
     Davidson diagonalization with overlap
     ethr =  7.59E-10,  avg # of iterations =  4.7

     total cpu time spent up to now is     3328.9 secs

     total energy              =  -10718.97606553 Ry
     estimated scf accuracy    <       0.00000248 Ry

     total magnetization       =    -2.62 Bohr mag/cell
     absolute magnetization    =    49.66 Bohr mag/cell

     iteration # 28     ecut=    71.00 Ry     beta= 0.30
     Davidson diagonalization with overlap
     ethr =  4.83E-10,  avg # of iterations =  5.3

     total cpu time spent up to now is     3491.2 secs

     total energy              =  -10718.97607874 Ry
     estimated scf accuracy    <       0.00000170 Ry

     total magnetization       =    -2.62 Bohr mag/cell
     absolute magnetization    =    49.64 Bohr mag/cell

     iteration # 29     ecut=    71.00 Ry     beta= 0.30
     Davidson diagonalization with overlap
     ethr =  3.30E-10,  avg # of iterations =  4.9

     total cpu time spent up to now is     3644.2 secs

     total energy              =  -10718.97608552 Ry
     estimated scf accuracy    <       0.00000098 Ry

     total magnetization       =    -2.62 Bohr mag/cell
     absolute magnetization    =    49.63 Bohr mag/cell

     iteration # 30     ecut=    71.00 Ry     beta= 0.30
     Davidson diagonalization with overlap
     ethr =  1.91E-10,  avg # of iterations =  4.3

     total cpu time spent up to now is     3777.7 secs

     total energy              =  -10718.97608359 Ry
     estimated scf accuracy    <       0.00000070 Ry

     total magnetization       =    -2.61 Bohr mag/cell
     absolute magnetization    =    49.64 Bohr mag/cell

     iteration # 31     ecut=    71.00 Ry     beta= 0.30
     Davidson diagonalization with overlap
     ethr =  1.36E-10,  avg # of iterations =  5.2

     total cpu time spent up to now is     3934.5 secs

     total energy              =  -10718.97608860 Ry
     estimated scf accuracy    <       0.00000041 Ry

     total magnetization       =    -2.61 Bohr mag/cell
     absolute magnetization    =    49.63 Bohr mag/cell

     iteration # 32     ecut=    71.00 Ry     beta= 0.30
     Davidson diagonalization with overlap
     ethr =  8.02E-11,  avg # of iterations =  1.3

     total cpu time spent up to now is     4027.0 secs

     total energy              =  -10718.97608771 Ry
     estimated scf accuracy    <       0.00000030 Ry

     total magnetization       =    -2.61 Bohr mag/cell
     absolute magnetization    =    49.63 Bohr mag/cell

     iteration # 33     ecut=    71.00 Ry     beta= 0.30
     Davidson diagonalization with overlap
     ethr =  5.78E-11,  avg # of iterations =  4.8

     total cpu time spent up to now is     4176.7 secs

     total energy              =  -10718.97608895 Ry
     estimated scf accuracy    <       0.00000018 Ry

     total magnetization       =    -2.62 Bohr mag/cell
     absolute magnetization    =    49.63 Bohr mag/cell

     iteration # 34     ecut=    71.00 Ry     beta= 0.30
     Davidson diagonalization with overlap
     ethr =  3.52E-11,  avg # of iterations =  4.6

     total cpu time spent up to now is     4316.0 secs

     total energy              =  -10718.97608913 Ry
     estimated scf accuracy    <       0.00000015 Ry

     total magnetization       =    -2.62 Bohr mag/cell
     absolute magnetization    =    49.63 Bohr mag/cell

     iteration # 35     ecut=    71.00 Ry     beta= 0.30
     Davidson diagonalization with overlap
     ethr =  2.82E-11,  avg # of iterations =  4.7

     total cpu time spent up to now is     4459.1 secs

     total energy              =  -10718.97608953 Ry
     estimated scf accuracy    <       0.00000008 Ry

     total magnetization       =    -2.62 Bohr mag/cell
     absolute magnetization    =    49.63 Bohr mag/cell

     iteration # 36     ecut=    71.00 Ry     beta= 0.30
     Davidson diagonalization with overlap
     ethr =  1.57E-11,  avg # of iterations =  4.0

     total cpu time spent up to now is     4585.0 secs

     total energy              =  -10718.97608948 Ry
     estimated scf accuracy    <       0.00000006 Ry

     total magnetization       =    -2.63 Bohr mag/cell
     absolute magnetization    =    49.63 Bohr mag/cell

     iteration # 37     ecut=    71.00 Ry     beta= 0.30
     Davidson diagonalization with overlap
     ethr =  1.09E-11,  avg # of iterations =  4.9

     total cpu time spent up to now is     4732.9 secs

     total energy              =  -10718.97608964 Ry
     estimated scf accuracy    <       0.00000004 Ry

     total magnetization       =    -2.63 Bohr mag/cell
     absolute magnetization    =    49.63 Bohr mag/cell

     iteration # 38     ecut=    71.00 Ry     beta= 0.30
     Davidson diagonalization with overlap
     ethr =  8.73E-12,  avg # of iterations =  4.6

     total cpu time spent up to now is     4869.5 secs

     total energy              =  -10718.97608966 Ry
     estimated scf accuracy    <       0.00000003 Ry

     total magnetization       =    -2.63 Bohr mag/cell
     absolute magnetization    =    49.63 Bohr mag/cell

     iteration # 39     ecut=    71.00 Ry     beta= 0.30
     Davidson diagonalization with overlap
     ethr =  4.99E-12,  avg # of iterations =  4.6

     total cpu time spent up to now is     5010.0 secs

     total energy              =  -10718.97608974 Ry
     estimated scf accuracy    <       0.00000002 Ry

     total magnetization       =    -2.63 Bohr mag/cell
     absolute magnetization    =    49.63 Bohr mag/cell

     iteration # 40     ecut=    71.00 Ry     beta= 0.30
     Davidson diagonalization with overlap
     ethr =  3.84E-12,  avg # of iterations =  3.3

     total cpu time spent up to now is     5126.0 secs

     total energy              =  -10718.97608975 Ry
     estimated scf accuracy    <       0.00000001 Ry

     total magnetization       =    -2.63 Bohr mag/cell
     absolute magnetization    =    49.63 Bohr mag/cell

     iteration # 41     ecut=    71.00 Ry     beta= 0.30
     Davidson diagonalization with overlap
     ethr =  2.28E-12,  avg # of iterations =  4.2
 
     Magnetic moment per site:
     atom:    1    charge:   15.8893    magn:   -0.0793    constr:    0.0000
     atom:    2    charge:   14.3417    magn:   -1.6836    constr:    0.0000
     atom:    3    charge:   14.2242    magn:    1.7570    constr:    0.0000
     atom:    4    charge:   14.3417    magn:   -1.6836    constr:    0.0000
     atom:    5    charge:   14.2384    magn:    1.2998    constr:    0.0000
     atom:    6    charge:   14.3672    magn:   -1.4577    constr:    0.0000
     atom:    7    charge:   14.2242    magn:    1.7570    constr:    0.0000
     atom:    8    charge:   14.3417    magn:   -1.6836    constr:    0.0000
     atom:    9    charge:   14.2410    magn:    1.1799    constr:    0.0000
     atom:   10    charge:   14.3417    magn:   -1.6836    constr:    0.0000
     atom:   11    charge:   14.2418    magn:    1.5660    constr:    0.0000
     atom:   12    charge:   14.3417    magn:   -1.6836    constr:    0.0000
     atom:   13    charge:   14.2622    magn:    1.2071    constr:    0.0000
     atom:   14    charge:   14.3672    magn:   -1.4577    constr:    0.0000
     atom:   15    charge:   14.2418    magn:    1.5660    constr:    0.0000
     atom:   16    charge:   14.3417    magn:   -1.6836    constr:    0.0000
     atom:   17    charge:   14.2384    magn:    1.2998    constr:    0.0000
     atom:   18    charge:   14.3417    magn:   -1.6836    constr:    0.0000
     atom:   19    charge:   14.2242    magn:    1.7570    constr:    0.0000
     atom:   20    charge:   14.3672    magn:   -1.4577    constr:    0.0000
     atom:   21    charge:   14.2739    magn:    1.4090    constr:    0.0000
     atom:   22    charge:   14.3672    magn:   -1.4577    constr:    0.0000
     atom:   23    charge:   14.2242    magn:    1.7570    constr:    0.0000
     atom:   24    charge:   14.3672    magn:   -1.4577    constr:    0.0000
     atom:   25    charge:   14.2622    magn:    1.2071    constr:    0.0000
     atom:   26    charge:   14.3417    magn:   -1.6836    constr:    0.0000
     atom:   27    charge:   14.2418    magn:    1.5660    constr:    0.0000
     atom:   28    charge:   14.3672    magn:   -1.4577    constr:    0.0000
     atom:   29    charge:   14.2427    magn:    1.4974    constr:    0.0000
     atom:   30    charge:   14.3672    magn:   -1.4577    constr:    0.0000
     atom:   31    charge:   14.2418    magn:    1.5660    constr:    0.0000
     atom:   32    charge:   14.3672    magn:   -1.4577    constr:    0.0000

     total cpu time spent up to now is     5253.4 secs

     End of self-consistent calculation

     Number of k-points >= 100: set verbosity='high' to print the bands.

     the Fermi energy is    20.0409 ev

!    total energy              =  -10718.97608976 Ry

     total all-electron energy =    -89004.195293 Ry
     estimated scf accuracy    <          7.2E-09 Ry
     smearing contrib. (-TS)   =       0.00716645 Ry
     internal energy E=F+TS    =  -10718.98325621 Ry

     The total energy is F=E-TS. E is the sum of the following terms:
     one-electron contribution =   -3288.45906822 Ry
     hartree contribution      =    1995.01380745 Ry
     xc contribution           =    -890.08047183 Ry
     ewald contribution        =   -5713.47107844 Ry
     one-center paw contrib.   =   -2821.98644516 Ry

     total magnetization       =    -2.63 Bohr mag/cell
     absolute magnetization    =    49.63 Bohr mag/cell

     convergence has been achieved in  41 iterations

     Forces acting on atoms (cartesian axes, Ry/au):

     atom    1 type  3   force =     0.00000000    0.00000000    0.00000000
     atom    2 type  2   force =    -0.00015891    0.00007494    0.00000000
     atom    3 type  1   force =    -0.00006834    0.00000000   -0.00006834
     atom    4 type  2   force =     0.00000000    0.00007494   -0.00015891
     atom    5 type  1   force =     0.00000000    0.00000000    0.00000000
     atom    6 type  2   force =    -0.00001083    0.00001266    0.00000000
     atom    7 type  1   force =    -0.00006834    0.00000000    0.00006834
     atom    8 type  2   force =     0.00000000    0.00007494    0.00015891
     atom    9 type  1   force =     0.00000000    0.00000000    0.00000000
     atom   10 type  2   force =    -0.00015891   -0.00007494   -0.00000000
     atom   11 type  1   force =     0.00004525    0.00000000    0.00004525
     atom   12 type  2   force =     0.00000000   -0.00007494   -0.00015891
     atom   13 type  1   force =     0.00000000    0.00000000    0.00000000
     atom   14 type  2   force =    -0.00001083   -0.00001266    0.00000000
     atom   15 type  1   force =     0.00004525    0.00000000   -0.00004525
     atom   16 type  2   force =     0.00000000   -0.00007494    0.00015891
     atom   17 type  1   force =     0.00000000    0.00000000    0.00000000
     atom   18 type  2   force =     0.00015891    0.00007494   -0.00000000
     atom   19 type  1   force =     0.00006834    0.00000000   -0.00006834
     atom   20 type  2   force =     0.00000000    0.00001266   -0.00001083
     atom   21 type  1   force =     0.00000000    0.00000000    0.00000000
     atom   22 type  2   force =     0.00001083    0.00001266    0.00000000
     atom   23 type  1   force =     0.00006834    0.00000000    0.00006834
     atom   24 type  2   force =     0.00000000    0.00001266    0.00001083
     atom   25 type  1   force =     0.00000000    0.00000000    0.00000000
     atom   26 type  2   force =     0.00015891   -0.00007494    0.00000000
     atom   27 type  1   force =    -0.00004525    0.00000000    0.00004525
     atom   28 type  2   force =     0.00000000   -0.00001266   -0.00001083
     atom   29 type  1   force =     0.00000000    0.00000000    0.00000000
     atom   30 type  2   force =     0.00001083   -0.00001266    0.00000000
     atom   31 type  1   force =    -0.00004525    0.00000000   -0.00004525
     atom   32 type  2   force =     0.00000000   -0.00001266    0.00001083

     Total force =     0.000550     Total SCF correction =     0.000248
     SCF correction compared to forces is large: reduce conv_thr to get better values


     Computing stress (Cartesian axis) and pressure

          total   stress  (Ry/bohr**3)                   (kbar)     P=        0.17
   0.00000090   0.00000000   0.00000000            0.13        0.00        0.00
   0.00000000   0.00000162   0.00000000            0.00        0.24        0.00
   0.00000000   0.00000000   0.00000090            0.00        0.00        0.13


     Writing output data file /scratch/bxp912/fepd01.save/
 
     init_run     :     34.14s CPU     35.26s WALL (       1 calls)
     electrons    :   5147.97s CPU   5217.45s WALL (       1 calls)
     forces       :     20.33s CPU     20.48s WALL (       1 calls)
     stress       :     92.84s CPU     93.54s WALL (       1 calls)

     Called by init_run:
     wfcinit      :     33.51s CPU     34.35s WALL (       1 calls)
     potinit      :      0.28s CPU      0.39s WALL (       1 calls)
     hinit0       :      0.20s CPU      0.30s WALL (       1 calls)

     Called by electrons:
     c_bands      :   4586.29s CPU   4643.57s WALL (      42 calls)
     sum_band     :    550.74s CPU    561.85s WALL (      42 calls)
     v_of_rho     :      0.99s CPU      1.05s WALL (      42 calls)
     newd         :      2.09s CPU      2.52s WALL (      42 calls)
     PAW_pot      :      7.14s CPU      7.69s WALL (      42 calls)
     mix_rho      :      0.73s CPU      0.79s WALL (      42 calls)

     Called by c_bands:
     init_us_2    :     20.17s CPU     20.57s WALL (   13050 calls)
     cegterg      :   4510.13s CPU   4564.18s WALL (    6300 calls)

     Called by *egterg:
     cdiaghg      :    718.95s CPU    723.18s WALL (   29736 calls)
     h_psi        :   2374.33s CPU   2414.29s WALL (   30036 calls)
     s_psi        :    180.20s CPU    181.70s WALL (   30036 calls)
     g_psi        :      4.89s CPU      4.97s WALL (   23586 calls)

     Called by h_psi:
     h_psi:calbec :    360.04s CPU    362.89s WALL (   30036 calls)
     vloc_psi     :   1822.00s CPU   1855.93s WALL (   30036 calls)
     add_vuspsi   :    182.54s CPU    185.68s WALL (   30036 calls)

     General routines
     calbec       :    517.62s CPU    521.68s WALL (   37086 calls)
     fft          :      0.76s CPU      0.80s WALL (    1090 calls)
     ffts         :      0.34s CPU      0.43s WALL (    1008 calls)
     fftw         :   2145.95s CPU   2185.42s WALL (11572580 calls)
     interpolate  :      0.09s CPU      0.17s WALL (      84 calls)
 
     Parallel routines
     fft_scatt_xy :     91.70s CPU     93.45s WALL (11574678 calls)
     fft_scatt_yz :   1832.16s CPU   1866.27s WALL (11574678 calls)
 
     PWSCF        :      1h28m CPU      1h29m WALL

 
   This run was terminated on:  10:20:34  20May2022            

=------------------------------------------------------------------------------=
   JOB DONE.
=------------------------------------------------------------------------------=
