
     Program PWSCF v.6.7MaX starts on 20May2022 at 10:20:38 

     This program is part of the open-source Quantum ESPRESSO suite
     for quantum simulation of materials; please cite
         "P. Giannozzi et al., J. Phys.:Condens. Matter 21 395502 (2009);
         "P. Giannozzi et al., J. Phys.:Condens. Matter 29 465901 (2017);
          URL http://www.quantum-espresso.org", 
     in publications or presentations arising from this work. More details at
     http://www.quantum-espresso.org/quote

     Parallel version (MPI & OpenMP), running on      72 processor cores
     Number of MPI processes:                72
     Threads/MPI process:                     1

     MPI processes distributed on     1 nodes
     R & G space division:  proc/nbgrp/npool/nimage =      72
     Reading input from fepd_02.in
Warning: card &CELL ignored
Warning: card CELL_DYNAMICS = 'BFGS', ignored
Warning: card CELL_FACTOR = 2.0, ignored
Warning: card PRESS = 0.0, ignored
Warning: card / ignored

     Current dimensions of program PWSCF are:
     Max number of different atomic species (ntypx) = 10
     Max number of k-points (npk) =  40000
     Max angular momentum in pseudopotentials (lmaxx) =  3
     file Fe.pbe-spn-kjpaw_psl.1.0.0.UPF: wavefunction(s)  3P 3D renormalized
     file Fe.pbe-spn-kjpaw_psl.1.0.0.UPF: wavefunction(s)  3P 3D renormalized
     file Pd.pbe-spn-kjpaw_psl.1.0.0.UPF: wavefunction(s)  4S 5S 4D renormalized

     Subspace diagonalization in iterative solution of the eigenvalue problem:
     one sub-group per band group will be used
     ELPA distributed-memory algorithm (size of sub-group:  8*  8 procs)

 
     Parallelization info
     --------------------
     sticks:   dense  smooth     PW     G-vecs:    dense   smooth      PW
     Min          84      55     15                 4857     2605     375
     Max          86      56     16                 4863     2614     380
     Sum        6115    4025   1119               349955   187945   27183
 


     bravais-lattice index     =            0
     lattice parameter (alat)  =      13.0175  a.u.
     unit-cell volume          =    2324.7211 (a.u.)^3
     number of atoms/cell      =           32
     number of atomic types    =            3
     number of electrons       =       514.00
     number of Kohn-Sham states=          308
     kinetic-energy cutoff     =      71.0000  Ry
     charge density cutoff     =     430.0000  Ry
     scf convergence threshold =      1.0E-08
     mixing beta               =       0.3000
     number of iterations used =           10  local-TF  mixing
     Exchange-correlation= SLA  PW   PBX  PBC
                           (   1   4   3   4   0   0   0)

     celldm(1)=  13.017474  celldm(2)=   0.000000  celldm(3)=   0.000000
     celldm(4)=   0.000000  celldm(5)=   0.000000  celldm(6)=   0.000000

     crystal axes: (cart. coord. in units of alat)
               a(1) = (   1.000000   0.000000   0.000000 )  
               a(2) = (   0.000000   1.053879   0.000000 )  
               a(3) = (   0.000000   0.000000   1.000000 )  

     reciprocal axes: (cart. coord. in units 2 pi/alat)
               b(1) = (  1.000000  0.000000  0.000000 )  
               b(2) = (  0.000000  0.948876  0.000000 )  
               b(3) = (  0.000000  0.000000  1.000000 )  


     PseudoPot. # 1 for Fe read from file:
     /rds/homes/b/bxp912/pp/Fe.pbe-spn-kjpaw_psl.1.0.0.UPF
     MD5 check sum: 42f43b795421b414b0dc916aa790dbcb
     Pseudo is Projector augmented-wave + core cor, Zval = 16.0
     Generated using &quot;atomic&quot; code by A. Dal Corso  v.6.3
     Shape of augmentation charge: PSQ
     Using radial grid of 1191 points,  6 beta functions with: 
                l(1) =   0
                l(2) =   0
                l(3) =   1
                l(4) =   1
                l(5) =   2
                l(6) =   2
     Q(r) pseudized with 0 coefficients 


     PseudoPot. # 2 for Fe read from file:
     /rds/homes/b/bxp912/pp/Fe.pbe-spn-kjpaw_psl.1.0.0.UPF
     MD5 check sum: 42f43b795421b414b0dc916aa790dbcb
     Pseudo is Projector augmented-wave + core cor, Zval = 16.0
     Generated using &quot;atomic&quot; code by A. Dal Corso  v.6.3
     Shape of augmentation charge: PSQ
     Using radial grid of 1191 points,  6 beta functions with: 
                l(1) =   0
                l(2) =   0
                l(3) =   1
                l(4) =   1
                l(5) =   2
                l(6) =   2
     Q(r) pseudized with 0 coefficients 


     PseudoPot. # 3 for Pd read from file:
     /rds/homes/b/bxp912/pp/Pd.pbe-spn-kjpaw_psl.1.0.0.UPF
     MD5 check sum: 790f2ebce206edfd9790dcb9844eca51
     Pseudo is Projector augmented-wave + core cor, Zval = 18.0
     Generated using &quot;atomic&quot; code by A. Dal Corso  v.6.3
     Shape of augmentation charge: PSQ
     Using radial grid of 1235 points,  6 beta functions with: 
                l(1) =   0
                l(2) =   0
                l(3) =   1
                l(4) =   1
                l(5) =   2
                l(6) =   2
     Q(r) pseudized with 0 coefficients 


     atomic species   valence    mass     pseudopotential
        Fe1           16.00    55.84500     Fe( 1.00)
        Fe2           16.00    55.84500     Fe( 1.00)
        Pd            18.00   106.42000     Pd( 1.00)

     Starting magnetic structure 
     atomic species   magnetization
        Fe1          0.100
        Fe2         -0.100
        Pd           0.010

     No symmetry found



   Cartesian axes

     site n.     atom                  positions (alat units)
         1           Pd  tau(   1) = (  -0.0062192  -0.0030163   0.0061349  )
         2           Fe2 tau(   2) = (   0.2552108   0.2689456   0.0000000  )
         3           Fe1 tau(   3) = (   0.2570288   0.0000000   0.2570288  )
         4           Fe2 tau(   4) = (   0.0000000   0.2689456   0.2552108  )
         5           Fe1 tau(   5) = (   0.0000000   0.0000000   0.5000000  )
         6           Fe2 tau(   6) = (   0.2504870   0.2644622   0.5000000  )
         7           Fe1 tau(   7) = (   0.2570288   0.0000000   0.7429712  )
         8           Fe2 tau(   8) = (   0.0000000   0.2689456   0.7447892  )
         9           Fe1 tau(   9) = (   0.0000000   0.5269394   0.0000000  )
        10           Fe2 tau(  10) = (   0.2552108   0.7849332   0.0000000  )
        11           Fe1 tau(  11) = (   0.2508487   0.5269394   0.2508487  )
        12           Fe2 tau(  12) = (   0.0000000   0.7849332   0.2552108  )
        13           Fe1 tau(  13) = (   0.0000000   0.5269394   0.5000000  )
        14           Fe2 tau(  14) = (   0.2504870   0.7894166   0.5000000  )
        15           Fe1 tau(  15) = (   0.2508487   0.5269394   0.7491513  )
        16           Fe2 tau(  16) = (   0.0000000   0.7849332   0.7447892  )
        17           Fe1 tau(  17) = (   0.5000000   0.0000000   0.0000000  )
        18           Fe2 tau(  18) = (   0.7447892   0.2689456   0.0000000  )
        19           Fe1 tau(  19) = (   0.7429712   0.0000000   0.2570288  )
        20           Fe2 tau(  20) = (   0.5000000   0.2644622   0.2504870  )
        21           Fe1 tau(  21) = (   0.5000000   0.0000000   0.5000000  )
        22           Fe2 tau(  22) = (   0.7495130   0.2644622   0.5000000  )
        23           Fe1 tau(  23) = (   0.7429712   0.0000000   0.7429712  )
        24           Fe2 tau(  24) = (   0.5000000   0.2644622   0.7495130  )
        25           Fe1 tau(  25) = (   0.5000000   0.5269394   0.0000000  )
        26           Fe2 tau(  26) = (   0.7447892   0.7849332   0.0000000  )
        27           Fe1 tau(  27) = (   0.7491513   0.5269394   0.2508487  )
        28           Fe2 tau(  28) = (   0.5000000   0.7894166   0.2504870  )
        29           Fe1 tau(  29) = (   0.5000000   0.5269394   0.5000000  )
        30           Fe2 tau(  30) = (   0.7495130   0.7894166   0.5000000  )
        31           Fe1 tau(  31) = (   0.7491513   0.5269394   0.7491513  )
        32           Fe2 tau(  32) = (   0.5000000   0.7894166   0.7495130  )

     number of k points=   365  Marzari-Vanderbilt smearing, width (Ry)=  0.0400

     Number of k-points >= 100: set verbosity='high' to print them.

     Dense  grid:   349955 G-vectors     FFT dimensions: (  90,  96,  90)

     Smooth grid:   187945 G-vectors     FFT dimensions: (  72,  75,  72)

     Estimated max dynamical RAM per process >       1.12 GB

     Estimated total dynamical RAM >      80.96 GB

     Check: negative core charge=   -0.000006
     Generating pointlists ...
     new r_m :   0.1417 (alat units)  1.8451 (a.u.) for type    1
     new r_m :   0.1445 (alat units)  1.8808 (a.u.) for type    2
     new r_m :   0.1463 (alat units)  1.9050 (a.u.) for type    3

     Initial potential from superposition of free atoms

     starting charge  513.98605, renormalised to  514.00000
     Starting wfcs are  320 randomized atomic wfcs
     Checking if some PAW data can be deallocated... 

     total cpu time spent up to now is      169.6 secs

     Self-consistent Calculation

     iteration #  1     ecut=    71.00 Ry     beta= 0.30
     Davidson diagonalization with overlap
     ethr =  1.00E-02,  avg # of iterations =  5.0

     negative rho (up, down):  2.154E-02 6.441E-02

     total cpu time spent up to now is      829.7 secs

     total energy              =  -10718.45192440 Ry
     estimated scf accuracy    <      12.61929149 Ry

     total magnetization       =    -1.87 Bohr mag/cell
     absolute magnetization    =    51.76 Bohr mag/cell

     iteration #  2     ecut=    71.00 Ry     beta= 0.30
     Davidson diagonalization with overlap
     ethr =  2.46E-03,  avg # of iterations =  2.8

     negative rho (up, down):  2.830E-02 7.314E-02

     total cpu time spent up to now is     1363.0 secs

     total energy              =  -10717.99484673 Ry
     estimated scf accuracy    <       3.69176475 Ry

     total magnetization       =    -1.36 Bohr mag/cell
     absolute magnetization    =    47.72 Bohr mag/cell

     iteration #  3     ecut=    71.00 Ry     beta= 0.30
     Davidson diagonalization with overlap
     ethr =  7.18E-04,  avg # of iterations =  2.7

     negative rho (up, down):  2.146E-02 5.286E-02

     total cpu time spent up to now is     1946.8 secs

     total energy              =  -10718.41659666 Ry
     estimated scf accuracy    <       2.19214409 Ry

     total magnetization       =    -2.11 Bohr mag/cell
     absolute magnetization    =    46.00 Bohr mag/cell

     iteration #  4     ecut=    71.00 Ry     beta= 0.30
     Davidson diagonalization with overlap
     ethr =  4.26E-04,  avg # of iterations =  1.7

     negative rho (up, down):  1.028E-02 2.759E-02

     total cpu time spent up to now is     2414.0 secs

     total energy              =  -10718.58216235 Ry
     estimated scf accuracy    <       0.54554376 Ry

     total magnetization       =    -1.83 Bohr mag/cell
     absolute magnetization    =    46.04 Bohr mag/cell

     iteration #  5     ecut=    71.00 Ry     beta= 0.30
     Davidson diagonalization with overlap
     c_bands:  2 eigenvalues not converged
     ethr =  1.06E-04,  avg # of iterations =  4.5

     negative rho (up, down):  4.369E-03 1.431E-02

     total cpu time spent up to now is     2970.1 secs

     total energy              =  -10718.68111152 Ry
     estimated scf accuracy    <       0.35079295 Ry

     total magnetization       =    -1.74 Bohr mag/cell
     absolute magnetization    =    46.36 Bohr mag/cell

     iteration #  6     ecut=    71.00 Ry     beta= 0.30
     Davidson diagonalization with overlap
     c_bands:  1 eigenvalues not converged
     c_bands:  1 eigenvalues not converged
     ethr =  6.82E-05,  avg # of iterations =  2.7

     negative rho (up, down):  9.263E-04 3.322E-03

     total cpu time spent up to now is     3478.3 secs

     total energy              =  -10718.79133097 Ry
     estimated scf accuracy    <       0.22056492 Ry

     total magnetization       =    -1.99 Bohr mag/cell
     absolute magnetization    =    46.57 Bohr mag/cell

     iteration #  7     ecut=    71.00 Ry     beta= 0.30
     Davidson diagonalization with overlap
     c_bands:  3 eigenvalues not converged
     c_bands:  1 eigenvalues not converged
     ethr =  4.29E-05,  avg # of iterations =  2.8

     negative rho (up, down):  9.230E-05 1.751E-04

     total cpu time spent up to now is     4054.1 secs

     total energy              =  -10718.89449103 Ry
     estimated scf accuracy    <       0.11446648 Ry

     total magnetization       =    -1.96 Bohr mag/cell
     absolute magnetization    =    47.07 Bohr mag/cell

     iteration #  8     ecut=    71.00 Ry     beta= 0.30
     Davidson diagonalization with overlap
     c_bands:  2 eigenvalues not converged
     c_bands:  2 eigenvalues not converged
     c_bands:  1 eigenvalues not converged
     c_bands:  1 eigenvalues not converged
     c_bands:  1 eigenvalues not converged
     c_bands:  1 eigenvalues not converged
     c_bands:  1 eigenvalues not converged
     c_bands:  1 eigenvalues not converged
     c_bands:  1 eigenvalues not converged
     c_bands:  2 eigenvalues not converged
     c_bands:  1 eigenvalues not converged
     c_bands:  1 eigenvalues not converged
     c_bands:  2 eigenvalues not converged
     ethr =  2.23E-05,  avg # of iterations =  3.3

     total cpu time spent up to now is     4651.4 secs

     total energy              =  -10718.94938480 Ry
     estimated scf accuracy    <       0.05779416 Ry

     total magnetization       =    -2.00 Bohr mag/cell
     absolute magnetization    =    47.63 Bohr mag/cell

     iteration #  9     ecut=    71.00 Ry     beta= 0.30
     Davidson diagonalization with overlap
     c_bands:  1 eigenvalues not converged
     c_bands:  2 eigenvalues not converged
     c_bands:  1 eigenvalues not converged
     c_bands:  1 eigenvalues not converged
     c_bands:  1 eigenvalues not converged
     c_bands:  2 eigenvalues not converged
     c_bands:  2 eigenvalues not converged
     c_bands:  2 eigenvalues not converged
     c_bands:  2 eigenvalues not converged
     c_bands:  1 eigenvalues not converged
     c_bands:  2 eigenvalues not converged
     c_bands:  2 eigenvalues not converged
     c_bands:  1 eigenvalues not converged
     c_bands:  1 eigenvalues not converged
     c_bands:  1 eigenvalues not converged
     c_bands:  1 eigenvalues not converged
     c_bands:  1 eigenvalues not converged
     c_bands:  1 eigenvalues not converged
     c_bands:  2 eigenvalues not converged
     c_bands:  1 eigenvalues not converged
     c_bands:  2 eigenvalues not converged
     c_bands:  2 eigenvalues not converged
     c_bands:  1 eigenvalues not converged
     c_bands:  2 eigenvalues not converged
     c_bands:  1 eigenvalues not converged
     c_bands:  1 eigenvalues not converged
     c_bands:  1 eigenvalues not converged
     c_bands:  1 eigenvalues not converged
     c_bands:  1 eigenvalues not converged
     c_bands:  1 eigenvalues not converged
     c_bands:  3 eigenvalues not converged
     c_bands:  1 eigenvalues not converged
     c_bands:  2 eigenvalues not converged
     ethr =  1.12E-05,  avg # of iterations =  5.1

     total cpu time spent up to now is     5303.1 secs

     total energy              =  -10718.96627284 Ry
     estimated scf accuracy    <       0.01353679 Ry

     total magnetization       =    -2.12 Bohr mag/cell
     absolute magnetization    =    48.19 Bohr mag/cell

     iteration # 10     ecut=    71.00 Ry     beta= 0.30
     Davidson diagonalization with overlap
     c_bands:  1 eigenvalues not converged
     c_bands:  2 eigenvalues not converged
     c_bands:  1 eigenvalues not converged
     c_bands:  1 eigenvalues not converged
     c_bands:  1 eigenvalues not converged
     c_bands:  1 eigenvalues not converged
     c_bands:  2 eigenvalues not converged
     c_bands:  1 eigenvalues not converged
     c_bands:  1 eigenvalues not converged
     c_bands:  1 eigenvalues not converged
     c_bands:  1 eigenvalues not converged
     c_bands:  1 eigenvalues not converged
     c_bands:  2 eigenvalues not converged
     c_bands:  2 eigenvalues not converged
     c_bands:  1 eigenvalues not converged
     c_bands:  1 eigenvalues not converged
     c_bands:  1 eigenvalues not converged
     c_bands:  1 eigenvalues not converged
     c_bands:  1 eigenvalues not converged
     c_bands:  1 eigenvalues not converged
     c_bands:  1 eigenvalues not converged
     c_bands:  1 eigenvalues not converged
     c_bands:  1 eigenvalues not converged
     c_bands:  2 eigenvalues not converged
     c_bands:  2 eigenvalues not converged
     c_bands:  1 eigenvalues not converged
     c_bands:  1 eigenvalues not converged
     c_bands:  2 eigenvalues not converged
     c_bands:  1 eigenvalues not converged
     c_bands:  1 eigenvalues not converged
     c_bands:  1 eigenvalues not converged
     c_bands:  1 eigenvalues not converged
     c_bands:  1 eigenvalues not converged
     c_bands:  2 eigenvalues not converged
     c_bands:  1 eigenvalues not converged
     c_bands:  1 eigenvalues not converged
     c_bands:  1 eigenvalues not converged
     c_bands:  1 eigenvalues not converged
     c_bands:  1 eigenvalues not converged
     c_bands:  2 eigenvalues not converged
     ethr =  2.63E-06,  avg # of iterations =  8.3

     total cpu time spent up to now is     6057.8 secs

     total energy              =  -10718.97109621 Ry
     estimated scf accuracy    <       0.00527932 Ry

     total magnetization       =    -2.21 Bohr mag/cell
     absolute magnetization    =    48.73 Bohr mag/cell

     iteration # 11     ecut=    71.00 Ry     beta= 0.30
     Davidson diagonalization with overlap
     ethr =  1.03E-06,  avg # of iterations =  2.0

     total cpu time spent up to now is     6546.0 secs

     total energy              =  -10718.97204884 Ry
     estimated scf accuracy    <       0.00262130 Ry

     total magnetization       =    -2.23 Bohr mag/cell
     absolute magnetization    =    48.88 Bohr mag/cell

     iteration # 12     ecut=    71.00 Ry     beta= 0.30
     Davidson diagonalization with overlap
     c_bands:  1 eigenvalues not converged
     ethr =  5.10E-07,  avg # of iterations =  2.1

     total cpu time spent up to now is     7124.6 secs

     total energy              =  -10718.97275845 Ry
     estimated scf accuracy    <       0.00135457 Ry

     total magnetization       =    -2.28 Bohr mag/cell
     absolute magnetization    =    49.10 Bohr mag/cell

     iteration # 13     ecut=    71.00 Ry     beta= 0.30
     Davidson diagonalization with overlap
     ethr =  2.64E-07,  avg # of iterations =  1.1

     total cpu time spent up to now is     7571.7 secs

     total energy              =  -10718.97289008 Ry
     estimated scf accuracy    <       0.00078510 Ry

     total magnetization       =    -2.30 Bohr mag/cell
     absolute magnetization    =    49.13 Bohr mag/cell

     iteration # 14     ecut=    71.00 Ry     beta= 0.30
     Davidson diagonalization with overlap
     ethr =  1.53E-07,  avg # of iterations =  1.9

     total cpu time spent up to now is     8058.7 secs

     total energy              =  -10718.97306427 Ry
     estimated scf accuracy    <       0.00034097 Ry

     total magnetization       =    -2.32 Bohr mag/cell
     absolute magnetization    =    49.23 Bohr mag/cell

     iteration # 15     ecut=    71.00 Ry     beta= 0.30
     Davidson diagonalization with overlap
     ethr =  6.63E-08,  avg # of iterations =  3.8

     total cpu time spent up to now is     8661.0 secs

     total energy              =  -10718.97321289 Ry
     estimated scf accuracy    <       0.00022241 Ry

     total magnetization       =    -2.36 Bohr mag/cell
     absolute magnetization    =    49.39 Bohr mag/cell

     iteration # 16     ecut=    71.00 Ry     beta= 0.30
     Davidson diagonalization with overlap
     ethr =  4.33E-08,  avg # of iterations =  2.1

     total cpu time spent up to now is     9161.1 secs

     total energy              =  -10718.97329219 Ry
     estimated scf accuracy    <       0.00016422 Ry

     total magnetization       =    -2.39 Bohr mag/cell
     absolute magnetization    =    49.47 Bohr mag/cell

     iteration # 17     ecut=    71.00 Ry     beta= 0.30
     Davidson diagonalization with overlap
     ethr =  3.19E-08,  avg # of iterations =  3.4

     total cpu time spent up to now is     9770.7 secs

     total energy              =  -10718.97340157 Ry
     estimated scf accuracy    <       0.00014713 Ry

     total magnetization       =    -2.44 Bohr mag/cell
     absolute magnetization    =    49.62 Bohr mag/cell

     iteration # 18     ecut=    71.00 Ry     beta= 0.30
     Davidson diagonalization with overlap
     ethr =  2.86E-08,  avg # of iterations =  2.7

     total cpu time spent up to now is    10332.8 secs

     total energy              =  -10718.97346430 Ry
     estimated scf accuracy    <       0.00008429 Ry

     total magnetization       =    -2.47 Bohr mag/cell
     absolute magnetization    =    49.72 Bohr mag/cell

     iteration # 19     ecut=    71.00 Ry     beta= 0.30
     Davidson diagonalization with overlap
     ethr =  1.64E-08,  avg # of iterations =  3.2

     total cpu time spent up to now is    10884.9 secs

     total energy              =  -10718.97349766 Ry
     estimated scf accuracy    <       0.00003995 Ry

     total magnetization       =    -2.50 Bohr mag/cell
     absolute magnetization    =    49.78 Bohr mag/cell

     iteration # 20     ecut=    71.00 Ry     beta= 0.30
     Davidson diagonalization with overlap
     ethr =  7.77E-09,  avg # of iterations =  3.6

     total cpu time spent up to now is    11502.1 secs

     total energy              =  -10718.97352244 Ry
     estimated scf accuracy    <       0.00004374 Ry

     total magnetization       =    -2.51 Bohr mag/cell
     absolute magnetization    =    49.78 Bohr mag/cell

     iteration # 21     ecut=    71.00 Ry     beta= 0.30
     Davidson diagonalization with overlap
     ethr =  7.77E-09,  avg # of iterations =  3.3

     total cpu time spent up to now is    12100.7 secs

     total energy              =  -10718.97355593 Ry
     estimated scf accuracy    <       0.00002733 Ry

     total magnetization       =    -2.54 Bohr mag/cell
     absolute magnetization    =    49.81 Bohr mag/cell

     iteration # 22     ecut=    71.00 Ry     beta= 0.30
     Davidson diagonalization with overlap
     ethr =  5.32E-09,  avg # of iterations =  2.0

     total cpu time spent up to now is    12608.0 secs

     total energy              =  -10718.97356734 Ry
     estimated scf accuracy    <       0.00002208 Ry

     total magnetization       =    -2.54 Bohr mag/cell
     absolute magnetization    =    49.81 Bohr mag/cell

     iteration # 23     ecut=    71.00 Ry     beta= 0.30
     Davidson diagonalization with overlap
     ethr =  4.30E-09,  avg # of iterations =  2.3

     total cpu time spent up to now is    13128.1 secs

     total energy              =  -10718.97356821 Ry
     estimated scf accuracy    <       0.00002516 Ry

     total magnetization       =    -2.55 Bohr mag/cell
     absolute magnetization    =    49.79 Bohr mag/cell

     iteration # 24     ecut=    71.00 Ry     beta= 0.30
     Davidson diagonalization with overlap
     ethr =  4.30E-09,  avg # of iterations =  4.5

     total cpu time spent up to now is    13796.6 secs

     total energy              =  -10718.97360424 Ry
     estimated scf accuracy    <       0.00001785 Ry

     total magnetization       =    -2.56 Bohr mag/cell
     absolute magnetization    =    49.77 Bohr mag/cell

     iteration # 25     ecut=    71.00 Ry     beta= 0.30
     Davidson diagonalization with overlap
     ethr =  3.47E-09,  avg # of iterations =  3.3

     total cpu time spent up to now is    14414.8 secs

     total energy              =  -10718.97362466 Ry
     estimated scf accuracy    <       0.00001142 Ry

     total magnetization       =    -2.57 Bohr mag/cell
     absolute magnetization    =    49.74 Bohr mag/cell

     iteration # 26     ecut=    71.00 Ry     beta= 0.30
     Davidson diagonalization with overlap
     ethr =  2.22E-09,  avg # of iterations =  4.2

     total cpu time spent up to now is    15052.6 secs

     total energy              =  -10718.97363046 Ry
     estimated scf accuracy    <       0.00000933 Ry

     total magnetization       =    -2.58 Bohr mag/cell
     absolute magnetization    =    49.73 Bohr mag/cell

     iteration # 27     ecut=    71.00 Ry     beta= 0.30
     Davidson diagonalization with overlap
     ethr =  1.82E-09,  avg # of iterations =  4.4

     total cpu time spent up to now is    15728.7 secs

     total energy              =  -10718.97365267 Ry
     estimated scf accuracy    <       0.00000677 Ry

     total magnetization       =    -2.59 Bohr mag/cell
     absolute magnetization    =    49.71 Bohr mag/cell

     iteration # 28     ecut=    71.00 Ry     beta= 0.30
     Davidson diagonalization with overlap
     ethr =  1.32E-09,  avg # of iterations =  2.0

     total cpu time spent up to now is    16265.8 secs

     total energy              =  -10718.97364500 Ry
     estimated scf accuracy    <       0.00000640 Ry

     total magnetization       =    -2.59 Bohr mag/cell
     absolute magnetization    =    49.69 Bohr mag/cell

     iteration # 29     ecut=    71.00 Ry     beta= 0.30
     Davidson diagonalization with overlap
     ethr =  1.25E-09,  avg # of iterations =  4.9

     total cpu time spent up to now is    16990.6 secs

     total energy              =  -10718.97366534 Ry
     estimated scf accuracy    <       0.00000456 Ry

     total magnetization       =    -2.60 Bohr mag/cell
     absolute magnetization    =    49.67 Bohr mag/cell

     iteration # 30     ecut=    71.00 Ry     beta= 0.30
     Davidson diagonalization with overlap
     ethr =  8.88E-10,  avg # of iterations =  3.3

     total cpu time spent up to now is    17574.2 secs

     total energy              =  -10718.97366385 Ry
     estimated scf accuracy    <       0.00000374 Ry

     total magnetization       =    -2.60 Bohr mag/cell
     absolute magnetization    =    49.66 Bohr mag/cell

     iteration # 31     ecut=    71.00 Ry     beta= 0.30
     Davidson diagonalization with overlap
     ethr =  7.28E-10,  avg # of iterations =  4.9

     total cpu time spent up to now is    18306.3 secs

     total energy              =  -10718.97367638 Ry
     estimated scf accuracy    <       0.00000252 Ry

     total magnetization       =    -2.60 Bohr mag/cell
     absolute magnetization    =    49.65 Bohr mag/cell

     iteration # 32     ecut=    71.00 Ry     beta= 0.30
     Davidson diagonalization with overlap
     ethr =  4.90E-10,  avg # of iterations =  2.9

     total cpu time spent up to now is    18859.7 secs

     total energy              =  -10718.97367237 Ry
     estimated scf accuracy    <       0.00000237 Ry

     total magnetization       =    -2.60 Bohr mag/cell
     absolute magnetization    =    49.65 Bohr mag/cell

     iteration # 33     ecut=    71.00 Ry     beta= 0.30
     Davidson diagonalization with overlap
     ethr =  4.62E-10,  avg # of iterations =  4.9

     total cpu time spent up to now is    19608.9 secs

     total energy              =  -10718.97367976 Ry
     estimated scf accuracy    <       0.00000152 Ry

     total magnetization       =    -2.61 Bohr mag/cell
     absolute magnetization    =    49.64 Bohr mag/cell

     iteration # 34     ecut=    71.00 Ry     beta= 0.30
     Davidson diagonalization with overlap
     ethr =  2.96E-10,  avg # of iterations =  4.7

     total cpu time spent up to now is    20325.7 secs

     total energy              =  -10718.97368400 Ry
     estimated scf accuracy    <       0.00000100 Ry

     total magnetization       =    -2.61 Bohr mag/cell
     absolute magnetization    =    49.64 Bohr mag/cell

     iteration # 35     ecut=    71.00 Ry     beta= 0.30
     Davidson diagonalization with overlap
     ethr =  1.94E-10,  avg # of iterations =  4.3

     total cpu time spent up to now is    20983.7 secs

     total energy              =  -10718.97368484 Ry
     estimated scf accuracy    <       0.00000053 Ry

     total magnetization       =    -2.61 Bohr mag/cell
     absolute magnetization    =    49.64 Bohr mag/cell

     iteration # 36     ecut=    71.00 Ry     beta= 0.30
     Davidson diagonalization with overlap
     ethr =  1.03E-10,  avg # of iterations =  4.7

     total cpu time spent up to now is    21731.5 secs

     total energy              =  -10718.97368670 Ry
     estimated scf accuracy    <       0.00000040 Ry

     total magnetization       =    -2.61 Bohr mag/cell
     absolute magnetization    =    49.64 Bohr mag/cell

     iteration # 37     ecut=    71.00 Ry     beta= 0.30
     Davidson diagonalization with overlap
     ethr =  7.80E-11,  avg # of iterations =  2.5

     total cpu time spent up to now is    22318.2 secs

     total energy              =  -10718.97368695 Ry
     estimated scf accuracy    <       0.00000026 Ry

     total magnetization       =    -2.61 Bohr mag/cell
     absolute magnetization    =    49.64 Bohr mag/cell

     iteration # 38     ecut=    71.00 Ry     beta= 0.30
     Davidson diagonalization with overlap
     ethr =  5.06E-11,  avg # of iterations =  3.5

     total cpu time spent up to now is    22919.1 secs

     total energy              =  -10718.97368536 Ry
     estimated scf accuracy    <       0.00000020 Ry

     total magnetization       =    -2.61 Bohr mag/cell
     absolute magnetization    =    49.64 Bohr mag/cell

     iteration # 39     ecut=    71.00 Ry     beta= 0.30
     Davidson diagonalization with overlap
     ethr =  3.80E-11,  avg # of iterations =  5.7

     total cpu time spent up to now is    23772.9 secs

     total energy              =  -10718.97368748 Ry
     estimated scf accuracy    <       0.00000015 Ry

     total magnetization       =    -2.61 Bohr mag/cell
     absolute magnetization    =    49.63 Bohr mag/cell

     iteration # 40     ecut=    71.00 Ry     beta= 0.30
     Davidson diagonalization with overlap
     ethr =  2.87E-11,  avg # of iterations =  2.0

     total cpu time spent up to now is    24335.4 secs

     total energy              =  -10718.97368746 Ry
     estimated scf accuracy    <       0.00000009 Ry

     total magnetization       =    -2.61 Bohr mag/cell
     absolute magnetization    =    49.63 Bohr mag/cell

     iteration # 41     ecut=    71.00 Ry     beta= 0.30
     Davidson diagonalization with overlap
     ethr =  1.75E-11,  avg # of iterations =  4.0

     total cpu time spent up to now is    24935.2 secs

     total energy              =  -10718.97368744 Ry
     estimated scf accuracy    <       0.00000007 Ry

     total magnetization       =    -2.61 Bohr mag/cell
     absolute magnetization    =    49.63 Bohr mag/cell

     iteration # 42     ecut=    71.00 Ry     beta= 0.30
     Davidson diagonalization with overlap
     ethr =  1.39E-11,  avg # of iterations =  4.8

     total cpu time spent up to now is    25660.3 secs

     total energy              =  -10718.97368768 Ry
     estimated scf accuracy    <       0.00000006 Ry

     total magnetization       =    -2.61 Bohr mag/cell
     absolute magnetization    =    49.63 Bohr mag/cell

     iteration # 43     ecut=    71.00 Ry     beta= 0.30
     Davidson diagonalization with overlap
     ethr =  1.20E-11,  avg # of iterations =  2.0

     total cpu time spent up to now is    26201.7 secs

     total energy              =  -10718.97368759 Ry
     estimated scf accuracy    <       0.00000005 Ry

     total magnetization       =    -2.61 Bohr mag/cell
     absolute magnetization    =    49.63 Bohr mag/cell

     iteration # 44     ecut=    71.00 Ry     beta= 0.30
     Davidson diagonalization with overlap
     ethr =  9.32E-12,  avg # of iterations =  4.9

     total cpu time spent up to now is    26910.2 secs

     total energy              =  -10718.97368778 Ry
     estimated scf accuracy    <       0.00000003 Ry

     total magnetization       =    -2.62 Bohr mag/cell
     absolute magnetization    =    49.63 Bohr mag/cell

     iteration # 45     ecut=    71.00 Ry     beta= 0.30
     Davidson diagonalization with overlap
     ethr =  5.09E-12,  avg # of iterations =  2.6

     total cpu time spent up to now is    27495.2 secs

     total energy              =  -10718.97368773 Ry
     estimated scf accuracy    <       0.00000003 Ry

     total magnetization       =    -2.62 Bohr mag/cell
     absolute magnetization    =    49.63 Bohr mag/cell

     iteration # 46     ecut=    71.00 Ry     beta= 0.30
     Davidson diagonalization with overlap
     ethr =  5.09E-12,  avg # of iterations =  5.0
 
     Magnetic moment per site:
     atom:    1    charge:   15.6845    magn:   -0.0793    constr:    0.0000
     atom:    2    charge:   14.3362    magn:   -1.6989    constr:    0.0000
     atom:    3    charge:   14.2241    magn:    1.7568    constr:    0.0000
     atom:    4    charge:   14.3437    magn:   -1.6766    constr:    0.0000
     atom:    5    charge:   14.2384    magn:    1.2999    constr:    0.0000
     atom:    6    charge:   14.3672    magn:   -1.4536    constr:    0.0000
     atom:    7    charge:   14.2170    magn:    1.7684    constr:    0.0000
     atom:    8    charge:   14.3363    magn:   -1.6989    constr:    0.0000
     atom:    9    charge:   14.2410    magn:    1.1821    constr:    0.0000
     atom:   10    charge:   14.3396    magn:   -1.6893    constr:    0.0000
     atom:   11    charge:   14.2418    magn:    1.5649    constr:    0.0000
     atom:   12    charge:   14.3479    magn:   -1.6666    constr:    0.0000
     atom:   13    charge:   14.2622    magn:    1.2088    constr:    0.0000
     atom:   14    charge:   14.3673    magn:   -1.4529    constr:    0.0000
     atom:   15    charge:   14.2419    magn:    1.5590    constr:    0.0000
     atom:   16    charge:   14.3397    magn:   -1.6892    constr:    0.0000
     atom:   17    charge:   14.2384    magn:    1.2999    constr:    0.0000
     atom:   18    charge:   14.3438    magn:   -1.6764    constr:    0.0000
     atom:   19    charge:   14.2331    magn:    1.7484    constr:    0.0000
     atom:   20    charge:   14.3671    magn:   -1.4625    constr:    0.0000
     atom:   21    charge:   14.2740    magn:    1.4075    constr:    0.0000
     atom:   22    charge:   14.3671    magn:   -1.4624    constr:    0.0000
     atom:   23    charge:   14.2242    magn:    1.7567    constr:    0.0000
     atom:   24    charge:   14.3673    magn:   -1.4539    constr:    0.0000
     atom:   25    charge:   14.2622    magn:    1.2087    constr:    0.0000
     atom:   26    charge:   14.3480    magn:   -1.6664    constr:    0.0000
     atom:   27    charge:   14.2417    magn:    1.5721    constr:    0.0000
     atom:   28    charge:   14.3671    magn:   -1.4617    constr:    0.0000
     atom:   29    charge:   14.2427    magn:    1.4976    constr:    0.0000
     atom:   30    charge:   14.3671    magn:   -1.4616    constr:    0.0000
     atom:   31    charge:   14.2418    magn:    1.5650    constr:    0.0000
     atom:   32    charge:   14.3673    magn:   -1.4531    constr:    0.0000

     total cpu time spent up to now is    28239.4 secs

     End of self-consistent calculation

     Number of k-points >= 100: set verbosity='high' to print the bands.

     the Fermi energy is    20.0411 ev

!    total energy              =  -10718.97368784 Ry

     total all-electron energy =    -89004.192891 Ry
     estimated scf accuracy    <          9.5E-09 Ry
     smearing contrib. (-TS)   =       0.00720294 Ry
     internal energy E=F+TS    =  -10718.98089078 Ry

     The total energy is F=E-TS. E is the sum of the following terms:
     one-electron contribution =   -3288.91221880 Ry
     hartree contribution      =    1995.23934533 Ry
     xc contribution           =    -890.08320156 Ry
     ewald contribution        =   -5713.23845407 Ry
     one-center paw contrib.   =   -2821.98636168 Ry

     total magnetization       =    -2.62 Bohr mag/cell
     absolute magnetization    =    49.63 Bohr mag/cell

     convergence has been achieved in  46 iterations

     Forces acting on atoms (cartesian axes, Ry/au):

     atom    1 type  3   force =     0.02718277    0.01252883   -0.02681752
     atom    2 type  2   force =    -0.00354804   -0.00384336    0.00014682
     atom    3 type  1   force =     0.00020812    0.00000886   -0.00067730
     atom    4 type  2   force =    -0.00004087    0.00161817    0.00062328
     atom    5 type  1   force =     0.00021899   -0.00003176    0.00080781
     atom    6 type  2   force =    -0.00010585   -0.00010118    0.00032377
     atom    7 type  1   force =    -0.00612666   -0.00005571    0.00613221
     atom    8 type  2   force =    -0.00014442   -0.00381549    0.00352346
     atom    9 type  1   force =     0.00014710   -0.00034030   -0.00014539
     atom   10 type  2   force =    -0.00116219    0.00155490    0.00010645
     atom   11 type  1   force =    -0.00009200   -0.00003355    0.00015272
     atom   12 type  2   force =     0.00002979   -0.00491658    0.00391347
     atom   13 type  1   force =     0.00005562   -0.00028979    0.00036476
     atom   14 type  2   force =     0.00004866    0.00003311    0.00035117
     atom   15 type  1   force =     0.00004198   -0.00001610   -0.00004273
     atom   16 type  2   force =    -0.00010448    0.00151895    0.00113223
     atom   17 type  1   force =    -0.00081917   -0.00002229   -0.00020596
     atom   18 type  2   force =    -0.00066038    0.00166657    0.00003723
     atom   19 type  1   force =    -0.00812945    0.00009825    0.00814722
     atom   20 type  2   force =    -0.00040719    0.00004062   -0.00001156
     atom   21 type  1   force =    -0.00133351    0.00001738    0.00131024
     atom   22 type  2   force =     0.00001104    0.00004223    0.00040061
     atom   23 type  1   force =     0.00058439    0.00000881   -0.00030154
     atom   24 type  2   force =    -0.00033076   -0.00009855    0.00010168
     atom   25 type  1   force =    -0.00036902   -0.00028791   -0.00005625
     atom   26 type  2   force =    -0.00395546   -0.00497083   -0.00002977
     atom   27 type  1   force =    -0.00005452   -0.00005653    0.00005414
     atom   28 type  2   force =    -0.00044594   -0.00013298    0.00015136
     atom   29 type  1   force =    -0.00003507    0.00000907    0.00003344
     atom   30 type  2   force =    -0.00014985   -0.00013468    0.00043471
     atom   31 type  1   force =    -0.00015670   -0.00003245    0.00008928
     atom   32 type  2   force =    -0.00035691    0.00003429   -0.00005006

     Total force =     0.044478     Total SCF correction =     0.000302


     Computing stress (Cartesian axis) and pressure

          total   stress  (Ry/bohr**3)                   (kbar)     P=        0.51
   0.00000353   0.00000102  -0.00000268            0.52        0.15       -0.39
   0.00000102   0.00000354  -0.00000100            0.15        0.52       -0.15
  -0.00000268  -0.00000100   0.00000338           -0.39       -0.15        0.50


     Writing output data file /scratch/bxp912/fepd02.save/
 
     init_run     :    165.44s CPU    168.95s WALL (       1 calls)
     electrons    :  27705.35s CPU  28069.94s WALL (       1 calls)
     forces       :     98.43s CPU     99.45s WALL (       1 calls)
     stress       :    455.19s CPU    459.74s WALL (       1 calls)

     Called by init_run:
     wfcinit      :    164.80s CPU    168.24s WALL (       1 calls)
     potinit      :      0.29s CPU      0.31s WALL (       1 calls)
     hinit0       :      0.21s CPU      0.22s WALL (       1 calls)

     Called by electrons:
     c_bands      :  24715.05s CPU  25019.17s WALL (      46 calls)
     sum_band     :   2978.00s CPU   3037.28s WALL (      46 calls)
     v_of_rho     :      1.03s CPU      1.10s WALL (      47 calls)
     newd         :      2.38s CPU      2.84s WALL (      47 calls)
     PAW_pot      :      8.10s CPU      8.66s WALL (      47 calls)
     mix_rho      :      0.81s CPU      0.90s WALL (      46 calls)

     Called by c_bands:
     init_us_2    :    106.32s CPU    108.70s WALL (   69350 calls)
     cegterg      :  24307.19s CPU  24590.61s WALL (   33580 calls)

     Called by *egterg:
     cdiaghg      :   3707.95s CPU   3728.17s WALL (  151900 calls)
     h_psi        :  12825.82s CPU  13031.60s WALL (  152630 calls)
     s_psi        :    942.40s CPU    950.24s WALL (  152630 calls)
     g_psi        :     23.75s CPU     24.09s WALL (  118320 calls)

     Called by h_psi:
     h_psi:calbec :   1937.13s CPU   1952.02s WALL (  152630 calls)
     vloc_psi     :   9891.45s CPU  10069.77s WALL (  152630 calls)
     add_vuspsi   :    944.43s CPU    956.55s WALL (  152630 calls)

     General routines
     calbec       :   2810.18s CPU   2831.68s WALL (  189860 calls)
     fft          :      0.80s CPU      0.85s WALL (    1213 calls)
     ffts         :      0.38s CPU      0.39s WALL (    1115 calls)
     fftw         :  11669.68s CPU  11878.68s WALL (61784062 calls)
     interpolate  :      0.10s CPU      0.11s WALL (      94 calls)
 
     Parallel routines
     fft_scatt_xy :    484.86s CPU    495.18s WALL (61786390 calls)
     fft_scatt_yz :   9991.78s CPU  10172.67s WALL (61786390 calls)
 
     PWSCF        :      7h55m CPU      8h 2m WALL

 
   This run was terminated on:  18:23:14  20May2022            

=------------------------------------------------------------------------------=
   JOB DONE.
=------------------------------------------------------------------------------=
