
     Program PWSCF v.6.7MaX starts on 22Apr2022 at  0: 6:55 

     This program is part of the open-source Quantum ESPRESSO suite
     for quantum simulation of materials; please cite
         "P. Giannozzi et al., J. Phys.:Condens. Matter 21 395502 (2009);
         "P. Giannozzi et al., J. Phys.:Condens. Matter 29 465901 (2017);
          URL http://www.quantum-espresso.org", 
     in publications or presentations arising from this work. More details at
     http://www.quantum-espresso.org/quote

     Parallel version (MPI & OpenMP), running on      72 processor cores
     Number of MPI processes:                72
     Threads/MPI process:                     1

     MPI processes distributed on     1 nodes
     R & G space division:  proc/nbgrp/npool/nimage =      72
     Reading input from fepd_relax.in

     Current dimensions of program PWSCF are:
     Max number of different atomic species (ntypx) = 10
     Max number of k-points (npk) =  40000
     Max angular momentum in pseudopotentials (lmaxx) =  3
     file Fe.pbe-spn-kjpaw_psl.1.0.0.UPF: wavefunction(s)  3P 3D renormalized
     file Fe.pbe-spn-kjpaw_psl.1.0.0.UPF: wavefunction(s)  3P 3D renormalized
     file Pd.pbe-spn-kjpaw_psl.1.0.0.UPF: wavefunction(s)  4S 5S 4D renormalized

     Subspace diagonalization in iterative solution of the eigenvalue problem:
     one sub-group per band group will be used
     ELPA distributed-memory algorithm (size of sub-group:  8*  8 procs)

     Message from routine setup:
     using ibrav=0 with symmetry is DISCOURAGED, use correct ibrav instead
 
     Parallelization info
     --------------------
     sticks:   dense  smooth     PW     G-vecs:    dense   smooth      PW
     Min          84      55     15                 4834     2593     373
     Max          85      56     16                 4839     2600     378
     Sum        6087    4017   1115               348163   187041   27031
 


     bravais-lattice index     =            0
     lattice parameter (alat)  =      13.0000  a.u.
     unit-cell volume          =    2313.3941 (a.u.)^3
     number of atoms/cell      =           32
     number of atomic types    =            3
     number of electrons       =       514.00
     number of Kohn-Sham states=          308
     kinetic-energy cutoff     =      71.0000  Ry
     charge density cutoff     =     430.0000  Ry
     scf convergence threshold =      1.0E-08
     mixing beta               =       0.3000
     number of iterations used =           10  local-TF  mixing
     energy convergence thresh.=      1.0E-04
     force convergence thresh. =      1.0E-03
     press convergence thresh. =      5.0E-01
     Exchange-correlation= SLA  PW   PBX  PBC
                           (   1   4   3   4   0   0   0)
     nstep                     =           40


     celldm(1)=  13.000000  celldm(2)=   0.000000  celldm(3)=   0.000000
     celldm(4)=   0.000000  celldm(5)=   0.000000  celldm(6)=   0.000000

     crystal axes: (cart. coord. in units of alat)
               a(1) = (   1.000000   0.000000   0.000000 )  
               a(2) = (   0.000000   1.052979   0.000000 )  
               a(3) = (   0.000000   0.000000   1.000000 )  

     reciprocal axes: (cart. coord. in units 2 pi/alat)
               b(1) = (  1.000000  0.000000  0.000000 )  
               b(2) = (  0.000000  0.949687  0.000000 )  
               b(3) = (  0.000000  0.000000  1.000000 )  


     PseudoPot. # 1 for Fe read from file:
     /rds/homes/b/bxp912/pp/Fe.pbe-spn-kjpaw_psl.1.0.0.UPF
     MD5 check sum: 42f43b795421b414b0dc916aa790dbcb
     Pseudo is Projector augmented-wave + core cor, Zval = 16.0
     Generated using &quot;atomic&quot; code by A. Dal Corso  v.6.3
     Shape of augmentation charge: PSQ
     Using radial grid of 1191 points,  6 beta functions with: 
                l(1) =   0
                l(2) =   0
                l(3) =   1
                l(4) =   1
                l(5) =   2
                l(6) =   2
     Q(r) pseudized with 0 coefficients 


     PseudoPot. # 2 for Fe read from file:
     /rds/homes/b/bxp912/pp/Fe.pbe-spn-kjpaw_psl.1.0.0.UPF
     MD5 check sum: 42f43b795421b414b0dc916aa790dbcb
     Pseudo is Projector augmented-wave + core cor, Zval = 16.0
     Generated using &quot;atomic&quot; code by A. Dal Corso  v.6.3
     Shape of augmentation charge: PSQ
     Using radial grid of 1191 points,  6 beta functions with: 
                l(1) =   0
                l(2) =   0
                l(3) =   1
                l(4) =   1
                l(5) =   2
                l(6) =   2
     Q(r) pseudized with 0 coefficients 


     PseudoPot. # 3 for Pd read from file:
     /rds/homes/b/bxp912/pp/Pd.pbe-spn-kjpaw_psl.1.0.0.UPF
     MD5 check sum: 790f2ebce206edfd9790dcb9844eca51
     Pseudo is Projector augmented-wave + core cor, Zval = 18.0
     Generated using &quot;atomic&quot; code by A. Dal Corso  v.6.3
     Shape of augmentation charge: PSQ
     Using radial grid of 1235 points,  6 beta functions with: 
                l(1) =   0
                l(2) =   0
                l(3) =   1
                l(4) =   1
                l(5) =   2
                l(6) =   2
     Q(r) pseudized with 0 coefficients 


     atomic species   valence    mass     pseudopotential
        Fe1           16.00    55.84500     Fe( 1.00)
        Fe2           16.00    55.84500     Fe( 1.00)
        Pd            18.00   106.42000     Pd( 1.00)

     Starting magnetic structure 
     atomic species   magnetization
        Fe1          0.100
        Fe2         -0.100
        Pd           0.010

     16 Sym. Ops., with inversion, found



   Cartesian axes

     site n.     atom                  positions (alat units)
         1           Pd  tau(   1) = (   0.0000000   0.0000000   0.0000000  )
         2           Fe2 tau(   2) = (   0.2524147   0.2659678   0.0000000  )
         3           Fe1 tau(   3) = (   0.2548950   0.0000000   0.2548950  )
         4           Fe2 tau(   4) = (   0.0000000   0.2659678   0.2524147  )
         5           Fe1 tau(   5) = (   0.0000000   0.0000000   0.5000000  )
         6           Fe2 tau(   6) = (   0.2503874   0.2637919   0.5000000  )
         7           Fe1 tau(   7) = (   0.2548950   0.0000000   0.7451050  )
         8           Fe2 tau(   8) = (   0.0000000   0.2659678   0.7475853  )
         9           Fe1 tau(   9) = (   0.0000000   0.5264893   0.0000000  )
        10           Fe2 tau(  10) = (   0.2524147   0.7870108   0.0000000  )
        11           Fe1 tau(  11) = (   0.2503991   0.5264893   0.2503991  )
        12           Fe2 tau(  12) = (   0.0000000   0.7870108   0.2524147  )
        13           Fe1 tau(  13) = (   0.0000000   0.5264893   0.5000000  )
        14           Fe2 tau(  14) = (   0.2503874   0.7891868   0.5000000  )
        15           Fe1 tau(  15) = (   0.2503991   0.5264893   0.7496009  )
        16           Fe2 tau(  16) = (   0.0000000   0.7870108   0.7475853  )
        17           Fe1 tau(  17) = (   0.5000000   0.0000000   0.0000000  )
        18           Fe2 tau(  18) = (   0.7475853   0.2659678   0.0000000  )
        19           Fe1 tau(  19) = (   0.7451050   0.0000000   0.2548950  )
        20           Fe2 tau(  20) = (   0.5000000   0.2637919   0.2503874  )
        21           Fe1 tau(  21) = (   0.5000000   0.0000000   0.5000000  )
        22           Fe2 tau(  22) = (   0.7496126   0.2637919   0.5000000  )
        23           Fe1 tau(  23) = (   0.7451050   0.0000000   0.7451050  )
        24           Fe2 tau(  24) = (   0.5000000   0.2637919   0.7496126  )
        25           Fe1 tau(  25) = (   0.5000000   0.5264893   0.0000000  )
        26           Fe2 tau(  26) = (   0.7475853   0.7870108   0.0000000  )
        27           Fe1 tau(  27) = (   0.7496009   0.5264893   0.2503991  )
        28           Fe2 tau(  28) = (   0.5000000   0.7891868   0.2503874  )
        29           Fe1 tau(  29) = (   0.5000000   0.5264893   0.5000000  )
        30           Fe2 tau(  30) = (   0.7496126   0.7891868   0.5000000  )
        31           Fe1 tau(  31) = (   0.7496009   0.5264893   0.7496009  )
        32           Fe2 tau(  32) = (   0.5000000   0.7891868   0.7496126  )

     number of k points=    75  Marzari-Vanderbilt smearing, width (Ry)=  0.0400
                       cart. coord. in units 2pi/alat
        k(    1) = (   0.0555556   0.0527604   0.0555556), wk =   0.0109739
        k(    2) = (   0.0555556   0.0527604   0.1666667), wk =   0.0219479
        k(    3) = (   0.0555556   0.0527604   0.2777778), wk =   0.0219479
        k(    4) = (   0.0555556   0.0527604   0.3888889), wk =   0.0219479
        k(    5) = (   0.0555556   0.0527604  -0.5000000), wk =   0.0109739
        k(    6) = (   0.0555556   0.1582811   0.0555556), wk =   0.0109739
        k(    7) = (   0.0555556   0.1582811   0.1666667), wk =   0.0219479
        k(    8) = (   0.0555556   0.1582811   0.2777778), wk =   0.0219479
        k(    9) = (   0.0555556   0.1582811   0.3888889), wk =   0.0219479
        k(   10) = (   0.0555556   0.1582811  -0.5000000), wk =   0.0109739
        k(   11) = (   0.0555556   0.2638019   0.0555556), wk =   0.0109739
        k(   12) = (   0.0555556   0.2638019   0.1666667), wk =   0.0219479
        k(   13) = (   0.0555556   0.2638019   0.2777778), wk =   0.0219479
        k(   14) = (   0.0555556   0.2638019   0.3888889), wk =   0.0219479
        k(   15) = (   0.0555556   0.2638019  -0.5000000), wk =   0.0109739
        k(   16) = (   0.0555556   0.3693227   0.0555556), wk =   0.0109739
        k(   17) = (   0.0555556   0.3693227   0.1666667), wk =   0.0219479
        k(   18) = (   0.0555556   0.3693227   0.2777778), wk =   0.0219479
        k(   19) = (   0.0555556   0.3693227   0.3888889), wk =   0.0219479
        k(   20) = (   0.0555556   0.3693227  -0.5000000), wk =   0.0109739
        k(   21) = (   0.0555556  -0.4748434   0.0555556), wk =   0.0054870
        k(   22) = (   0.0555556  -0.4748434   0.1666667), wk =   0.0109739
        k(   23) = (   0.0555556  -0.4748434   0.2777778), wk =   0.0109739
        k(   24) = (   0.0555556  -0.4748434   0.3888889), wk =   0.0109739
        k(   25) = (   0.0555556  -0.4748434  -0.5000000), wk =   0.0054870
        k(   26) = (   0.1666667   0.0527604   0.1666667), wk =   0.0109739
        k(   27) = (   0.1666667   0.0527604   0.2777778), wk =   0.0219479
        k(   28) = (   0.1666667   0.0527604   0.3888889), wk =   0.0219479
        k(   29) = (   0.1666667   0.0527604  -0.5000000), wk =   0.0109739
        k(   30) = (   0.1666667   0.1582811   0.1666667), wk =   0.0109739
        k(   31) = (   0.1666667   0.1582811   0.2777778), wk =   0.0219479
        k(   32) = (   0.1666667   0.1582811   0.3888889), wk =   0.0219479
        k(   33) = (   0.1666667   0.1582811  -0.5000000), wk =   0.0109739
        k(   34) = (   0.1666667   0.2638019   0.1666667), wk =   0.0109739
        k(   35) = (   0.1666667   0.2638019   0.2777778), wk =   0.0219479
        k(   36) = (   0.1666667   0.2638019   0.3888889), wk =   0.0219479
        k(   37) = (   0.1666667   0.2638019  -0.5000000), wk =   0.0109739
        k(   38) = (   0.1666667   0.3693227   0.1666667), wk =   0.0109739
        k(   39) = (   0.1666667   0.3693227   0.2777778), wk =   0.0219479
        k(   40) = (   0.1666667   0.3693227   0.3888889), wk =   0.0219479
        k(   41) = (   0.1666667   0.3693227  -0.5000000), wk =   0.0109739
        k(   42) = (   0.1666667  -0.4748434   0.1666667), wk =   0.0054870
        k(   43) = (   0.1666667  -0.4748434   0.2777778), wk =   0.0109739
        k(   44) = (   0.1666667  -0.4748434   0.3888889), wk =   0.0109739
        k(   45) = (   0.1666667  -0.4748434  -0.5000000), wk =   0.0054870
        k(   46) = (   0.2777778   0.0527604   0.2777778), wk =   0.0109739
        k(   47) = (   0.2777778   0.0527604   0.3888889), wk =   0.0219479
        k(   48) = (   0.2777778   0.0527604  -0.5000000), wk =   0.0109739
        k(   49) = (   0.2777778   0.1582811   0.2777778), wk =   0.0109739
        k(   50) = (   0.2777778   0.1582811   0.3888889), wk =   0.0219479
        k(   51) = (   0.2777778   0.1582811  -0.5000000), wk =   0.0109739
        k(   52) = (   0.2777778   0.2638019   0.2777778), wk =   0.0109739
        k(   53) = (   0.2777778   0.2638019   0.3888889), wk =   0.0219479
        k(   54) = (   0.2777778   0.2638019  -0.5000000), wk =   0.0109739
        k(   55) = (   0.2777778   0.3693227   0.2777778), wk =   0.0109739
        k(   56) = (   0.2777778   0.3693227   0.3888889), wk =   0.0219479
        k(   57) = (   0.2777778   0.3693227  -0.5000000), wk =   0.0109739
        k(   58) = (   0.2777778  -0.4748434   0.2777778), wk =   0.0054870
        k(   59) = (   0.2777778  -0.4748434   0.3888889), wk =   0.0109739
        k(   60) = (   0.2777778  -0.4748434  -0.5000000), wk =   0.0054870
        k(   61) = (   0.3888889   0.0527604   0.3888889), wk =   0.0109739
        k(   62) = (   0.3888889   0.0527604  -0.5000000), wk =   0.0109739
        k(   63) = (   0.3888889   0.1582811   0.3888889), wk =   0.0109739
        k(   64) = (   0.3888889   0.1582811  -0.5000000), wk =   0.0109739
        k(   65) = (   0.3888889   0.2638019   0.3888889), wk =   0.0109739
        k(   66) = (   0.3888889   0.2638019  -0.5000000), wk =   0.0109739
        k(   67) = (   0.3888889   0.3693227   0.3888889), wk =   0.0109739
        k(   68) = (   0.3888889   0.3693227  -0.5000000), wk =   0.0109739
        k(   69) = (   0.3888889  -0.4748434   0.3888889), wk =   0.0054870
        k(   70) = (   0.3888889  -0.4748434  -0.5000000), wk =   0.0054870
        k(   71) = (  -0.5000000   0.0527604  -0.5000000), wk =   0.0027435
        k(   72) = (  -0.5000000   0.1582811  -0.5000000), wk =   0.0027435
        k(   73) = (  -0.5000000   0.2638019  -0.5000000), wk =   0.0027435
        k(   74) = (  -0.5000000   0.3693227  -0.5000000), wk =   0.0027435
        k(   75) = (  -0.5000000  -0.4748434  -0.5000000), wk =   0.0013717

     Dense  grid:   348163 G-vectors     FFT dimensions: (  90,  96,  90)

     Smooth grid:   187041 G-vectors     FFT dimensions: (  72,  75,  72)

     Estimated max dynamical RAM per process >     266.28 MB

     Estimated total dynamical RAM >      18.72 GB

     Check: negative core charge=   -0.000006
     Generating pointlists ...
     new r_m :   0.1430 (alat units)  1.8588 (a.u.) for type    1
     new r_m :   0.1453 (alat units)  1.8883 (a.u.) for type    2
     new r_m :   0.1487 (alat units)  1.9331 (a.u.) for type    3

     Initial potential from superposition of free atoms

     starting charge  513.98605, renormalised to  514.00000
     Starting wfcs are  320 randomized atomic wfcs
     Checking if some PAW data can be deallocated... 

     total cpu time spent up to now is       39.1 secs

     Self-consistent Calculation

     iteration #  1     ecut=    71.00 Ry     beta= 0.30
     Davidson diagonalization with overlap
     ethr =  1.00E-02,  avg # of iterations =  3.0

     Threshold (ethr) on eigenvalues was too large:
     Diagonalizing with lowered threshold

     Davidson diagonalization with overlap
     ethr =  1.68E-04,  avg # of iterations =  6.4

     total cpu time spent up to now is      310.0 secs

     total energy              =  -10718.88710735 Ry
     estimated scf accuracy    <       1.70019713 Ry

     total magnetization       =    -1.50 Bohr mag/cell
     absolute magnetization    =    43.56 Bohr mag/cell

     iteration #  2     ecut=    71.00 Ry     beta= 0.30
     Davidson diagonalization with overlap
     ethr =  3.31E-04,  avg # of iterations =  1.2

     total cpu time spent up to now is      401.7 secs

     total energy              =  -10718.81817902 Ry
     estimated scf accuracy    <       0.56000266 Ry

     total magnetization       =    -1.64 Bohr mag/cell
     absolute magnetization    =    44.58 Bohr mag/cell

     iteration #  3     ecut=    71.00 Ry     beta= 0.30
     Davidson diagonalization with overlap
     ethr =  1.09E-04,  avg # of iterations =  3.3

     total cpu time spent up to now is      522.5 secs

     total energy              =  -10718.89595137 Ry
     estimated scf accuracy    <       0.59297489 Ry

     total magnetization       =    -1.61 Bohr mag/cell
     absolute magnetization    =    45.64 Bohr mag/cell

     iteration #  4     ecut=    71.00 Ry     beta= 0.30
     Davidson diagonalization with overlap
     ethr =  1.09E-04,  avg # of iterations =  1.6

     total cpu time spent up to now is      618.0 secs

     total energy              =  -10718.93120891 Ry
     estimated scf accuracy    <       0.05362506 Ry

     total magnetization       =    -1.75 Bohr mag/cell
     absolute magnetization    =    46.16 Bohr mag/cell

     iteration #  5     ecut=    71.00 Ry     beta= 0.30
     Davidson diagonalization with overlap
     ethr =  1.04E-05,  avg # of iterations =  3.5

     total cpu time spent up to now is      730.1 secs

     total energy              =  -10718.94995826 Ry
     estimated scf accuracy    <       0.04843075 Ry

     total magnetization       =    -1.75 Bohr mag/cell
     absolute magnetization    =    46.46 Bohr mag/cell

     iteration #  6     ecut=    71.00 Ry     beta= 0.30
     Davidson diagonalization with overlap
     ethr =  9.42E-06,  avg # of iterations =  2.0

     total cpu time spent up to now is      833.3 secs

     total energy              =  -10718.96018669 Ry
     estimated scf accuracy    <       0.01493359 Ry

     total magnetization       =    -1.86 Bohr mag/cell
     absolute magnetization    =    46.94 Bohr mag/cell

     iteration #  7     ecut=    71.00 Ry     beta= 0.30
     Davidson diagonalization with overlap
     c_bands:  2 eigenvalues not converged
     c_bands:  1 eigenvalues not converged
     c_bands:  1 eigenvalues not converged
     ethr =  2.91E-06,  avg # of iterations =  5.0

     total cpu time spent up to now is      960.5 secs

     total energy              =  -10718.96472634 Ry
     estimated scf accuracy    <       0.00622901 Ry

     total magnetization       =    -1.92 Bohr mag/cell
     absolute magnetization    =    47.45 Bohr mag/cell

     iteration #  8     ecut=    71.00 Ry     beta= 0.30
     Davidson diagonalization with overlap
     ethr =  1.21E-06,  avg # of iterations =  4.6

     total cpu time spent up to now is     1088.6 secs

     total energy              =  -10718.96624646 Ry
     estimated scf accuracy    <       0.00293105 Ry

     total magnetization       =    -1.96 Bohr mag/cell
     absolute magnetization    =    47.89 Bohr mag/cell

     iteration #  9     ecut=    71.00 Ry     beta= 0.30
     Davidson diagonalization with overlap
     ethr =  5.70E-07,  avg # of iterations =  3.0

     total cpu time spent up to now is     1194.9 secs

     total energy              =  -10718.96679428 Ry
     estimated scf accuracy    <       0.00108121 Ry

     total magnetization       =    -2.01 Bohr mag/cell
     absolute magnetization    =    48.25 Bohr mag/cell

     iteration # 10     ecut=    71.00 Ry     beta= 0.30
     Davidson diagonalization with overlap
     c_bands:  1 eigenvalues not converged
     ethr =  2.10E-07,  avg # of iterations =  2.8

     total cpu time spent up to now is     1297.7 secs

     total energy              =  -10718.96712801 Ry
     estimated scf accuracy    <       0.00065948 Ry

     total magnetization       =    -2.03 Bohr mag/cell
     absolute magnetization    =    48.37 Bohr mag/cell

     iteration # 11     ecut=    71.00 Ry     beta= 0.30
     Davidson diagonalization with overlap
     ethr =  1.28E-07,  avg # of iterations =  4.1

     total cpu time spent up to now is     1419.5 secs

     total energy              =  -10718.96746032 Ry
     estimated scf accuracy    <       0.00031059 Ry

     total magnetization       =    -2.09 Bohr mag/cell
     absolute magnetization    =    48.71 Bohr mag/cell

     iteration # 12     ecut=    71.00 Ry     beta= 0.30
     Davidson diagonalization with overlap
     ethr =  6.04E-08,  avg # of iterations =  3.4

     total cpu time spent up to now is     1536.4 secs

     total energy              =  -10718.96759419 Ry
     estimated scf accuracy    <       0.00026573 Ry

     total magnetization       =    -2.12 Bohr mag/cell
     absolute magnetization    =    48.91 Bohr mag/cell

     iteration # 13     ecut=    71.00 Ry     beta= 0.30
     Davidson diagonalization with overlap
     ethr =  5.17E-08,  avg # of iterations =  3.7

     total cpu time spent up to now is     1657.9 secs

     total energy              =  -10718.96765453 Ry
     estimated scf accuracy    <       0.00026675 Ry

     total magnetization       =    -2.17 Bohr mag/cell
     absolute magnetization    =    49.15 Bohr mag/cell

     iteration # 14     ecut=    71.00 Ry     beta= 0.30
     Davidson diagonalization with overlap
     ethr =  5.17E-08,  avg # of iterations =  4.2

     total cpu time spent up to now is     1784.9 secs

     total energy              =  -10718.96773845 Ry
     estimated scf accuracy    <       0.00006325 Ry

     total magnetization       =    -2.20 Bohr mag/cell
     absolute magnetization    =    49.25 Bohr mag/cell

     iteration # 15     ecut=    71.00 Ry     beta= 0.30
     Davidson diagonalization with overlap
     ethr =  1.23E-08,  avg # of iterations =  3.3

     total cpu time spent up to now is     1894.6 secs

     total energy              =  -10718.96775834 Ry
     estimated scf accuracy    <       0.00004632 Ry

     total magnetization       =    -2.21 Bohr mag/cell
     absolute magnetization    =    49.29 Bohr mag/cell

     iteration # 16     ecut=    71.00 Ry     beta= 0.30
     Davidson diagonalization with overlap
     ethr =  9.01E-09,  avg # of iterations =  1.8

     total cpu time spent up to now is     1992.1 secs

     total energy              =  -10718.96775185 Ry
     estimated scf accuracy    <       0.00004131 Ry

     total magnetization       =    -2.22 Bohr mag/cell
     absolute magnetization    =    49.31 Bohr mag/cell

     iteration # 17     ecut=    71.00 Ry     beta= 0.30
     Davidson diagonalization with overlap
     ethr =  8.04E-09,  avg # of iterations =  4.4

     total cpu time spent up to now is     2125.4 secs

     total energy              =  -10718.96782011 Ry
     estimated scf accuracy    <       0.00002864 Ry

     total magnetization       =    -2.26 Bohr mag/cell
     absolute magnetization    =    49.37 Bohr mag/cell

     iteration # 18     ecut=    71.00 Ry     beta= 0.30
     Davidson diagonalization with overlap
     ethr =  5.57E-09,  avg # of iterations =  2.0

     total cpu time spent up to now is     2228.2 secs

     total energy              =  -10718.96782633 Ry
     estimated scf accuracy    <       0.00001861 Ry

     total magnetization       =    -2.27 Bohr mag/cell
     absolute magnetization    =    49.37 Bohr mag/cell

     iteration # 19     ecut=    71.00 Ry     beta= 0.30
     Davidson diagonalization with overlap
     ethr =  3.62E-09,  avg # of iterations =  3.7

     total cpu time spent up to now is     2355.0 secs

     total energy              =  -10718.96783202 Ry
     estimated scf accuracy    <       0.00002258 Ry

     total magnetization       =    -2.26 Bohr mag/cell
     absolute magnetization    =    49.32 Bohr mag/cell

     iteration # 20     ecut=    71.00 Ry     beta= 0.30
     Davidson diagonalization with overlap
     ethr =  3.62E-09,  avg # of iterations =  3.6

     total cpu time spent up to now is     2482.8 secs

     total energy              =  -10718.96784983 Ry
     estimated scf accuracy    <       0.00001177 Ry

     total magnetization       =    -2.28 Bohr mag/cell
     absolute magnetization    =    49.34 Bohr mag/cell

     iteration # 21     ecut=    71.00 Ry     beta= 0.30
     Davidson diagonalization with overlap
     ethr =  2.29E-09,  avg # of iterations =  4.3

     total cpu time spent up to now is     2619.7 secs

     total energy              =  -10718.96785698 Ry
     estimated scf accuracy    <       0.00002081 Ry

     total magnetization       =    -2.29 Bohr mag/cell
     absolute magnetization    =    49.35 Bohr mag/cell

     iteration # 22     ecut=    71.00 Ry     beta= 0.30
     Davidson diagonalization with overlap
     ethr =  2.29E-09,  avg # of iterations =  3.9

     total cpu time spent up to now is     2749.0 secs

     total energy              =  -10718.96787131 Ry
     estimated scf accuracy    <       0.00001245 Ry

     total magnetization       =    -2.30 Bohr mag/cell
     absolute magnetization    =    49.33 Bohr mag/cell

     iteration # 23     ecut=    71.00 Ry     beta= 0.30
     Davidson diagonalization with overlap
     ethr =  2.29E-09,  avg # of iterations =  4.1

     total cpu time spent up to now is     2884.6 secs

     total energy              =  -10718.96788287 Ry
     estimated scf accuracy    <       0.00000664 Ry

     total magnetization       =    -2.30 Bohr mag/cell
     absolute magnetization    =    49.30 Bohr mag/cell

     iteration # 24     ecut=    71.00 Ry     beta= 0.30
     Davidson diagonalization with overlap
     ethr =  1.29E-09,  avg # of iterations =  4.2

     total cpu time spent up to now is     3016.4 secs

     total energy              =  -10718.96789010 Ry
     estimated scf accuracy    <       0.00000692 Ry

     total magnetization       =    -2.30 Bohr mag/cell
     absolute magnetization    =    49.26 Bohr mag/cell

     iteration # 25     ecut=    71.00 Ry     beta= 0.30
     Davidson diagonalization with overlap
     ethr =  1.29E-09,  avg # of iterations =  3.0

     total cpu time spent up to now is     3137.6 secs

     total energy              =  -10718.96789486 Ry
     estimated scf accuracy    <       0.00000312 Ry

     total magnetization       =    -2.31 Bohr mag/cell
     absolute magnetization    =    49.27 Bohr mag/cell

     iteration # 26     ecut=    71.00 Ry     beta= 0.30
     Davidson diagonalization with overlap
     ethr =  6.07E-10,  avg # of iterations =  4.5

     total cpu time spent up to now is     3271.1 secs

     total energy              =  -10718.96789694 Ry
     estimated scf accuracy    <       0.00000238 Ry

     total magnetization       =    -2.31 Bohr mag/cell
     absolute magnetization    =    49.27 Bohr mag/cell

     iteration # 27     ecut=    71.00 Ry     beta= 0.30
     Davidson diagonalization with overlap
     ethr =  4.64E-10,  avg # of iterations =  4.5

     total cpu time spent up to now is     3408.0 secs

     total energy              =  -10718.96790157 Ry
     estimated scf accuracy    <       0.00000165 Ry

     total magnetization       =    -2.31 Bohr mag/cell
     absolute magnetization    =    49.25 Bohr mag/cell

     iteration # 28     ecut=    71.00 Ry     beta= 0.30
     Davidson diagonalization with overlap
     ethr =  3.20E-10,  avg # of iterations =  3.3

     total cpu time spent up to now is     3529.8 secs

     total energy              =  -10718.96790326 Ry
     estimated scf accuracy    <       0.00000116 Ry

     total magnetization       =    -2.31 Bohr mag/cell
     absolute magnetization    =    49.24 Bohr mag/cell

     iteration # 29     ecut=    71.00 Ry     beta= 0.30
     Davidson diagonalization with overlap
     ethr =  2.26E-10,  avg # of iterations =  3.4

     total cpu time spent up to now is     3650.0 secs

     total energy              =  -10718.96789787 Ry
     estimated scf accuracy    <       0.00000115 Ry

     total magnetization       =    -2.31 Bohr mag/cell
     absolute magnetization    =    49.24 Bohr mag/cell

     iteration # 30     ecut=    71.00 Ry     beta= 0.30
     Davidson diagonalization with overlap
     ethr =  2.23E-10,  avg # of iterations =  5.3

     total cpu time spent up to now is     3813.6 secs

     total energy              =  -10718.96790487 Ry
     estimated scf accuracy    <       0.00000044 Ry

     total magnetization       =    -2.31 Bohr mag/cell
     absolute magnetization    =    49.24 Bohr mag/cell

     iteration # 31     ecut=    71.00 Ry     beta= 0.30
     Davidson diagonalization with overlap
     ethr =  8.55E-11,  avg # of iterations =  4.8

     total cpu time spent up to now is     3959.8 secs

     total energy              =  -10718.96790596 Ry
     estimated scf accuracy    <       0.00000030 Ry

     total magnetization       =    -2.31 Bohr mag/cell
     absolute magnetization    =    49.24 Bohr mag/cell

     iteration # 32     ecut=    71.00 Ry     beta= 0.30
     Davidson diagonalization with overlap
     ethr =  5.76E-11,  avg # of iterations =  4.3

     total cpu time spent up to now is     4094.4 secs

     total energy              =  -10718.96790651 Ry
     estimated scf accuracy    <       0.00000016 Ry

     total magnetization       =    -2.31 Bohr mag/cell
     absolute magnetization    =    49.24 Bohr mag/cell

     iteration # 33     ecut=    71.00 Ry     beta= 0.30
     Davidson diagonalization with overlap
     ethr =  3.17E-11,  avg # of iterations =  3.0

     total cpu time spent up to now is     4213.3 secs

     total energy              =  -10718.96790658 Ry
     estimated scf accuracy    <       0.00000009 Ry

     total magnetization       =    -2.31 Bohr mag/cell
     absolute magnetization    =    49.24 Bohr mag/cell

     iteration # 34     ecut=    71.00 Ry     beta= 0.30
     Davidson diagonalization with overlap
     ethr =  1.73E-11,  avg # of iterations =  4.5

     total cpu time spent up to now is     4346.6 secs

     total energy              =  -10718.96790668 Ry
     estimated scf accuracy    <       0.00000006 Ry

     total magnetization       =    -2.31 Bohr mag/cell
     absolute magnetization    =    49.24 Bohr mag/cell

     iteration # 35     ecut=    71.00 Ry     beta= 0.30
     Davidson diagonalization with overlap
     ethr =  1.20E-11,  avg # of iterations =  2.1

     total cpu time spent up to now is     4451.2 secs

     total energy              =  -10718.96790659 Ry
     estimated scf accuracy    <       0.00000005 Ry

     total magnetization       =    -2.31 Bohr mag/cell
     absolute magnetization    =    49.24 Bohr mag/cell

     iteration # 36     ecut=    71.00 Ry     beta= 0.30
     Davidson diagonalization with overlap
     ethr =  9.61E-12,  avg # of iterations =  4.8

     total cpu time spent up to now is     4599.1 secs

     total energy              =  -10718.96790674 Ry
     estimated scf accuracy    <       0.00000002 Ry

     total magnetization       =    -2.31 Bohr mag/cell
     absolute magnetization    =    49.24 Bohr mag/cell

     iteration # 37     ecut=    71.00 Ry     beta= 0.30
     Davidson diagonalization with overlap
     ethr =  4.62E-12,  avg # of iterations =  2.9

     total cpu time spent up to now is     4713.2 secs

     total energy              =  -10718.96790665 Ry
     estimated scf accuracy    <       0.00000003 Ry

     total magnetization       =    -2.31 Bohr mag/cell
     absolute magnetization    =    49.24 Bohr mag/cell

     iteration # 38     ecut=    71.00 Ry     beta= 0.30
     Davidson diagonalization with overlap
     ethr =  4.62E-12,  avg # of iterations =  4.7

     total cpu time spent up to now is     4863.3 secs

     total energy              =  -10718.96790670 Ry
     estimated scf accuracy    <       0.00000002 Ry

     total magnetization       =    -2.31 Bohr mag/cell
     absolute magnetization    =    49.24 Bohr mag/cell

     iteration # 39     ecut=    71.00 Ry     beta= 0.30
     Davidson diagonalization with overlap
     ethr =  3.17E-12,  avg # of iterations =  4.7
 
     Magnetic moment per site:
     atom:    1    charge:   15.8365    magn:   -0.0757    constr:    0.0000
     atom:    2    charge:   14.3790    magn:   -1.6320    constr:    0.0000
     atom:    3    charge:   14.2816    magn:    1.6930    constr:    0.0000
     atom:    4    charge:   14.3790    magn:   -1.6320    constr:    0.0000
     atom:    5    charge:   14.2896    magn:    1.3133    constr:    0.0000
     atom:    6    charge:   14.3907    magn:   -1.4700    constr:    0.0000
     atom:    7    charge:   14.2816    magn:    1.6930    constr:    0.0000
     atom:    8    charge:   14.3790    magn:   -1.6320    constr:    0.0000
     atom:    9    charge:   14.2934    magn:    1.1914    constr:    0.0000
     atom:   10    charge:   14.3790    magn:   -1.6320    constr:    0.0000
     atom:   11    charge:   14.2862    magn:    1.5681    constr:    0.0000
     atom:   12    charge:   14.3790    magn:   -1.6320    constr:    0.0000
     atom:   13    charge:   14.2979    magn:    1.3431    constr:    0.0000
     atom:   14    charge:   14.3907    magn:   -1.4700    constr:    0.0000
     atom:   15    charge:   14.2862    magn:    1.5681    constr:    0.0000
     atom:   16    charge:   14.3790    magn:   -1.6320    constr:    0.0000
     atom:   17    charge:   14.2896    magn:    1.3133    constr:    0.0000
     atom:   18    charge:   14.3790    magn:   -1.6320    constr:    0.0000
     atom:   19    charge:   14.2816    magn:    1.6930    constr:    0.0000
     atom:   20    charge:   14.3907    magn:   -1.4700    constr:    0.0000
     atom:   21    charge:   14.3140    magn:    1.3782    constr:    0.0000
     atom:   22    charge:   14.3907    magn:   -1.4700    constr:    0.0000
     atom:   23    charge:   14.2816    magn:    1.6930    constr:    0.0000
     atom:   24    charge:   14.3907    magn:   -1.4700    constr:    0.0000
     atom:   25    charge:   14.2979    magn:    1.3431    constr:    0.0000
     atom:   26    charge:   14.3790    magn:   -1.6320    constr:    0.0000
     atom:   27    charge:   14.2862    magn:    1.5681    constr:    0.0000
     atom:   28    charge:   14.3907    magn:   -1.4700    constr:    0.0000
     atom:   29    charge:   14.2892    magn:    1.4967    constr:    0.0000
     atom:   30    charge:   14.3907    magn:   -1.4700    constr:    0.0000
     atom:   31    charge:   14.2862    magn:    1.5681    constr:    0.0000
     atom:   32    charge:   14.3907    magn:   -1.4700    constr:    0.0000

     total cpu time spent up to now is     5013.1 secs

     End of self-consistent calculation

     Number of k-points >= 100: set verbosity='high' to print the bands.

     the Fermi energy is    20.1591 ev

!    total energy              =  -10718.96790677 Ry

     total all-electron energy =    -89004.187110 Ry
     estimated scf accuracy    <          9.7E-09 Ry
     smearing contrib. (-TS)   =       0.00465003 Ry
     internal energy E=F+TS    =  -10718.97255680 Ry

     The total energy is F=E-TS. E is the sum of the following terms:
     one-electron contribution =   -3269.75768236 Ry
     hartree contribution      =    1987.75759455 Ry
     xc contribution           =    -890.16161274 Ry
     ewald contribution        =   -5724.82051683 Ry
     one-center paw contrib.   =   -2821.99033942 Ry

     total magnetization       =    -2.31 Bohr mag/cell
     absolute magnetization    =    49.24 Bohr mag/cell

     convergence has been achieved in  39 iterations

     Forces acting on atoms (cartesian axes, Ry/au):

     atom    1 type  3   force =     0.00000000    0.00000000    0.00000000
     atom    2 type  2   force =     0.01076726    0.00996821    0.00000000
     atom    3 type  1   force =     0.00967850    0.00000000    0.00967850
     atom    4 type  2   force =     0.00000000    0.00996821    0.01076726
     atom    5 type  1   force =     0.00000000    0.00000000    0.00000000
     atom    6 type  2   force =     0.00026822    0.00015203    0.00000000
     atom    7 type  1   force =     0.00967850   -0.00000000   -0.00967850
     atom    8 type  2   force =     0.00000000    0.00996821   -0.01076726
     atom    9 type  1   force =     0.00000000    0.00000000    0.00000000
     atom   10 type  2   force =     0.01076726   -0.00996821   -0.00000000
     atom   11 type  1   force =     0.00041114    0.00000000    0.00041114
     atom   12 type  2   force =     0.00000000   -0.00996821    0.01076726
     atom   13 type  1   force =     0.00000000    0.00000000    0.00000000
     atom   14 type  2   force =     0.00026822   -0.00015203    0.00000000
     atom   15 type  1   force =     0.00041114    0.00000000   -0.00041114
     atom   16 type  2   force =     0.00000000   -0.00996821   -0.01076726
     atom   17 type  1   force =     0.00000000    0.00000000    0.00000000
     atom   18 type  2   force =    -0.01076726    0.00996821   -0.00000000
     atom   19 type  1   force =    -0.00967850    0.00000000    0.00967850
     atom   20 type  2   force =     0.00000000    0.00015203    0.00026822
     atom   21 type  1   force =     0.00000000    0.00000000    0.00000000
     atom   22 type  2   force =    -0.00026822    0.00015203    0.00000000
     atom   23 type  1   force =    -0.00967850   -0.00000000   -0.00967850
     atom   24 type  2   force =     0.00000000    0.00015203   -0.00026822
     atom   25 type  1   force =     0.00000000    0.00000000    0.00000000
     atom   26 type  2   force =    -0.01076726   -0.00996821    0.00000000
     atom   27 type  1   force =    -0.00041114   -0.00000000    0.00041114
     atom   28 type  2   force =     0.00000000   -0.00015203    0.00026822
     atom   29 type  1   force =     0.00000000    0.00000000    0.00000000
     atom   30 type  2   force =    -0.00026822   -0.00015203    0.00000000
     atom   31 type  1   force =    -0.00041114   -0.00000000   -0.00041114
     atom   32 type  2   force =     0.00000000   -0.00015203   -0.00026822

     Total force =     0.049738     Total SCF correction =     0.000356


     Computing stress (Cartesian axis) and pressure

          total   stress  (Ry/bohr**3)                   (kbar)     P=       10.68
   0.00006647   0.00000000   0.00000000            9.78        0.00        0.00
   0.00000000   0.00008485   0.00000000            0.00       12.48        0.00
   0.00000000   0.00000000   0.00006647            0.00        0.00        9.78


     BFGS Geometry Optimization
     Energy error            =      0.0E+00
     Gradient error          =      1.1E-02
     Cell gradient error     =      8.5E-05


     number of scf cycles    =   1
     number of bfgs steps    =   0

     enthalpy new            =  -10718.9679067722 Ry

     new trust radius        =       0.0204047403 bohr
     new conv_thr            =       0.0000000100 Ry

     new unit-cell volume =   2326.01283 a.u.^3 (   344.67954 Ang^3 )
     density =      8.85295 g/cm^3

CELL_PARAMETERS (alat= 13.00000000)
   1.001661834   0.000000000   0.000000000
   0.000000000   1.055212183   0.000000000
   0.000000000   0.000000000   1.001661834

ATOMIC_POSITIONS (crystal)
Pd            0.0000000000        0.0000000000        0.0000000000
Fe2           0.2532429573        0.2533143232        0.0000000000
Fe1           0.2556394590        0.0000000000        0.2556394590
Fe2           0.0000000000        0.2533143232        0.2532429573
Fe1           0.0000000000        0.0000000000        0.5000000000
Fe2           0.2504080244        0.2505307831        0.5000000000
Fe1           0.2556394590       -0.0000000000        0.7443605410
Fe2           0.0000000000        0.2533143232        0.7467570427
Fe1           0.0000000000        0.5000000000        0.0000000000
Fe2           0.2532429573        0.7466856768       -0.0000000000
Fe1           0.2504307731        0.5000000000        0.2504307731
Fe2           0.0000000000        0.7466856768        0.2532429573
Fe1           0.0000000000        0.5000000000        0.5000000000
Fe2           0.2504080244        0.7494692169        0.5000000000
Fe1           0.2504307731        0.5000000000        0.7495692269
Fe2           0.0000000000        0.7466856768        0.7467570427
Fe1           0.5000000000        0.0000000000        0.0000000000
Fe2           0.7467570427        0.2533143232       -0.0000000000
Fe1           0.7443605410        0.0000000000        0.2556394590
Fe2           0.5000000000        0.2505307831        0.2504080244
Fe1           0.5000000000        0.0000000000        0.5000000000
Fe2           0.7495919756        0.2505307831        0.5000000000
Fe1           0.7443605410       -0.0000000000        0.7443605410
Fe2           0.5000000000        0.2505307831        0.7495919756
Fe1           0.5000000000        0.5000000000        0.0000000000
Fe2           0.7467570427        0.7466856768        0.0000000000
Fe1           0.7495692269        0.5000000000        0.2504307731
Fe2           0.5000000000        0.7494692169        0.2504080244
Fe1           0.5000000000        0.5000000000        0.5000000000
Fe2           0.7495919756        0.7494692169        0.5000000000
Fe1           0.7495692269        0.5000000000        0.7495692269
Fe2           0.5000000000        0.7494692169        0.7495919756



     Writing output data file /scratch/bxp912/fepd_relax.save/
     NEW-OLD atomic charge density approx. for the potential

     Check: negative core charge=   -0.000006
     extrapolated charge  516.78841, renormalised to  514.00000
     Generating pointlists ...

     total cpu time spent up to now is     5132.2 secs

     Self-consistent Calculation

     iteration #  1     ecut=    71.00 Ry     beta= 0.30
     Davidson diagonalization with overlap
     c_bands:  1 eigenvalues not converged
     c_bands:  1 eigenvalues not converged
     c_bands:  1 eigenvalues not converged
     ethr =  1.00E-06,  avg # of iterations =  8.2

     total cpu time spent up to now is     5425.6 secs

     total energy              =  -10718.66329017 Ry
     estimated scf accuracy    <       0.57368462 Ry

     total magnetization       =    -2.34 Bohr mag/cell
     absolute magnetization    =    48.49 Bohr mag/cell

     iteration #  2     ecut=    71.00 Ry     beta= 0.30
     Davidson diagonalization with overlap
     ethr =  1.12E-04,  avg # of iterations =  5.2

     total cpu time spent up to now is     5584.7 secs

     total energy              =  -10718.98134448 Ry
     estimated scf accuracy    <       0.19057206 Ry

     total magnetization       =    -2.33 Bohr mag/cell
     absolute magnetization    =    49.83 Bohr mag/cell

     iteration #  3     ecut=    71.00 Ry     beta= 0.30
     Davidson diagonalization with overlap
     ethr =  3.71E-05,  avg # of iterations =  2.1

     total cpu time spent up to now is     5685.1 secs

     total energy              =  -10718.98096598 Ry
     estimated scf accuracy    <       0.08948363 Ry

     total magnetization       =    -2.36 Bohr mag/cell
     absolute magnetization    =    49.73 Bohr mag/cell

     iteration #  4     ecut=    71.00 Ry     beta= 0.30
     Davidson diagonalization with overlap
     ethr =  1.74E-05,  avg # of iterations =  1.2

     total cpu time spent up to now is     5776.0 secs

     total energy              =  -10718.97415361 Ry
     estimated scf accuracy    <       0.06325315 Ry

     total magnetization       =    -2.35 Bohr mag/cell
     absolute magnetization    =    49.70 Bohr mag/cell

     iteration #  5     ecut=    71.00 Ry     beta= 0.30
     Davidson diagonalization with overlap
     ethr =  1.23E-05,  avg # of iterations =  1.3

     total cpu time spent up to now is     5868.3 secs

     total energy              =  -10718.97356057 Ry
     estimated scf accuracy    <       0.03032769 Ry

     total magnetization       =    -2.36 Bohr mag/cell
     absolute magnetization    =    49.66 Bohr mag/cell

     iteration #  6     ecut=    71.00 Ry     beta= 0.30
     Davidson diagonalization with overlap
     ethr =  5.90E-06,  avg # of iterations =  1.6

     total cpu time spent up to now is     5963.6 secs

     total energy              =  -10718.96864091 Ry
     estimated scf accuracy    <       0.02217561 Ry

     total magnetization       =    -2.36 Bohr mag/cell
     absolute magnetization    =    49.65 Bohr mag/cell

     iteration #  7     ecut=    71.00 Ry     beta= 0.30
     Davidson diagonalization with overlap
     ethr =  4.31E-06,  avg # of iterations =  2.8

     total cpu time spent up to now is     6071.6 secs

     total energy              =  -10718.96930800 Ry
     estimated scf accuracy    <       0.00361099 Ry

     total magnetization       =    -2.37 Bohr mag/cell
     absolute magnetization    =    49.62 Bohr mag/cell

     iteration #  8     ecut=    71.00 Ry     beta= 0.30
     Davidson diagonalization with overlap
     ethr =  7.03E-07,  avg # of iterations =  4.7

     total cpu time spent up to now is     6206.3 secs

     total energy              =  -10718.97034366 Ry
     estimated scf accuracy    <       0.00021027 Ry

     total magnetization       =    -2.38 Bohr mag/cell
     absolute magnetization    =    49.64 Bohr mag/cell

     iteration #  9     ecut=    71.00 Ry     beta= 0.30
     Davidson diagonalization with overlap
     ethr =  4.09E-08,  avg # of iterations =  3.2

     total cpu time spent up to now is     6314.6 secs

     total energy              =  -10718.97034478 Ry
     estimated scf accuracy    <       0.00023812 Ry

     total magnetization       =    -2.38 Bohr mag/cell
     absolute magnetization    =    49.65 Bohr mag/cell

     iteration # 10     ecut=    71.00 Ry     beta= 0.30
     Davidson diagonalization with overlap
     ethr =  4.09E-08,  avg # of iterations =  2.0

     total cpu time spent up to now is     6424.0 secs

     total energy              =  -10718.97040149 Ry
     estimated scf accuracy    <       0.00010006 Ry

     total magnetization       =    -2.39 Bohr mag/cell
     absolute magnetization    =    49.69 Bohr mag/cell

     iteration # 11     ecut=    71.00 Ry     beta= 0.30
     Davidson diagonalization with overlap
     ethr =  1.95E-08,  avg # of iterations =  5.8

     total cpu time spent up to now is     6609.9 secs

     total energy              =  -10718.97037174 Ry
     estimated scf accuracy    <       0.00095841 Ry

     total magnetization       =    -2.40 Bohr mag/cell
     absolute magnetization    =    49.80 Bohr mag/cell

     iteration # 12     ecut=    71.00 Ry     beta= 0.30
     Davidson diagonalization with overlap
     ethr =  1.95E-08,  avg # of iterations =  4.5

     total cpu time spent up to now is     6764.3 secs

     total energy              =  -10718.97034267 Ry
     estimated scf accuracy    <       0.00017401 Ry

     total magnetization       =    -2.40 Bohr mag/cell
     absolute magnetization    =    49.78 Bohr mag/cell

     iteration # 13     ecut=    71.00 Ry     beta= 0.30
     Davidson diagonalization with overlap
     ethr =  1.95E-08,  avg # of iterations =  5.0

     total cpu time spent up to now is     6928.5 secs

     total energy              =  -10718.97039319 Ry
     estimated scf accuracy    <       0.00003352 Ry

     total magnetization       =    -2.40 Bohr mag/cell
     absolute magnetization    =    49.79 Bohr mag/cell

     iteration # 14     ecut=    71.00 Ry     beta= 0.30
     Davidson diagonalization with overlap
     ethr =  6.52E-09,  avg # of iterations =  2.2

     total cpu time spent up to now is     7041.5 secs

     total energy              =  -10718.97039868 Ry
     estimated scf accuracy    <       0.00000259 Ry

     total magnetization       =    -2.40 Bohr mag/cell
     absolute magnetization    =    49.81 Bohr mag/cell

     iteration # 15     ecut=    71.00 Ry     beta= 0.30
     Davidson diagonalization with overlap
     ethr =  5.03E-10,  avg # of iterations =  4.2

     total cpu time spent up to now is     7155.8 secs

     total energy              =  -10718.97039903 Ry
     estimated scf accuracy    <       0.00000164 Ry

     total magnetization       =    -2.41 Bohr mag/cell
     absolute magnetization    =    49.81 Bohr mag/cell

     iteration # 16     ecut=    71.00 Ry     beta= 0.30
     Davidson diagonalization with overlap
     ethr =  3.20E-10,  avg # of iterations =  4.8

     total cpu time spent up to now is     7294.9 secs

     total energy              =  -10718.97040013 Ry
     estimated scf accuracy    <       0.00000315 Ry

     total magnetization       =    -2.41 Bohr mag/cell
     absolute magnetization    =    49.83 Bohr mag/cell

     iteration # 17     ecut=    71.00 Ry     beta= 0.30
     Davidson diagonalization with overlap
     ethr =  3.20E-10,  avg # of iterations =  2.3

     total cpu time spent up to now is     7411.6 secs

     total energy              =  -10718.97040084 Ry
     estimated scf accuracy    <       0.00000062 Ry

     total magnetization       =    -2.42 Bohr mag/cell
     absolute magnetization    =    49.85 Bohr mag/cell

     iteration # 18     ecut=    71.00 Ry     beta= 0.30
     Davidson diagonalization with overlap
     ethr =  1.21E-10,  avg # of iterations =  2.3

     total cpu time spent up to now is     7518.7 secs

     total energy              =  -10718.97040094 Ry
     estimated scf accuracy    <       0.00000030 Ry

     total magnetization       =    -2.42 Bohr mag/cell
     absolute magnetization    =    49.85 Bohr mag/cell

     iteration # 19     ecut=    71.00 Ry     beta= 0.30
     Davidson diagonalization with overlap
     ethr =  5.82E-11,  avg # of iterations =  3.0

     total cpu time spent up to now is     7630.9 secs

     total energy              =  -10718.97040104 Ry
     estimated scf accuracy    <       0.00000014 Ry

     total magnetization       =    -2.42 Bohr mag/cell
     absolute magnetization    =    49.85 Bohr mag/cell

     iteration # 20     ecut=    71.00 Ry     beta= 0.30
     Davidson diagonalization with overlap
     ethr =  2.72E-11,  avg # of iterations =  3.3

     total cpu time spent up to now is     7746.3 secs

     total energy              =  -10718.97040107 Ry
     estimated scf accuracy    <       0.00000010 Ry

     total magnetization       =    -2.42 Bohr mag/cell
     absolute magnetization    =    49.85 Bohr mag/cell

     iteration # 21     ecut=    71.00 Ry     beta= 0.30
     Davidson diagonalization with overlap
     ethr =  2.03E-11,  avg # of iterations =  2.2

     total cpu time spent up to now is     7849.2 secs

     total energy              =  -10718.97040111 Ry
     estimated scf accuracy    <       0.00000007 Ry

     total magnetization       =    -2.42 Bohr mag/cell
     absolute magnetization    =    49.85 Bohr mag/cell

     iteration # 22     ecut=    71.00 Ry     beta= 0.30
     Davidson diagonalization with overlap
     ethr =  1.45E-11,  avg # of iterations =  3.0

     total cpu time spent up to now is     7958.0 secs

     total energy              =  -10718.97040113 Ry
     estimated scf accuracy    <       0.00000006 Ry

     total magnetization       =    -2.42 Bohr mag/cell
     absolute magnetization    =    49.85 Bohr mag/cell

     iteration # 23     ecut=    71.00 Ry     beta= 0.30
     Davidson diagonalization with overlap
     ethr =  1.19E-11,  avg # of iterations =  4.2

     total cpu time spent up to now is     8079.4 secs

     total energy              =  -10718.97040117 Ry
     estimated scf accuracy    <       0.00000003 Ry

     total magnetization       =    -2.42 Bohr mag/cell
     absolute magnetization    =    49.85 Bohr mag/cell

     iteration # 24     ecut=    71.00 Ry     beta= 0.30
     Davidson diagonalization with overlap
     ethr =  6.71E-12,  avg # of iterations =  1.8

     total cpu time spent up to now is     8176.6 secs

     total energy              =  -10718.97040117 Ry
     estimated scf accuracy    <       0.00000003 Ry

     total magnetization       =    -2.42 Bohr mag/cell
     absolute magnetization    =    49.85 Bohr mag/cell

     iteration # 25     ecut=    71.00 Ry     beta= 0.30
     Davidson diagonalization with overlap
     ethr =  6.25E-12,  avg # of iterations =  2.2

     total cpu time spent up to now is     8281.8 secs

     total energy              =  -10718.97040110 Ry
     estimated scf accuracy    <       0.00000003 Ry

     total magnetization       =    -2.42 Bohr mag/cell
     absolute magnetization    =    49.85 Bohr mag/cell

     iteration # 26     ecut=    71.00 Ry     beta= 0.30
     Davidson diagonalization with overlap
     ethr =  5.71E-12,  avg # of iterations =  5.3

     total cpu time spent up to now is     8442.3 secs

     total energy              =  -10718.97040124 Ry
     estimated scf accuracy    <       0.00000002 Ry

     total magnetization       =    -2.42 Bohr mag/cell
     absolute magnetization    =    49.85 Bohr mag/cell

     iteration # 27     ecut=    71.00 Ry     beta= 0.30
     Davidson diagonalization with overlap
     ethr =  4.19E-12,  avg # of iterations =  1.3

     total cpu time spent up to now is     8534.4 secs

     total energy              =  -10718.97040124 Ry
     estimated scf accuracy    <       0.00000001 Ry

     total magnetization       =    -2.42 Bohr mag/cell
     absolute magnetization    =    49.85 Bohr mag/cell

     iteration # 28     ecut=    71.00 Ry     beta= 0.30
     Davidson diagonalization with overlap
     ethr =  2.47E-12,  avg # of iterations =  2.0
 
     Magnetic moment per site:
     atom:    1    charge:   15.8236    magn:   -0.0793    constr:    0.0000
     atom:    2    charge:   14.3696    magn:   -1.6639    constr:    0.0000
     atom:    3    charge:   14.2734    magn:    1.7247    constr:    0.0000
     atom:    4    charge:   14.3696    magn:   -1.6639    constr:    0.0000
     atom:    5    charge:   14.2835    magn:    1.3230    constr:    0.0000
     atom:    6    charge:   14.3860    magn:   -1.4807    constr:    0.0000
     atom:    7    charge:   14.2734    magn:    1.7247    constr:    0.0000
     atom:    8    charge:   14.3696    magn:   -1.6639    constr:    0.0000
     atom:    9    charge:   14.2867    magn:    1.2139    constr:    0.0000
     atom:   10    charge:   14.3696    magn:   -1.6639    constr:    0.0000
     atom:   11    charge:   14.2814    magn:    1.5800    constr:    0.0000
     atom:   12    charge:   14.3696    magn:   -1.6639    constr:    0.0000
     atom:   13    charge:   14.2955    magn:    1.3280    constr:    0.0000
     atom:   14    charge:   14.3860    magn:   -1.4807    constr:    0.0000
     atom:   15    charge:   14.2814    magn:    1.5800    constr:    0.0000
     atom:   16    charge:   14.3696    magn:   -1.6639    constr:    0.0000
     atom:   17    charge:   14.2835    magn:    1.3230    constr:    0.0000
     atom:   18    charge:   14.3696    magn:   -1.6639    constr:    0.0000
     atom:   19    charge:   14.2734    magn:    1.7247    constr:    0.0000
     atom:   20    charge:   14.3860    magn:   -1.4807    constr:    0.0000
     atom:   21    charge:   14.3121    magn:    1.3985    constr:    0.0000
     atom:   22    charge:   14.3860    magn:   -1.4807    constr:    0.0000
     atom:   23    charge:   14.2734    magn:    1.7247    constr:    0.0000
     atom:   24    charge:   14.3860    magn:   -1.4807    constr:    0.0000
     atom:   25    charge:   14.2955    magn:    1.3280    constr:    0.0000
     atom:   26    charge:   14.3696    magn:   -1.6639    constr:    0.0000
     atom:   27    charge:   14.2814    magn:    1.5800    constr:    0.0000
     atom:   28    charge:   14.3860    magn:   -1.4807    constr:    0.0000
     atom:   29    charge:   14.2827    magn:    1.5203    constr:    0.0000
     atom:   30    charge:   14.3860    magn:   -1.4807    constr:    0.0000
     atom:   31    charge:   14.2814    magn:    1.5800    constr:    0.0000
     atom:   32    charge:   14.3860    magn:   -1.4807    constr:    0.0000

     total cpu time spent up to now is     8637.4 secs

     End of self-consistent calculation

     Number of k-points >= 100: set verbosity='high' to print the bands.

     the Fermi energy is    20.0317 ev

!    total energy              =  -10718.97040125 Ry

     total all-electron energy =    -89004.189604 Ry
     estimated scf accuracy    <          9.0E-09 Ry
     smearing contrib. (-TS)   =       0.00466465 Ry
     internal energy E=F+TS    =  -10718.97506590 Ry

     The total energy is F=E-TS. E is the sum of the following terms:
     one-electron contribution =   -3286.89476206 Ry
     hartree contribution      =    1993.99621141 Ry
     xc contribution           =    -890.06136970 Ry
     ewald contribution        =   -5714.02849970 Ry
     one-center paw contrib.   =   -2821.98664584 Ry

     total magnetization       =    -2.42 Bohr mag/cell
     absolute magnetization    =    49.85 Bohr mag/cell

     convergence has been achieved in  28 iterations

     Forces acting on atoms (cartesian axes, Ry/au):

     atom    1 type  3   force =     0.00000000    0.00000000    0.00000000
     atom    2 type  2   force =     0.00739604    0.00678790    0.00000000
     atom    3 type  1   force =     0.00623891    0.00000000    0.00623891
     atom    4 type  2   force =     0.00000000    0.00678790    0.00739604
     atom    5 type  1   force =     0.00000000    0.00000000    0.00000000
     atom    6 type  2   force =     0.00023602    0.00052789    0.00000000
     atom    7 type  1   force =     0.00623891   -0.00000000   -0.00623891
     atom    8 type  2   force =     0.00000000    0.00678790   -0.00739604
     atom    9 type  1   force =     0.00000000    0.00000000    0.00000000
     atom   10 type  2   force =     0.00739604   -0.00678790    0.00000000
     atom   11 type  1   force =     0.00066047    0.00000000    0.00066047
     atom   12 type  2   force =    -0.00000000   -0.00678790    0.00739604
     atom   13 type  1   force =     0.00000000    0.00000000    0.00000000
     atom   14 type  2   force =     0.00023602   -0.00052789   -0.00000000
     atom   15 type  1   force =     0.00066047    0.00000000   -0.00066047
     atom   16 type  2   force =     0.00000000   -0.00678790   -0.00739604
     atom   17 type  1   force =     0.00000000    0.00000000    0.00000000
     atom   18 type  2   force =    -0.00739604    0.00678790    0.00000000
     atom   19 type  1   force =    -0.00623891   -0.00000000    0.00623891
     atom   20 type  2   force =     0.00000000    0.00052789    0.00023602
     atom   21 type  1   force =     0.00000000    0.00000000    0.00000000
     atom   22 type  2   force =    -0.00023602    0.00052789    0.00000000
     atom   23 type  1   force =    -0.00623891    0.00000000   -0.00623891
     atom   24 type  2   force =    -0.00000000    0.00052789   -0.00023602
     atom   25 type  1   force =     0.00000000    0.00000000    0.00000000
     atom   26 type  2   force =    -0.00739604   -0.00678790    0.00000000
     atom   27 type  1   force =    -0.00066047    0.00000000    0.00066047
     atom   28 type  2   force =    -0.00000000   -0.00052789    0.00023602
     atom   29 type  1   force =     0.00000000    0.00000000    0.00000000
     atom   30 type  2   force =    -0.00023602   -0.00052789    0.00000000
     atom   31 type  1   force =    -0.00066047    0.00000000   -0.00066047
     atom   32 type  2   force =     0.00000000   -0.00052789   -0.00023602

     Total force =     0.033523     Total SCF correction =     0.000250


     Computing stress (Cartesian axis) and pressure

          total   stress  (Ry/bohr**3)                   (kbar)     P=       -0.85
  -0.00001452   0.00000000   0.00000000           -2.14        0.00        0.00
   0.00000000   0.00001178   0.00000000            0.00        1.73        0.00
   0.00000000   0.00000000  -0.00001452            0.00        0.00       -2.14

     Energy error            =      2.5E-03
     Gradient error          =      7.4E-03
     Cell gradient error     =      1.5E-05


     number of scf cycles    =   2
     number of bfgs steps    =   1

     enthalpy old            =  -10718.9679067722 Ry
     enthalpy new            =  -10718.9704012453 Ry

     CASE: enthalpy_new < enthalpy_old

     new trust radius        =       0.0253514198 bohr
     new conv_thr            =       0.0000000007 Ry

     new unit-cell volume =   2329.41192 a.u.^3 (   345.18323 Ang^3 )
     density =      8.84003 g/cm^3

CELL_PARAMETERS (alat= 13.00000000)
   1.001667098   0.000000000   0.000000000
   0.000000000   1.056743095   0.000000000
   0.000000000   0.000000000   1.001667098

ATOMIC_POSITIONS (crystal)
Pd            0.0000000000        0.0000000000        0.0000000000
Fe2           0.2546753919        0.2545659138        0.0000000000
Fe1           0.2568670484        0.0000000000        0.2568670484
Fe2           0.0000000000        0.2545659138        0.2546753919
Fe1           0.0000000000        0.0000000000        0.5000000000
Fe2           0.2504512982        0.2506089840        0.5000000000
Fe1           0.2568670484       -0.0000000000        0.7431329516
Fe2           0.0000000000        0.2545659138        0.7453246081
Fe1           0.0000000000        0.5000000000        0.0000000000
Fe2           0.2546753919        0.7454340862       -0.0000000000
Fe1           0.2505408963        0.5000000000        0.2505408963
Fe2          -0.0000000000        0.7454340862        0.2546753919
Fe1           0.0000000000        0.5000000000        0.5000000000
Fe2           0.2504512982        0.7493910160        0.5000000000
Fe1           0.2505408963        0.5000000000        0.7494591037
Fe2           0.0000000000        0.7454340862        0.7453246081
Fe1           0.5000000000        0.0000000000        0.0000000000
Fe2           0.7453246081        0.2545659138       -0.0000000000
Fe1           0.7431329516       -0.0000000000        0.2568670484
Fe2           0.5000000000        0.2506089840        0.2504512982
Fe1           0.5000000000        0.0000000000        0.5000000000
Fe2           0.7495487018        0.2506089840        0.5000000000
Fe1           0.7431329516       -0.0000000000        0.7431329516
Fe2           0.5000000000        0.2506089840        0.7495487018
Fe1           0.5000000000        0.5000000000        0.0000000000
Fe2           0.7453246081        0.7454340862        0.0000000000
Fe1           0.7494591037        0.5000000000        0.2505408963
Fe2           0.5000000000        0.7493910160        0.2504512982
Fe1           0.5000000000        0.5000000000        0.5000000000
Fe2           0.7495487018        0.7493910160        0.5000000000
Fe1           0.7494591037        0.5000000000        0.7494591037
Fe2           0.5000000000        0.7493910160        0.7495487018



     Writing output data file /scratch/bxp912/fepd_relax.save/
     NEW-OLD atomic charge density approx. for the potential

     Check: negative core charge=   -0.000006
     extrapolated charge  514.75001, renormalised to  514.00000
     Generating pointlists ...

     total cpu time spent up to now is     8756.1 secs

     Self-consistent Calculation

     iteration #  1     ecut=    71.00 Ry     beta= 0.30
     Davidson diagonalization with overlap
     ethr =  1.00E-06,  avg # of iterations =  8.1

     total cpu time spent up to now is     9041.0 secs

     total energy              =  -10718.94543890 Ry
     estimated scf accuracy    <       0.04815055 Ry

     total magnetization       =    -2.47 Bohr mag/cell
     absolute magnetization    =    49.67 Bohr mag/cell

     iteration #  2     ecut=    71.00 Ry     beta= 0.30
     Davidson diagonalization with overlap
     ethr =  9.37E-06,  avg # of iterations =  4.1

     total cpu time spent up to now is     9195.1 secs

     total energy              =  -10718.96995798 Ry
     estimated scf accuracy    <       0.01531806 Ry

     total magnetization       =    -2.47 Bohr mag/cell
     absolute magnetization    =    50.00 Bohr mag/cell

     iteration #  3     ecut=    71.00 Ry     beta= 0.30
     Davidson diagonalization with overlap
     ethr =  2.98E-06,  avg # of iterations =  1.4

     total cpu time spent up to now is     9288.0 secs

     total energy              =  -10718.97039032 Ry
     estimated scf accuracy    <       0.00862393 Ry

     total magnetization       =    -2.48 Bohr mag/cell
     absolute magnetization    =    49.99 Bohr mag/cell

     iteration #  4     ecut=    71.00 Ry     beta= 0.30
     Davidson diagonalization with overlap
     ethr =  1.68E-06,  avg # of iterations =  1.0

     total cpu time spent up to now is     9377.3 secs

     total energy              =  -10718.97006384 Ry
     estimated scf accuracy    <       0.00682996 Ry

     total magnetization       =    -2.48 Bohr mag/cell
     absolute magnetization    =    49.98 Bohr mag/cell

     iteration #  5     ecut=    71.00 Ry     beta= 0.30
     Davidson diagonalization with overlap
     ethr =  1.33E-06,  avg # of iterations =  2.3

     total cpu time spent up to now is     9495.3 secs

     total energy              =  -10718.97136108 Ry
     estimated scf accuracy    <       0.00102394 Ry

     total magnetization       =    -2.49 Bohr mag/cell
     absolute magnetization    =    49.95 Bohr mag/cell

     iteration #  6     ecut=    71.00 Ry     beta= 0.30
     Davidson diagonalization with overlap
     ethr =  1.99E-07,  avg # of iterations =  3.9

     total cpu time spent up to now is     9614.8 secs

     total energy              =  -10718.97176506 Ry
     estimated scf accuracy    <       0.00049039 Ry

     total magnetization       =    -2.50 Bohr mag/cell
     absolute magnetization    =    49.95 Bohr mag/cell

     iteration #  7     ecut=    71.00 Ry     beta= 0.30
     Davidson diagonalization with overlap
     ethr =  9.54E-08,  avg # of iterations =  2.0

     total cpu time spent up to now is     9719.2 secs

     total energy              =  -10718.97205072 Ry
     estimated scf accuracy    <       0.00032761 Ry

     total magnetization       =    -2.51 Bohr mag/cell
     absolute magnetization    =    49.96 Bohr mag/cell

     iteration #  8     ecut=    71.00 Ry     beta= 0.30
     Davidson diagonalization with overlap
     ethr =  6.37E-08,  avg # of iterations =  2.0

     total cpu time spent up to now is     9836.2 secs

     total energy              =  -10718.97210668 Ry
     estimated scf accuracy    <       0.00029721 Ry

     total magnetization       =    -2.51 Bohr mag/cell
     absolute magnetization    =    49.99 Bohr mag/cell

     iteration #  9     ecut=    71.00 Ry     beta= 0.30
     Davidson diagonalization with overlap
     ethr =  5.78E-08,  avg # of iterations =  2.0

     total cpu time spent up to now is     9948.8 secs

     total energy              =  -10718.97209684 Ry
     estimated scf accuracy    <       0.00026665 Ry

     total magnetization       =    -2.53 Bohr mag/cell
     absolute magnetization    =    50.01 Bohr mag/cell

     iteration # 10     ecut=    71.00 Ry     beta= 0.30
     Davidson diagonalization with overlap
     ethr =  5.19E-08,  avg # of iterations =  1.3

     total cpu time spent up to now is    10041.5 secs

     total energy              =  -10718.97210376 Ry
     estimated scf accuracy    <       0.00005942 Ry

     total magnetization       =    -2.53 Bohr mag/cell
     absolute magnetization    =    50.00 Bohr mag/cell

     iteration # 11     ecut=    71.00 Ry     beta= 0.30
     Davidson diagonalization with overlap
     ethr =  1.16E-08,  avg # of iterations =  2.9

     total cpu time spent up to now is    10161.1 secs

     total energy              =  -10718.97211157 Ry
     estimated scf accuracy    <       0.00000715 Ry

     total magnetization       =    -2.53 Bohr mag/cell
     absolute magnetization    =    50.00 Bohr mag/cell

     iteration # 12     ecut=    71.00 Ry     beta= 0.30
     Davidson diagonalization with overlap
     ethr =  1.39E-09,  avg # of iterations =  4.5

     total cpu time spent up to now is    10286.6 secs

     total energy              =  -10718.97211368 Ry
     estimated scf accuracy    <       0.00000279 Ry

     total magnetization       =    -2.53 Bohr mag/cell
     absolute magnetization    =    50.00 Bohr mag/cell

     iteration # 13     ecut=    71.00 Ry     beta= 0.30
     Davidson diagonalization with overlap
     ethr =  5.42E-10,  avg # of iterations =  2.1

     total cpu time spent up to now is    10389.2 secs

     total energy              =  -10718.97211460 Ry
     estimated scf accuracy    <       0.00000278 Ry

     total magnetization       =    -2.54 Bohr mag/cell
     absolute magnetization    =    50.01 Bohr mag/cell

     iteration # 14     ecut=    71.00 Ry     beta= 0.30
     Davidson diagonalization with overlap
     ethr =  5.41E-10,  avg # of iterations =  4.4

     total cpu time spent up to now is    10525.5 secs

     total energy              =  -10718.97211806 Ry
     estimated scf accuracy    <       0.00000129 Ry

     total magnetization       =    -2.54 Bohr mag/cell
     absolute magnetization    =    50.02 Bohr mag/cell

     iteration # 15     ecut=    71.00 Ry     beta= 0.30
     Davidson diagonalization with overlap
     ethr =  2.51E-10,  avg # of iterations =  4.3

     total cpu time spent up to now is    10670.7 secs

     total energy              =  -10718.97211922 Ry
     estimated scf accuracy    <       0.00000101 Ry

     total magnetization       =    -2.55 Bohr mag/cell
     absolute magnetization    =    50.02 Bohr mag/cell

     iteration # 16     ecut=    71.00 Ry     beta= 0.30
     Davidson diagonalization with overlap
     ethr =  1.96E-10,  avg # of iterations =  3.0

     total cpu time spent up to now is    10820.1 secs

     total energy              =  -10718.97211982 Ry
     estimated scf accuracy    <       0.00000059 Ry

     total magnetization       =    -2.55 Bohr mag/cell
     absolute magnetization    =    50.03 Bohr mag/cell

     iteration # 17     ecut=    71.00 Ry     beta= 0.30
     Davidson diagonalization with overlap
     ethr =  1.16E-10,  avg # of iterations =  3.7

     total cpu time spent up to now is    10951.8 secs

     total energy              =  -10718.97212003 Ry
     estimated scf accuracy    <       0.00000038 Ry

     total magnetization       =    -2.55 Bohr mag/cell
     absolute magnetization    =    50.03 Bohr mag/cell

     iteration # 18     ecut=    71.00 Ry     beta= 0.30
     Davidson diagonalization with overlap
     ethr =  7.48E-11,  avg # of iterations =  4.4

     total cpu time spent up to now is    11089.3 secs

     total energy              =  -10718.97212042 Ry
     estimated scf accuracy    <       0.00000028 Ry

     total magnetization       =    -2.56 Bohr mag/cell
     absolute magnetization    =    50.03 Bohr mag/cell

     iteration # 19     ecut=    71.00 Ry     beta= 0.30
     Davidson diagonalization with overlap
     ethr =  5.42E-11,  avg # of iterations =  3.3

     total cpu time spent up to now is    11243.2 secs

     total energy              =  -10718.97212065 Ry
     estimated scf accuracy    <       0.00000024 Ry

     total magnetization       =    -2.56 Bohr mag/cell
     absolute magnetization    =    50.03 Bohr mag/cell

     iteration # 20     ecut=    71.00 Ry     beta= 0.30
     Davidson diagonalization with overlap
     ethr =  4.69E-11,  avg # of iterations =  2.0

     total cpu time spent up to now is    11347.1 secs

     total energy              =  -10718.97212071 Ry
     estimated scf accuracy    <       0.00000018 Ry

     total magnetization       =    -2.56 Bohr mag/cell
     absolute magnetization    =    50.02 Bohr mag/cell

     iteration # 21     ecut=    71.00 Ry     beta= 0.30
     Davidson diagonalization with overlap
     ethr =  3.48E-11,  avg # of iterations =  3.0

     total cpu time spent up to now is    11457.7 secs

     total energy              =  -10718.97212074 Ry
     estimated scf accuracy    <       0.00000017 Ry

     total magnetization       =    -2.56 Bohr mag/cell
     absolute magnetization    =    50.02 Bohr mag/cell

     iteration # 22     ecut=    71.00 Ry     beta= 0.30
     Davidson diagonalization with overlap
     ethr =  3.27E-11,  avg # of iterations =  4.6

     total cpu time spent up to now is    11592.2 secs

     total energy              =  -10718.97212102 Ry
     estimated scf accuracy    <       0.00000011 Ry

     total magnetization       =    -2.56 Bohr mag/cell
     absolute magnetization    =    50.02 Bohr mag/cell

     iteration # 23     ecut=    71.00 Ry     beta= 0.30
     Davidson diagonalization with overlap
     ethr =  2.19E-11,  avg # of iterations =  3.2

     total cpu time spent up to now is    11712.9 secs

     total energy              =  -10718.97212109 Ry
     estimated scf accuracy    <       0.00000008 Ry

     total magnetization       =    -2.56 Bohr mag/cell
     absolute magnetization    =    50.02 Bohr mag/cell

     iteration # 24     ecut=    71.00 Ry     beta= 0.30
     Davidson diagonalization with overlap
     ethr =  1.59E-11,  avg # of iterations =  4.5

     total cpu time spent up to now is    11846.6 secs

     total energy              =  -10718.97212123 Ry
     estimated scf accuracy    <       0.00000006 Ry

     total magnetization       =    -2.56 Bohr mag/cell
     absolute magnetization    =    50.01 Bohr mag/cell

     iteration # 25     ecut=    71.00 Ry     beta= 0.30
     Davidson diagonalization with overlap
     ethr =  1.19E-11,  avg # of iterations =  1.9

     total cpu time spent up to now is    11945.1 secs

     total energy              =  -10718.97212124 Ry
     estimated scf accuracy    <       0.00000006 Ry

     total magnetization       =    -2.56 Bohr mag/cell
     absolute magnetization    =    50.01 Bohr mag/cell

     iteration # 26     ecut=    71.00 Ry     beta= 0.30
     Davidson diagonalization with overlap
     ethr =  1.08E-11,  avg # of iterations =  3.6

     total cpu time spent up to now is    12066.0 secs

     total energy              =  -10718.97212107 Ry
     estimated scf accuracy    <       0.00000004 Ry

     total magnetization       =    -2.56 Bohr mag/cell
     absolute magnetization    =    50.01 Bohr mag/cell

     iteration # 27     ecut=    71.00 Ry     beta= 0.30
     Davidson diagonalization with overlap
     ethr =  8.22E-12,  avg # of iterations =  5.5

     total cpu time spent up to now is    12234.1 secs

     total energy              =  -10718.97212144 Ry
     estimated scf accuracy    <       0.00000003 Ry

     total magnetization       =    -2.56 Bohr mag/cell
     absolute magnetization    =    50.01 Bohr mag/cell

     iteration # 28     ecut=    71.00 Ry     beta= 0.30
     Davidson diagonalization with overlap
     ethr =  6.27E-12,  avg # of iterations =  2.5

     total cpu time spent up to now is    12343.6 secs

     total energy              =  -10718.97212143 Ry
     estimated scf accuracy    <       0.00000003 Ry

     total magnetization       =    -2.56 Bohr mag/cell
     absolute magnetization    =    50.01 Bohr mag/cell

     iteration # 29     ecut=    71.00 Ry     beta= 0.30
     Davidson diagonalization with overlap
     ethr =  5.07E-12,  avg # of iterations =  4.8

     total cpu time spent up to now is    12485.8 secs

     total energy              =  -10718.97212149 Ry
     estimated scf accuracy    <       0.00000002 Ry

     total magnetization       =    -2.56 Bohr mag/cell
     absolute magnetization    =    50.01 Bohr mag/cell

     iteration # 30     ecut=    71.00 Ry     beta= 0.30
     Davidson diagonalization with overlap
     ethr =  3.84E-12,  avg # of iterations =  2.3

     total cpu time spent up to now is    12594.3 secs

     total energy              =  -10718.97212146 Ry
     estimated scf accuracy    <       0.00000002 Ry

     total magnetization       =    -2.56 Bohr mag/cell
     absolute magnetization    =    50.01 Bohr mag/cell

     iteration # 31     ecut=    71.00 Ry     beta= 0.30
     Davidson diagonalization with overlap
     ethr =  3.84E-12,  avg # of iterations =  4.9

     total cpu time spent up to now is    12740.1 secs

     total energy              =  -10718.97212148 Ry
     estimated scf accuracy    <       0.00000001 Ry

     total magnetization       =    -2.56 Bohr mag/cell
     absolute magnetization    =    50.01 Bohr mag/cell

     iteration # 32     ecut=    71.00 Ry     beta= 0.30
     Davidson diagonalization with overlap
     ethr =  2.00E-12,  avg # of iterations =  5.3

     total cpu time spent up to now is    12901.0 secs

     total energy              =  -10718.97212155 Ry
     estimated scf accuracy    <          5.5E-09 Ry

     total magnetization       =    -2.56 Bohr mag/cell
     absolute magnetization    =    50.01 Bohr mag/cell

     iteration # 33     ecut=    71.00 Ry     beta= 0.30
     Davidson diagonalization with overlap
     ethr =  1.07E-12,  avg # of iterations =  1.9

     total cpu time spent up to now is    12999.2 secs

     total energy              =  -10718.97212155 Ry
     estimated scf accuracy    <          4.4E-09 Ry

     total magnetization       =    -2.56 Bohr mag/cell
     absolute magnetization    =    50.01 Bohr mag/cell

     iteration # 34     ecut=    71.00 Ry     beta= 0.30
     Davidson diagonalization with overlap
     ethr =  8.64E-13,  avg # of iterations =  1.8

     total cpu time spent up to now is    13097.4 secs

     total energy              =  -10718.97212155 Ry
     estimated scf accuracy    <          3.6E-09 Ry

     total magnetization       =    -2.56 Bohr mag/cell
     absolute magnetization    =    50.01 Bohr mag/cell

     iteration # 35     ecut=    71.00 Ry     beta= 0.30
     Davidson diagonalization with overlap
     ethr =  7.03E-13,  avg # of iterations =  4.5

     total cpu time spent up to now is    13230.9 secs

     total energy              =  -10718.97212155 Ry
     estimated scf accuracy    <          2.8E-09 Ry

     total magnetization       =    -2.56 Bohr mag/cell
     absolute magnetization    =    50.01 Bohr mag/cell

     iteration # 36     ecut=    71.00 Ry     beta= 0.30
     Davidson diagonalization with overlap
     ethr =  5.35E-13,  avg # of iterations =  4.9

     total cpu time spent up to now is    13375.2 secs

     total energy              =  -10718.97212155 Ry
     estimated scf accuracy    <          1.9E-09 Ry

     total magnetization       =    -2.56 Bohr mag/cell
     absolute magnetization    =    50.01 Bohr mag/cell

     iteration # 37     ecut=    71.00 Ry     beta= 0.30
     Davidson diagonalization with overlap
     ethr =  3.62E-13,  avg # of iterations =  5.8
 
     Magnetic moment per site:
     atom:    1    charge:   15.8097    magn:   -0.0809    constr:    0.0000
     atom:    2    charge:   14.3647    magn:   -1.6884    constr:    0.0000
     atom:    3    charge:   14.2689    magn:    1.7542    constr:    0.0000
     atom:    4    charge:   14.3647    magn:   -1.6884    constr:    0.0000
     atom:    5    charge:   14.2821    magn:    1.3124    constr:    0.0000
     atom:    6    charge:   14.3882    magn:   -1.4742    constr:    0.0000
     atom:    7    charge:   14.2689    magn:    1.7542    constr:    0.0000
     atom:    8    charge:   14.3647    magn:   -1.6884    constr:    0.0000
     atom:    9    charge:   14.2844    magn:    1.2186    constr:    0.0000
     atom:   10    charge:   14.3647    magn:   -1.6884    constr:    0.0000
     atom:   11    charge:   14.2827    magn:    1.5804    constr:    0.0000
     atom:   12    charge:   14.3647    magn:   -1.6884    constr:    0.0000
     atom:   13    charge:   14.3015    magn:    1.2662    constr:    0.0000
     atom:   14    charge:   14.3882    magn:   -1.4742    constr:    0.0000
     atom:   15    charge:   14.2827    magn:    1.5804    constr:    0.0000
     atom:   16    charge:   14.3647    magn:   -1.6884    constr:    0.0000
     atom:   17    charge:   14.2821    magn:    1.3124    constr:    0.0000
     atom:   18    charge:   14.3647    magn:   -1.6884    constr:    0.0000
     atom:   19    charge:   14.2689    magn:    1.7542    constr:    0.0000
     atom:   20    charge:   14.3882    magn:   -1.4742    constr:    0.0000
[...]

     total magnetization       =    -2.61 Bohr mag/cell
     absolute magnetization    =    49.67 Bohr mag/cell

     iteration # 27     ecut=    71.00 Ry     beta= 0.30
     Davidson diagonalization with overlap
     ethr =  7.50E-10,  avg # of iterations =  4.3

     total cpu time spent up to now is    34747.7 secs

     total energy              =  -10718.97607703 Ry
     estimated scf accuracy    <       0.00000301 Ry

     total magnetization       =    -2.61 Bohr mag/cell
     absolute magnetization    =    49.66 Bohr mag/cell

     iteration # 28     ecut=    71.00 Ry     beta= 0.30
     Davidson diagonalization with overlap
     ethr =  5.85E-10,  avg # of iterations =  3.9

     total cpu time spent up to now is    34870.3 secs

     total energy              =  -10718.97606559 Ry
     estimated scf accuracy    <       0.00000234 Ry

     total magnetization       =    -2.61 Bohr mag/cell
     absolute magnetization    =    49.66 Bohr mag/cell

     iteration # 29     ecut=    71.00 Ry     beta= 0.30
     Davidson diagonalization with overlap
     ethr =  4.55E-10,  avg # of iterations =  5.5

     total cpu time spent up to now is    35037.4 secs

     total energy              =  -10718.97608586 Ry
     estimated scf accuracy    <       0.00000134 Ry

     total magnetization       =    -2.61 Bohr mag/cell
     absolute magnetization    =    49.64 Bohr mag/cell

     iteration # 30     ecut=    71.00 Ry     beta= 0.30
     Davidson diagonalization with overlap
     ethr =  2.61E-10,  avg # of iterations =  3.6

     total cpu time spent up to now is    35158.2 secs

     total energy              =  -10718.97608212 Ry
     estimated scf accuracy    <       0.00000090 Ry

     total magnetization       =    -2.62 Bohr mag/cell
     absolute magnetization    =    49.65 Bohr mag/cell

     iteration # 31     ecut=    71.00 Ry     beta= 0.30
     Davidson diagonalization with overlap
     ethr =  1.76E-10,  avg # of iterations =  5.4

     total cpu time spent up to now is    35320.9 secs

     total energy              =  -10718.97608740 Ry
     estimated scf accuracy    <       0.00000046 Ry

     total magnetization       =    -2.62 Bohr mag/cell
     absolute magnetization    =    49.64 Bohr mag/cell

     iteration # 32     ecut=    71.00 Ry     beta= 0.30
     Davidson diagonalization with overlap
     ethr =  9.03E-11,  avg # of iterations =  4.8

     total cpu time spent up to now is    35469.0 secs

     total energy              =  -10718.97608875 Ry
     estimated scf accuracy    <       0.00000026 Ry

     total magnetization       =    -2.62 Bohr mag/cell
     absolute magnetization    =    49.64 Bohr mag/cell

     iteration # 33     ecut=    71.00 Ry     beta= 0.30
     Davidson diagonalization with overlap
     ethr =  5.04E-11,  avg # of iterations =  4.3

     total cpu time spent up to now is    35603.8 secs

     total energy              =  -10718.97608908 Ry
     estimated scf accuracy    <       0.00000019 Ry

     total magnetization       =    -2.62 Bohr mag/cell
     absolute magnetization    =    49.63 Bohr mag/cell

     iteration # 34     ecut=    71.00 Ry     beta= 0.30
     Davidson diagonalization with overlap
     ethr =  3.70E-11,  avg # of iterations =  4.2

     total cpu time spent up to now is    35730.3 secs

     total energy              =  -10718.97608940 Ry
     estimated scf accuracy    <       0.00000014 Ry

     total magnetization       =    -2.63 Bohr mag/cell
     absolute magnetization    =    49.63 Bohr mag/cell

     iteration # 35     ecut=    71.00 Ry     beta= 0.30
     Davidson diagonalization with overlap
     ethr =  2.80E-11,  avg # of iterations =  2.4

     total cpu time spent up to now is    35834.1 secs

     total energy              =  -10718.97608947 Ry
     estimated scf accuracy    <       0.00000012 Ry

     total magnetization       =    -2.63 Bohr mag/cell
     absolute magnetization    =    49.63 Bohr mag/cell

     iteration # 36     ecut=    71.00 Ry     beta= 0.30
     Davidson diagonalization with overlap
     ethr =  2.36E-11,  avg # of iterations =  4.1

     total cpu time spent up to now is    35956.5 secs

     total energy              =  -10718.97608934 Ry
     estimated scf accuracy    <       0.00000008 Ry

     total magnetization       =    -2.63 Bohr mag/cell
     absolute magnetization    =    49.63 Bohr mag/cell

     iteration # 37     ecut=    71.00 Ry     beta= 0.30
     Davidson diagonalization with overlap
     ethr =  1.65E-11,  avg # of iterations =  5.0

     total cpu time spent up to now is    36107.6 secs

     total energy              =  -10718.97608941 Ry
     estimated scf accuracy    <       0.00000006 Ry

     total magnetization       =    -2.63 Bohr mag/cell
     absolute magnetization    =    49.63 Bohr mag/cell

     iteration # 38     ecut=    71.00 Ry     beta= 0.30
     Davidson diagonalization with overlap
     ethr =  1.15E-11,  avg # of iterations =  4.7

     total cpu time spent up to now is    36257.0 secs

     total energy              =  -10718.97608963 Ry
     estimated scf accuracy    <       0.00000005 Ry

     total magnetization       =    -2.63 Bohr mag/cell
     absolute magnetization    =    49.63 Bohr mag/cell

     iteration # 39     ecut=    71.00 Ry     beta= 0.30
     Davidson diagonalization with overlap
     ethr =  9.30E-12,  avg # of iterations =  4.4

     total cpu time spent up to now is    36391.4 secs

     total energy              =  -10718.97608966 Ry
     estimated scf accuracy    <       0.00000003 Ry

     total magnetization       =    -2.63 Bohr mag/cell
     absolute magnetization    =    49.63 Bohr mag/cell

     iteration # 40     ecut=    71.00 Ry     beta= 0.30
     Davidson diagonalization with overlap
     ethr =  5.33E-12,  avg # of iterations =  4.4

     total cpu time spent up to now is    36525.0 secs

     total energy              =  -10718.97608972 Ry
     estimated scf accuracy    <       0.00000002 Ry

     total magnetization       =    -2.63 Bohr mag/cell
     absolute magnetization    =    49.63 Bohr mag/cell

     iteration # 41     ecut=    71.00 Ry     beta= 0.30
     Davidson diagonalization with overlap
     ethr =  4.42E-12,  avg # of iterations =  2.0

     total cpu time spent up to now is    36628.8 secs

     total energy              =  -10718.97608959 Ry
     estimated scf accuracy    <       0.00000002 Ry

     total magnetization       =    -2.63 Bohr mag/cell
     absolute magnetization    =    49.63 Bohr mag/cell

     iteration # 42     ecut=    71.00 Ry     beta= 0.30
     Davidson diagonalization with overlap
     ethr =  3.18E-12,  avg # of iterations =  5.8

     total cpu time spent up to now is    36798.1 secs

     total energy              =  -10718.97608976 Ry
     estimated scf accuracy    <       0.00000001 Ry

     total magnetization       =    -2.63 Bohr mag/cell
     absolute magnetization    =    49.63 Bohr mag/cell

     iteration # 43     ecut=    71.00 Ry     beta= 0.30
     Davidson diagonalization with overlap
     ethr =  2.27E-12,  avg # of iterations =  3.2

     total cpu time spent up to now is    36919.0 secs

     total energy              =  -10718.97608973 Ry
     estimated scf accuracy    <          6.3E-09 Ry

     total magnetization       =    -2.63 Bohr mag/cell
     absolute magnetization    =    49.63 Bohr mag/cell

     iteration # 44     ecut=    71.00 Ry     beta= 0.30
     Davidson diagonalization with overlap
     ethr =  1.23E-12,  avg # of iterations =  5.8

     total cpu time spent up to now is    37095.6 secs

     total energy              =  -10718.97608978 Ry
     estimated scf accuracy    <          3.2E-09 Ry

     total magnetization       =    -2.63 Bohr mag/cell
     absolute magnetization    =    49.63 Bohr mag/cell

     iteration # 45     ecut=    71.00 Ry     beta= 0.30
     Davidson diagonalization with overlap
     ethr =  6.25E-13,  avg # of iterations =  3.3

     total cpu time spent up to now is    37216.2 secs

     total energy              =  -10718.97608978 Ry
     estimated scf accuracy    <          2.0E-09 Ry

     total magnetization       =    -2.63 Bohr mag/cell
     absolute magnetization    =    49.63 Bohr mag/cell

     iteration # 46     ecut=    71.00 Ry     beta= 0.30
     Davidson diagonalization with overlap
     ethr =  3.82E-13,  avg # of iterations =  4.9

     total cpu time spent up to now is    37366.3 secs

     total energy              =  -10718.97608979 Ry
     estimated scf accuracy    <          9.2E-10 Ry

     total magnetization       =    -2.63 Bohr mag/cell
     absolute magnetization    =    49.63 Bohr mag/cell

     iteration # 47     ecut=    71.00 Ry     beta= 0.30
     Davidson diagonalization with overlap
     ethr =  1.79E-13,  avg # of iterations =  2.8

     total cpu time spent up to now is    37479.2 secs

     total energy              =  -10718.97608979 Ry
     estimated scf accuracy    <          7.0E-10 Ry

     total magnetization       =    -2.63 Bohr mag/cell
     absolute magnetization    =    49.63 Bohr mag/cell

     iteration # 48     ecut=    71.00 Ry     beta= 0.30
     Davidson diagonalization with overlap
     ethr =  1.36E-13,  avg # of iterations =  4.9

     total cpu time spent up to now is    37625.5 secs

     total energy              =  -10718.97608979 Ry
     estimated scf accuracy    <          6.4E-10 Ry

     total magnetization       =    -2.63 Bohr mag/cell
     absolute magnetization    =    49.63 Bohr mag/cell

     iteration # 49     ecut=    71.00 Ry     beta= 0.30
     Davidson diagonalization with overlap
     ethr =  1.24E-13,  avg # of iterations =  4.1

     total cpu time spent up to now is    37752.1 secs

     total energy              =  -10718.97608979 Ry
     estimated scf accuracy    <          3.8E-10 Ry

     total magnetization       =    -2.63 Bohr mag/cell
     absolute magnetization    =    49.63 Bohr mag/cell

     iteration # 50     ecut=    71.00 Ry     beta= 0.30
     Davidson diagonalization with overlap
     ethr =  1.00E-13,  avg # of iterations =  2.3

     total cpu time spent up to now is    37864.2 secs

     total energy              =  -10718.97608979 Ry
     estimated scf accuracy    <          2.2E-10 Ry

     total magnetization       =    -2.63 Bohr mag/cell
     absolute magnetization    =    49.63 Bohr mag/cell

     iteration # 51     ecut=    71.00 Ry     beta= 0.30
     Davidson diagonalization with overlap
     ethr =  1.00E-13,  avg # of iterations =  2.8

     total cpu time spent up to now is    37974.3 secs

     total energy              =  -10718.97608979 Ry
     estimated scf accuracy    <          1.7E-10 Ry

     total magnetization       =    -2.63 Bohr mag/cell
     absolute magnetization    =    49.63 Bohr mag/cell

     iteration # 52     ecut=    71.00 Ry     beta= 0.30
     Davidson diagonalization with overlap
     ethr =  1.00E-13,  avg # of iterations =  2.1
 
     Magnetic moment per site:
     atom:    1    charge:   15.8074    magn:   -0.0798    constr:    0.0000
     atom:    2    charge:   14.3663    magn:   -1.6855    constr:    0.0000
     atom:    3    charge:   14.2691    magn:    1.7609    constr:    0.0000
     atom:    4    charge:   14.3663    magn:   -1.6855    constr:    0.0000
     atom:    5    charge:   14.2835    magn:    1.3031    constr:    0.0000
     atom:    6    charge:   14.3922    magn:   -1.4591    constr:    0.0000
     atom:    7    charge:   14.2691    magn:    1.7609    constr:    0.0000
     atom:    8    charge:   14.3663    magn:   -1.6855    constr:    0.0000
     atom:    9    charge:   14.2863    magn:    1.1806    constr:    0.0000
     atom:   10    charge:   14.3663    magn:   -1.6855    constr:    0.0000
     atom:   11    charge:   14.2872    magn:    1.5702    constr:    0.0000
     atom:   12    charge:   14.3663    magn:   -1.6855    constr:    0.0000
     atom:   13    charge:   14.3084    magn:    1.2086    constr:    0.0000
     atom:   14    charge:   14.3922    magn:   -1.4591    constr:    0.0000
     atom:   15    charge:   14.2872    magn:    1.5702    constr:    0.0000
     atom:   16    charge:   14.3663    magn:   -1.6855    constr:    0.0000
     atom:   17    charge:   14.2835    magn:    1.3031    constr:    0.0000
     atom:   18    charge:   14.3663    magn:   -1.6855    constr:    0.0000
     atom:   19    charge:   14.2691    magn:    1.7609    constr:    0.0000
     atom:   20    charge:   14.3922    magn:   -1.4591    constr:    0.0000
     atom:   21    charge:   14.3205    magn:    1.4122    constr:    0.0000
     atom:   22    charge:   14.3922    magn:   -1.4591    constr:    0.0000
     atom:   23    charge:   14.2691    magn:    1.7609    constr:    0.0000
     atom:   24    charge:   14.3922    magn:   -1.4591    constr:    0.0000
     atom:   25    charge:   14.3084    magn:    1.2086    constr:    0.0000
     atom:   26    charge:   14.3663    magn:   -1.6855    constr:    0.0000
     atom:   27    charge:   14.2872    magn:    1.5702    constr:    0.0000
     atom:   28    charge:   14.3922    magn:   -1.4591    constr:    0.0000
     atom:   29    charge:   14.2882    magn:    1.5005    constr:    0.0000
     atom:   30    charge:   14.3922    magn:   -1.4591    constr:    0.0000
     atom:   31    charge:   14.2872    magn:    1.5702    constr:    0.0000
     atom:   32    charge:   14.3922    magn:   -1.4591    constr:    0.0000

     total cpu time spent up to now is    38075.7 secs

     End of self-consistent calculation

     Number of k-points >= 100: set verbosity='high' to print the bands.

     the Fermi energy is    20.0409 ev

!    total energy              =  -10718.97608979 Ry

     total all-electron energy =    -89004.195293 Ry
     estimated scf accuracy    <          8.8E-11 Ry
     smearing contrib. (-TS)   =       0.00719159 Ry
     internal energy E=F+TS    =  -10718.98328138 Ry

     The total energy is F=E-TS. E is the sum of the following terms:
     one-electron contribution =   -3288.45865205 Ry
     hartree contribution      =    1995.01318082 Ry
     xc contribution           =    -890.08029185 Ry
     ewald contribution        =   -5713.47107741 Ry
     one-center paw contrib.   =   -2821.98644091 Ry

     total magnetization       =    -2.63 Bohr mag/cell
     absolute magnetization    =    49.63 Bohr mag/cell

     convergence has been achieved in  52 iterations

     Forces acting on atoms (cartesian axes, Ry/au):

     atom    1 type  3   force =     0.00000000    0.00000000    0.00000000
     atom    2 type  2   force =    -0.00016027    0.00008443    0.00000000
     atom    3 type  1   force =    -0.00006363    0.00000000   -0.00006363
     atom    4 type  2   force =     0.00000000    0.00008443   -0.00016027
     atom    5 type  1   force =     0.00000000    0.00000000    0.00000000
     atom    6 type  2   force =    -0.00001308    0.00001510    0.00000000
     atom    7 type  1   force =    -0.00006363    0.00000000    0.00006363
     atom    8 type  2   force =     0.00000000    0.00008443    0.00016027
     atom    9 type  1   force =     0.00000000    0.00000000    0.00000000
     atom   10 type  2   force =    -0.00016027   -0.00008443    0.00000000
     atom   11 type  1   force =     0.00004852    0.00000000    0.00004852
     atom   12 type  2   force =     0.00000000   -0.00008443   -0.00016027
     atom   13 type  1   force =     0.00000000    0.00000000    0.00000000
     atom   14 type  2   force =    -0.00001308   -0.00001510    0.00000000
     atom   15 type  1   force =     0.00004852    0.00000000   -0.00004852
     atom   16 type  2   force =     0.00000000   -0.00008443    0.00016027
     atom   17 type  1   force =     0.00000000    0.00000000    0.00000000
     atom   18 type  2   force =     0.00016027    0.00008443    0.00000000
     atom   19 type  1   force =     0.00006363    0.00000000   -0.00006363
     atom   20 type  2   force =     0.00000000    0.00001510   -0.00001308
     atom   21 type  1   force =     0.00000000    0.00000000    0.00000000
     atom   22 type  2   force =     0.00001308    0.00001510    0.00000000
     atom   23 type  1   force =     0.00006363    0.00000000    0.00006363
     atom   24 type  2   force =     0.00000000    0.00001510    0.00001308
     atom   25 type  1   force =     0.00000000    0.00000000    0.00000000
     atom   26 type  2   force =     0.00016027   -0.00008443    0.00000000
     atom   27 type  1   force =    -0.00004852    0.00000000    0.00004852
     atom   28 type  2   force =     0.00000000   -0.00001510   -0.00001308
     atom   29 type  1   force =     0.00000000    0.00000000    0.00000000
     atom   30 type  2   force =     0.00001308   -0.00001510    0.00000000
     atom   31 type  1   force =    -0.00004852    0.00000000   -0.00004852
     atom   32 type  2   force =     0.00000000   -0.00001510    0.00001308

     Total force =     0.000563     Total SCF correction =     0.000032


     Computing stress (Cartesian axis) and pressure

          total   stress  (Ry/bohr**3)                   (kbar)     P=        0.10
   0.00000050   0.00000000   0.00000000            0.07        0.00        0.00
   0.00000000   0.00000104   0.00000000            0.00        0.15        0.00
   0.00000000   0.00000000   0.00000050            0.00        0.00        0.07


     Writing output data file /scratch/bxp912/fepd_relax.save/
 
     init_run     :     68.79s CPU     70.58s WALL (       2 calls)
     electrons    :  36585.90s CPU  37177.72s WALL (       8 calls)
     update_pot   :      4.85s CPU      4.95s WALL (       6 calls)
     forces       :    163.05s CPU    164.48s WALL (       8 calls)
     stress       :    737.68s CPU    744.42s WALL (       8 calls)

     Called by init_run:
     wfcinit      :     66.61s CPU     68.10s WALL (       2 calls)
     potinit      :      0.83s CPU      0.89s WALL (       2 calls)
     hinit0       :      0.87s CPU      0.90s WALL (       2 calls)

     Called by electrons:
     c_bands      :  32633.75s CPU  33138.19s WALL (     296 calls)
     sum_band     :   3874.06s CPU   3952.24s WALL (     296 calls)
     v_of_rho     :      6.67s CPU      7.05s WALL (     302 calls)
     newd         :     15.01s CPU     18.06s WALL (     302 calls)
     PAW_pot      :     52.82s CPU     55.99s WALL (     308 calls)
     mix_rho      :      5.12s CPU      5.57s WALL (     296 calls)

     Called by c_bands:
     init_us_2    :    136.72s CPU    140.11s WALL (   92400 calls)
     cegterg      :  32107.61s CPU  32476.67s WALL (   44410 calls)

     Called by *egterg:
     cdiaghg      :   4806.65s CPU   4833.12s WALL (  197691 calls)
     h_psi        :  16915.49s CPU  17186.61s WALL (  199196 calls)
     s_psi        :   1254.84s CPU   1264.53s WALL (  199196 calls)
     g_psi        :     32.70s CPU     33.19s WALL (  154486 calls)

     Called by h_psi:
     h_psi:calbec :   2529.68s CPU   2547.99s WALL (  199196 calls)
     vloc_psi     :  13054.68s CPU  13287.87s WALL (  199196 calls)
     add_vuspsi   :   1258.32s CPU   1277.41s WALL (  199196 calls)

     General routines
     calbec       :   3856.71s CPU   3884.89s WALL (  250496 calls)
     fft          :      5.09s CPU      5.22s WALL (    7864 calls)
     ffts         :      2.52s CPU      2.59s WALL (    6954 calls)
     fftw         :  15343.18s CPU  15614.91s WALL (82320834 calls)
     interpolate  :      0.63s CPU      0.64s WALL (     604 calls)
 
     Parallel routines
     fft_scatt_xy :    655.31s CPU    667.37s WALL (82335652 calls)
     fft_scatt_yz :  13121.15s CPU  13356.80s WALL (82335652 calls)
 
     PWSCF        :     10h26m CPU     10h37m WALL

 
   This run was terminated on:  10:44: 2  22Apr2022            

=------------------------------------------------------------------------------=
   JOB DONE.
=------------------------------------------------------------------------------=
