
     Program PWSCF v.6.7MaX starts on 19Mar2022 at 16:43:37 

     This program is part of the open-source Quantum ESPRESSO suite
     for quantum simulation of materials; please cite
         "P. Giannozzi et al., J. Phys.:Condens. Matter 21 395502 (2009);
         "P. Giannozzi et al., J. Phys.:Condens. Matter 29 465901 (2017);
          URL http://www.quantum-espresso.org", 
     in publications or presentations arising from this work. More details at
     http://www.quantum-espresso.org/quote

     Parallel version (MPI & OpenMP), running on      72 processor cores
     Number of MPI processes:                72
     Threads/MPI process:                     1

     MPI processes distributed on     1 nodes
     R & G space division:  proc/nbgrp/npool/nimage =      72
     Reading input from bcc_14.in
Warning: card &CELL ignored
Warning: card CELL_DYNAMICS = 'BFGS', ignored
Warning: card CELL_FACTOR = 2.0, ignored
Warning: card PRESS = 0.0, ignored
Warning: card / ignored

     Current dimensions of program PWSCF are:
     Max number of different atomic species (ntypx) = 10
     Max number of k-points (npk) =  40000
     Max angular momentum in pseudopotentials (lmaxx) =  3
     file Fe.pbe-spn-kjpaw_psl.1.0.0.UPF: wavefunction(s)  3P 3D renormalized
     file Fe.pbe-spn-kjpaw_psl.1.0.0.UPF: wavefunction(s)  3P 3D renormalized

     Subspace diagonalization in iterative solution of the eigenvalue problem:
     one sub-group per band group will be used
     ELPA distributed-memory algorithm (size of sub-group:  8*  8 procs)

     Found symmetry operation: I + (  0.0000  0.0000  0.5000)
     This is a supercell, fractional translations are disabled
     Message from routine setup:
     using ibrav=0 with symmetry is DISCOURAGED, use correct ibrav instead
 
     Parallelization info
     --------------------
     sticks:   dense  smooth     PW     G-vecs:    dense   smooth      PW
     Min         129      85     22                 9361     5029     698
     Max         130      86     23                 9367     5036     707
     Sum        9289    6149   1649               674277   362205   50685
 


     bravais-lattice index     =            0
     lattice parameter (alat)  =      10.2690  a.u.
     unit-cell volume          =    4479.4885 (a.u.)^3
     number of atoms/cell      =           16
     number of atomic types    =            2
     number of electrons       =       256.00
     number of Kohn-Sham states=          154
     kinetic-energy cutoff     =      71.0000  Ry
     charge density cutoff     =     430.0000  Ry
     scf convergence threshold =      1.0E-07
     mixing beta               =       0.3000
     number of iterations used =           10  local-TF  mixing
     Exchange-correlation= SLA  PW   PBX  PBC
                           (   1   4   3   4   0   0   0)

     celldm(1)=  10.269041  celldm(2)=   0.000000  celldm(3)=   0.000000
     celldm(4)=   0.000000  celldm(5)=   0.000000  celldm(6)=   0.000000

     crystal axes: (cart. coord. in units of alat)
               a(1) = (   1.605263   0.000000   0.000000 )  
               a(2) = (   0.000000   1.605263   0.000000 )  
               a(3) = (   0.000000   0.000000   1.605263 )  

     reciprocal axes: (cart. coord. in units 2 pi/alat)
               b(1) = (  0.622951  0.000000  0.000000 )  
               b(2) = (  0.000000  0.622951  0.000000 )  
               b(3) = (  0.000000  0.000000  0.622951 )  


     PseudoPot. # 1 for Fe read from file:
     /rds/homes/b/bxp912/pp/Fe.pbe-spn-kjpaw_psl.1.0.0.UPF
     MD5 check sum: 42f43b795421b414b0dc916aa790dbcb
     Pseudo is Projector augmented-wave + core cor, Zval = 16.0
     Generated using &quot;atomic&quot; code by A. Dal Corso  v.6.3
     Shape of augmentation charge: PSQ
     Using radial grid of 1191 points,  6 beta functions with: 
                l(1) =   0
                l(2) =   0
                l(3) =   1
                l(4) =   1
                l(5) =   2
                l(6) =   2
     Q(r) pseudized with 0 coefficients 


     PseudoPot. # 2 for Fe read from file:
     /rds/homes/b/bxp912/pp/Fe.pbe-spn-kjpaw_psl.1.0.0.UPF
     MD5 check sum: 42f43b795421b414b0dc916aa790dbcb
     Pseudo is Projector augmented-wave + core cor, Zval = 16.0
     Generated using &quot;atomic&quot; code by A. Dal Corso  v.6.3
     Shape of augmentation charge: PSQ
     Using radial grid of 1191 points,  6 beta functions with: 
                l(1) =   0
                l(2) =   0
                l(3) =   1
                l(4) =   1
                l(5) =   2
                l(6) =   2
     Q(r) pseudized with 0 coefficients 


     atomic species   valence    mass     pseudopotential
        Fe1           16.00    55.84500     Fe( 1.00)
        Fe2           16.00    55.84500     Fe( 1.00)

     Starting magnetic structure 
     atomic species   magnetization
        Fe1          0.100
        Fe2          0.100

     48 Sym. Ops., with inversion, found



   Cartesian axes

     site n.     atom                  positions (alat units)
         1           Fe1 tau(   1) = (   0.0000000   0.0000000   0.0000000  )
         2           Fe2 tau(   2) = (   0.4013158   0.4013158   0.4013158  )
         3           Fe1 tau(   3) = (   0.0000000   0.0000000   0.8026316  )
         4           Fe2 tau(   4) = (   0.4013158   0.4013158   1.2039474  )
         5           Fe1 tau(   5) = (   0.0000000   0.8026316   0.0000000  )
         6           Fe2 tau(   6) = (   0.4013158   1.2039474   0.4013158  )
         7           Fe1 tau(   7) = (   0.0000000   0.8026316   0.8026316  )
         8           Fe2 tau(   8) = (   0.4013158   1.2039474   1.2039474  )
         9           Fe1 tau(   9) = (   0.8026316   0.0000000   0.0000000  )
        10           Fe2 tau(  10) = (   1.2039474   0.4013158   0.4013158  )
        11           Fe1 tau(  11) = (   0.8026316   0.0000000   0.8026316  )
        12           Fe2 tau(  12) = (   1.2039474   0.4013158   1.2039474  )
        13           Fe1 tau(  13) = (   0.8026316   0.8026316   0.0000000  )
        14           Fe2 tau(  14) = (   1.2039474   1.2039474   0.4013158  )
        15           Fe1 tau(  15) = (   0.8026316   0.8026316   0.8026316  )
        16           Fe2 tau(  16) = (   1.2039474   1.2039474   1.2039474  )

     number of k points=    35  Marzari-Vanderbilt smearing, width (Ry)=  0.0400
                       cart. coord. in units 2pi/alat
        k(    1) = (   0.0346084   0.0346084   0.0346084), wk =   0.0109739
        k(    2) = (   0.0346084   0.0346084   0.1038251), wk =   0.0329218
        k(    3) = (   0.0346084   0.0346084   0.1730419), wk =   0.0329218
        k(    4) = (   0.0346084   0.0346084   0.2422587), wk =   0.0329218
        k(    5) = (   0.0346084   0.0346084  -0.3114754), wk =   0.0164609
        k(    6) = (   0.0346084   0.1038251   0.1038251), wk =   0.0329218
        k(    7) = (   0.0346084   0.1038251   0.1730419), wk =   0.0658436
        k(    8) = (   0.0346084   0.1038251   0.2422587), wk =   0.0658436
        k(    9) = (   0.0346084   0.1038251  -0.3114754), wk =   0.0329218
        k(   10) = (   0.0346084   0.1730419   0.1730419), wk =   0.0329218
        k(   11) = (   0.0346084   0.1730419   0.2422587), wk =   0.0658436
        k(   12) = (   0.0346084   0.1730419  -0.3114754), wk =   0.0329218
        k(   13) = (   0.0346084   0.2422587   0.2422587), wk =   0.0329218
        k(   14) = (   0.0346084   0.2422587  -0.3114754), wk =   0.0329218
        k(   15) = (   0.0346084  -0.3114754  -0.3114754), wk =   0.0082305
        k(   16) = (   0.1038251   0.1038251   0.1038251), wk =   0.0109739
        k(   17) = (   0.1038251   0.1038251   0.1730419), wk =   0.0329218
        k(   18) = (   0.1038251   0.1038251   0.2422587), wk =   0.0329218
        k(   19) = (   0.1038251   0.1038251  -0.3114754), wk =   0.0164609
        k(   20) = (   0.1038251   0.1730419   0.1730419), wk =   0.0329218
        k(   21) = (   0.1038251   0.1730419   0.2422587), wk =   0.0658436
        k(   22) = (   0.1038251   0.1730419  -0.3114754), wk =   0.0329218
        k(   23) = (   0.1038251   0.2422587   0.2422587), wk =   0.0329218
        k(   24) = (   0.1038251   0.2422587  -0.3114754), wk =   0.0329218
        k(   25) = (   0.1038251  -0.3114754  -0.3114754), wk =   0.0082305
        k(   26) = (   0.1730419   0.1730419   0.1730419), wk =   0.0109739
        k(   27) = (   0.1730419   0.1730419   0.2422587), wk =   0.0329218
        k(   28) = (   0.1730419   0.1730419  -0.3114754), wk =   0.0164609
        k(   29) = (   0.1730419   0.2422587   0.2422587), wk =   0.0329218
        k(   30) = (   0.1730419   0.2422587  -0.3114754), wk =   0.0329218
        k(   31) = (   0.1730419  -0.3114754  -0.3114754), wk =   0.0082305
        k(   32) = (   0.2422587   0.2422587   0.2422587), wk =   0.0109739
        k(   33) = (   0.2422587   0.2422587  -0.3114754), wk =   0.0164609
        k(   34) = (   0.2422587  -0.3114754  -0.3114754), wk =   0.0082305
        k(   35) = (  -0.3114754  -0.3114754  -0.3114754), wk =   0.0013717

     Dense  grid:   674277 G-vectors     FFT dimensions: ( 120, 120, 120)

     Smooth grid:   362205 G-vectors     FFT dimensions: (  90,  90,  90)

     Estimated max dynamical RAM per process >     152.02 MB

     Estimated total dynamical RAM >      10.69 GB

     Check: negative core charge=   -0.000003
     Generating pointlists ...
     new r_m :   0.2867 (alat units)  2.9444 (a.u.) for type    1
     new r_m :   0.2867 (alat units)  2.9444 (a.u.) for type    2

     Initial potential from superposition of free atoms

     starting charge  255.99300, renormalised to  256.00000
     Starting wfcs are  160 randomized atomic wfcs
     Checking if some PAW data can be deallocated... 

     total cpu time spent up to now is       13.8 secs

     Self-consistent Calculation

     iteration #  1     ecut=    71.00 Ry     beta= 0.30
     Davidson diagonalization with overlap
     ethr =  1.00E-02,  avg # of iterations =  2.0

     total cpu time spent up to now is       42.3 secs

     total energy              =   -5262.46714457 Ry
     estimated scf accuracy    <      10.21044469 Ry

     total magnetization       =    42.38 Bohr mag/cell
     absolute magnetization    =    42.38 Bohr mag/cell

     iteration #  2     ecut=    71.00 Ry     beta= 0.30
     Davidson diagonalization with overlap
     ethr =  3.99E-03,  avg # of iterations =  1.6

     total cpu time spent up to now is       69.6 secs

     total energy              =   -5263.37070064 Ry
     estimated scf accuracy    <       1.44716533 Ry

     total magnetization       =    49.59 Bohr mag/cell
     absolute magnetization    =    49.63 Bohr mag/cell

     iteration #  3     ecut=    71.00 Ry     beta= 0.30
     Davidson diagonalization with overlap
     ethr =  5.65E-04,  avg # of iterations =  5.7

     total cpu time spent up to now is      109.9 secs

     total energy              =   -5263.76269529 Ry
     estimated scf accuracy    <       1.25458329 Ry

     total magnetization       =    51.83 Bohr mag/cell
     absolute magnetization    =    53.08 Bohr mag/cell

     iteration #  4     ecut=    71.00 Ry     beta= 0.30
     Davidson diagonalization with overlap
     ethr =  4.90E-04,  avg # of iterations =  1.2

     negative rho (up, down):  0.000E+00 8.765E-04

     total cpu time spent up to now is      134.4 secs

     total energy              =   -5263.86905578 Ry
     estimated scf accuracy    <       0.63524202 Ry

     total magnetization       =    51.75 Bohr mag/cell
     absolute magnetization    =    53.01 Bohr mag/cell

     iteration #  5     ecut=    71.00 Ry     beta= 0.30
     Davidson diagonalization with overlap
     ethr =  2.48E-04,  avg # of iterations =  2.8

     negative rho (up, down):  0.000E+00 1.995E-03

     total cpu time spent up to now is      166.3 secs

     total energy              =   -5263.99175167 Ry
     estimated scf accuracy    <       0.63315425 Ry

     total magnetization       =    51.25 Bohr mag/cell
     absolute magnetization    =    52.90 Bohr mag/cell

     iteration #  6     ecut=    71.00 Ry     beta= 0.30
     Davidson diagonalization with overlap
     ethr =  2.47E-04,  avg # of iterations =  1.3

     negative rho (up, down):  0.000E+00 5.395E-03

     total cpu time spent up to now is      191.3 secs

     total energy              =   -5263.98296990 Ry
     estimated scf accuracy    <       0.25348208 Ry

     total magnetization       =    51.30 Bohr mag/cell
     absolute magnetization    =    53.12 Bohr mag/cell

     iteration #  7     ecut=    71.00 Ry     beta= 0.30
     Davidson diagonalization with overlap
     ethr =  9.90E-05,  avg # of iterations =  4.0

     negative rho (up, down):  0.000E+00 4.254E-03

     total cpu time spent up to now is      224.2 secs

     total energy              =   -5264.03741604 Ry
     estimated scf accuracy    <       0.08026718 Ry

     total magnetization       =    52.00 Bohr mag/cell
     absolute magnetization    =    55.51 Bohr mag/cell

     iteration #  8     ecut=    71.00 Ry     beta= 0.30
     Davidson diagonalization with overlap
     ethr =  3.14E-05,  avg # of iterations =  3.1

     negative rho (up, down):  0.000E+00 3.839E-03

     total cpu time spent up to now is      252.9 secs

     total energy              =   -5264.04299201 Ry
     estimated scf accuracy    <       0.02444434 Ry

     total magnetization       =    51.98 Bohr mag/cell
     absolute magnetization    =    55.60 Bohr mag/cell

     iteration #  9     ecut=    71.00 Ry     beta= 0.30
     Davidson diagonalization with overlap
     ethr =  9.55E-06,  avg # of iterations =  3.6

     negative rho (up, down):  0.000E+00 4.158E-03

     total cpu time spent up to now is      282.9 secs

     total energy              =   -5264.03663979 Ry
     estimated scf accuracy    <       0.03637648 Ry

     total magnetization       =    51.97 Bohr mag/cell
     absolute magnetization    =    55.61 Bohr mag/cell

     iteration # 10     ecut=    71.00 Ry     beta= 0.30
     Davidson diagonalization with overlap
     ethr =  9.55E-06,  avg # of iterations =  6.5

     negative rho (up, down):  0.000E+00 4.034E-03

     total cpu time spent up to now is      324.6 secs

     total energy              =   -5264.05656404 Ry
     estimated scf accuracy    <       0.01241208 Ry

     total magnetization       =    51.80 Bohr mag/cell
     absolute magnetization    =    55.57 Bohr mag/cell

     iteration # 11     ecut=    71.00 Ry     beta= 0.30
     Davidson diagonalization with overlap
     ethr =  4.85E-06,  avg # of iterations =  2.9

     negative rho (up, down):  0.000E+00 4.011E-03

     total cpu time spent up to now is      353.2 secs

     total energy              =   -5264.05837396 Ry
     estimated scf accuracy    <       0.01561739 Ry

     total magnetization       =    51.75 Bohr mag/cell
     absolute magnetization    =    55.40 Bohr mag/cell

     iteration # 12     ecut=    71.00 Ry     beta= 0.30
     Davidson diagonalization with overlap
     ethr =  4.85E-06,  avg # of iterations =  1.1

     negative rho (up, down):  0.000E+00 4.482E-03

     total cpu time spent up to now is      377.8 secs

     total energy              =   -5264.03508354 Ry
     estimated scf accuracy    <       0.01634545 Ry

     total magnetization       =    51.76 Bohr mag/cell
     absolute magnetization    =    55.36 Bohr mag/cell

     iteration # 13     ecut=    71.00 Ry     beta= 0.30
     Davidson diagonalization with overlap
     c_bands:  1 eigenvalues not converged
     ethr =  4.85E-06,  avg # of iterations =  7.4

     negative rho (up, down):  0.000E+00 4.188E-03

     total cpu time spent up to now is      425.6 secs

     total energy              =   -5264.04663217 Ry
     estimated scf accuracy    <       0.00577216 Ry

     total magnetization       =    51.90 Bohr mag/cell
     absolute magnetization    =    55.35 Bohr mag/cell

     iteration # 14     ecut=    71.00 Ry     beta= 0.30
     Davidson diagonalization with overlap
     c_bands:  1 eigenvalues not converged
     ethr =  2.25E-06,  avg # of iterations =  5.8

     negative rho (up, down):  0.000E+00 4.192E-03

     total cpu time spent up to now is      470.6 secs

     total energy              =   -5264.05779661 Ry
     estimated scf accuracy    <       0.00100982 Ry

     total magnetization       =    51.90 Bohr mag/cell
     absolute magnetization    =    55.38 Bohr mag/cell

     iteration # 15     ecut=    71.00 Ry     beta= 0.30
     Davidson diagonalization with overlap
     ethr =  3.94E-07,  avg # of iterations =  6.9

     negative rho (up, down):  0.000E+00 4.290E-03

     total cpu time spent up to now is      505.7 secs

     total energy              =   -5264.05753136 Ry
     estimated scf accuracy    <       0.00163946 Ry

     total magnetization       =    51.92 Bohr mag/cell
     absolute magnetization    =    55.43 Bohr mag/cell

     iteration # 16     ecut=    71.00 Ry     beta= 0.30
     Davidson diagonalization with overlap
     ethr =  3.94E-07,  avg # of iterations =  6.6

     negative rho (up, down):  0.000E+00 4.266E-03

     total cpu time spent up to now is      553.0 secs

     total energy              =   -5264.06158631 Ry
     estimated scf accuracy    <       0.00051349 Ry

     total magnetization       =    51.91 Bohr mag/cell
     absolute magnetization    =    55.39 Bohr mag/cell

     iteration # 17     ecut=    71.00 Ry     beta= 0.30
     Davidson diagonalization with overlap
     ethr =  2.01E-07,  avg # of iterations =  3.7

     negative rho (up, down):  0.000E+00 4.272E-03

     total cpu time spent up to now is      583.1 secs

     total energy              =   -5264.06151869 Ry
     estimated scf accuracy    <       0.00010092 Ry

     total magnetization       =    51.90 Bohr mag/cell
     absolute magnetization    =    55.37 Bohr mag/cell

     iteration # 18     ecut=    71.00 Ry     beta= 0.30
     Davidson diagonalization with overlap
     ethr =  3.94E-08,  avg # of iterations =  7.0

     negative rho (up, down):  0.000E+00 4.273E-03

     total cpu time spent up to now is      629.0 secs

     total energy              =   -5264.06170427 Ry
     estimated scf accuracy    <       0.00001957 Ry

     total magnetization       =    51.89 Bohr mag/cell
     absolute magnetization    =    55.32 Bohr mag/cell

     iteration # 19     ecut=    71.00 Ry     beta= 0.30
     Davidson diagonalization with overlap
     c_bands:  1 eigenvalues not converged
     ethr =  7.64E-09,  avg # of iterations =  6.0

     negative rho (up, down):  0.000E+00 4.274E-03

     total cpu time spent up to now is      663.4 secs

     total energy              =   -5264.06172455 Ry
     estimated scf accuracy    <       0.00000933 Ry

     total magnetization       =    51.90 Bohr mag/cell
     absolute magnetization    =    55.33 Bohr mag/cell

     iteration # 20     ecut=    71.00 Ry     beta= 0.30
     Davidson diagonalization with overlap
     ethr =  3.64E-09,  avg # of iterations =  3.9

     negative rho (up, down):  0.000E+00 4.270E-03

     total cpu time spent up to now is      692.6 secs

     total energy              =   -5264.06172586 Ry
     estimated scf accuracy    <       0.00001131 Ry

     total magnetization       =    51.90 Bohr mag/cell
     absolute magnetization    =    55.33 Bohr mag/cell

     iteration # 21     ecut=    71.00 Ry     beta= 0.30
     Davidson diagonalization with overlap
     ethr =  3.64E-09,  avg # of iterations =  2.4

     negative rho (up, down):  0.000E+00 4.268E-03

     total cpu time spent up to now is      720.9 secs

     total energy              =   -5264.06172625 Ry
     estimated scf accuracy    <       0.00000332 Ry

     total magnetization       =    51.90 Bohr mag/cell
     absolute magnetization    =    55.33 Bohr mag/cell

     iteration # 22     ecut=    71.00 Ry     beta= 0.30
     Davidson diagonalization with overlap
     c_bands:  1 eigenvalues not converged
     c_bands:  1 eigenvalues not converged
     c_bands:  1 eigenvalues not converged
     c_bands:  1 eigenvalues not converged
     ethr =  1.30E-09,  avg # of iterations =  7.4

     negative rho (up, down):  0.000E+00 4.269E-03

     total cpu time spent up to now is      760.7 secs

     total energy              =   -5264.06172719 Ry
     estimated scf accuracy    <       0.00000078 Ry

     total magnetization       =    51.90 Bohr mag/cell
     absolute magnetization    =    55.33 Bohr mag/cell

     iteration # 23     ecut=    71.00 Ry     beta= 0.30
     Davidson diagonalization with overlap
     c_bands:  1 eigenvalues not converged
     c_bands:  1 eigenvalues not converged
     c_bands:  2 eigenvalues not converged
     c_bands:  1 eigenvalues not converged
     c_bands:  2 eigenvalues not converged
     ethr =  3.03E-10,  avg # of iterations =  5.6

     negative rho (up, down):  0.000E+00 4.269E-03

     total cpu time spent up to now is      793.2 secs

     total energy              =   -5264.06172743 Ry
     estimated scf accuracy    <       0.00000104 Ry

     total magnetization       =    51.90 Bohr mag/cell
     absolute magnetization    =    55.33 Bohr mag/cell

     iteration # 24     ecut=    71.00 Ry     beta= 0.30
     Davidson diagonalization with overlap
     c_bands:  1 eigenvalues not converged
     c_bands:  1 eigenvalues not converged
     ethr =  3.03E-10,  avg # of iterations =  2.0

     negative rho (up, down):  0.000E+00 4.270E-03

     total cpu time spent up to now is      819.0 secs

     total energy              =   -5264.06172745 Ry
     estimated scf accuracy    <       0.00000117 Ry

     total magnetization       =    51.90 Bohr mag/cell
     absolute magnetization    =    55.33 Bohr mag/cell

     iteration # 25     ecut=    71.00 Ry     beta= 0.30
     Davidson diagonalization with overlap
     c_bands:  1 eigenvalues not converged
     c_bands:  1 eigenvalues not converged
     ethr =  3.03E-10,  avg # of iterations =  1.9

     negative rho (up, down):  0.000E+00 4.269E-03

     total cpu time spent up to now is      844.7 secs

     total energy              =   -5264.06172749 Ry
     estimated scf accuracy    <       0.00000114 Ry

     total magnetization       =    51.90 Bohr mag/cell
     absolute magnetization    =    55.33 Bohr mag/cell

     iteration # 26     ecut=    71.00 Ry     beta= 0.30
     Davidson diagonalization with overlap
     c_bands:  1 eigenvalues not converged
     c_bands:  1 eigenvalues not converged
     ethr =  3.03E-10,  avg # of iterations =  1.6

     negative rho (up, down):  0.000E+00 4.269E-03

     total cpu time spent up to now is      869.8 secs

     total energy              =   -5264.06172751 Ry
     estimated scf accuracy    <       0.00000122 Ry

     total magnetization       =    51.90 Bohr mag/cell
     absolute magnetization    =    55.33 Bohr mag/cell

     iteration # 27     ecut=    71.00 Ry     beta= 0.30
     Davidson diagonalization with overlap
     c_bands:  1 eigenvalues not converged
     c_bands:  1 eigenvalues not converged
     ethr =  3.03E-10,  avg # of iterations =  3.0

     negative rho (up, down):  0.000E+00 4.268E-03

     total cpu time spent up to now is      898.4 secs

     total energy              =   -5264.06172766 Ry
     estimated scf accuracy    <       0.00000045 Ry

     total magnetization       =    51.90 Bohr mag/cell
     absolute magnetization    =    55.33 Bohr mag/cell

     iteration # 28     ecut=    71.00 Ry     beta= 0.30
     Davidson diagonalization with overlap
     c_bands:  1 eigenvalues not converged
     c_bands:  1 eigenvalues not converged
     c_bands:  1 eigenvalues not converged
     c_bands:  2 eigenvalues not converged
     c_bands:  1 eigenvalues not converged
     c_bands:  1 eigenvalues not converged
     c_bands:  1 eigenvalues not converged
     c_bands:  2 eigenvalues not converged
     c_bands:  2 eigenvalues not converged
     ethr =  1.78E-10,  avg # of iterations =  8.1

     negative rho (up, down):  0.000E+00 4.268E-03

     total cpu time spent up to now is      933.1 secs

     total energy              =   -5264.06172790 Ry
     estimated scf accuracy    <       0.00000104 Ry

     total magnetization       =    51.90 Bohr mag/cell
     absolute magnetization    =    55.33 Bohr mag/cell

     iteration # 29     ecut=    71.00 Ry     beta= 0.30
     Davidson diagonalization with overlap
     c_bands:  1 eigenvalues not converged
     c_bands:  1 eigenvalues not converged
     c_bands:  2 eigenvalues not converged
     ethr =  1.78E-10,  avg # of iterations =  3.3

     negative rho (up, down):  0.000E+00 4.268E-03

     total cpu time spent up to now is      960.1 secs

     total energy              =   -5264.06172793 Ry
     estimated scf accuracy    <       0.00000089 Ry

     total magnetization       =    51.90 Bohr mag/cell
     absolute magnetization    =    55.33 Bohr mag/cell

     iteration # 30     ecut=    71.00 Ry     beta= 0.30
     Davidson diagonalization with overlap
     c_bands:  1 eigenvalues not converged
     ethr =  1.78E-10,  avg # of iterations =  1.4

     negative rho (up, down):  0.000E+00 4.268E-03

     total cpu time spent up to now is      985.2 secs

     total energy              =   -5264.06172794 Ry
     estimated scf accuracy    <       0.00000103 Ry

     total magnetization       =    51.90 Bohr mag/cell
     absolute magnetization    =    55.33 Bohr mag/cell

     iteration # 31     ecut=    71.00 Ry     beta= 0.30
     Davidson diagonalization with overlap
     c_bands:  1 eigenvalues not converged
     ethr =  1.78E-10,  avg # of iterations =  1.3

     negative rho (up, down):  0.000E+00 4.268E-03

     total cpu time spent up to now is     1010.2 secs

     total energy              =   -5264.06172795 Ry
     estimated scf accuracy    <       0.00000105 Ry

     total magnetization       =    51.90 Bohr mag/cell
     absolute magnetization    =    55.33 Bohr mag/cell

     iteration # 32     ecut=    71.00 Ry     beta= 0.30
     Davidson diagonalization with overlap
     ethr =  1.78E-10,  avg # of iterations =  1.1

     negative rho (up, down):  0.000E+00 4.268E-03

     total cpu time spent up to now is     1035.6 secs

     total energy              =   -5264.06172797 Ry
     estimated scf accuracy    <       0.00000106 Ry

     total magnetization       =    51.90 Bohr mag/cell
     absolute magnetization    =    55.33 Bohr mag/cell

     iteration # 33     ecut=    71.00 Ry     beta= 0.30
     Davidson diagonalization with overlap
     c_bands:  1 eigenvalues not converged
     ethr =  1.78E-10,  avg # of iterations =  1.7

     negative rho (up, down):  0.000E+00 4.268E-03

     total cpu time spent up to now is     1061.2 secs

     total energy              =   -5264.06172800 Ry
     estimated scf accuracy    <       0.00000074 Ry

     total magnetization       =    51.90 Bohr mag/cell
     absolute magnetization    =    55.33 Bohr mag/cell

     iteration # 34     ecut=    71.00 Ry     beta= 0.30
     Davidson diagonalization with overlap
     c_bands:  1 eigenvalues not converged
     c_bands:  2 eigenvalues not converged
     ethr =  1.78E-10,  avg # of iterations =  6.0

     negative rho (up, down):  0.000E+00 4.269E-03

     total cpu time spent up to now is     1095.6 secs

     total energy              =   -5264.06172808 Ry
     estimated scf accuracy    <       0.00000029 Ry

     total magnetization       =    51.90 Bohr mag/cell
     absolute magnetization    =    55.33 Bohr mag/cell

     iteration # 35     ecut=    71.00 Ry     beta= 0.30
     Davidson diagonalization with overlap
     c_bands:  1 eigenvalues not converged
     c_bands:  2 eigenvalues not converged
     ethr =  1.15E-10,  avg # of iterations =  2.4

     negative rho (up, down):  0.000E+00 4.269E-03

     total cpu time spent up to now is     1121.8 secs

     total energy              =   -5264.06172809 Ry
     estimated scf accuracy    <       0.00000016 Ry

     total magnetization       =    51.90 Bohr mag/cell
     absolute magnetization    =    55.33 Bohr mag/cell

     iteration # 36     ecut=    71.00 Ry     beta= 0.30
     Davidson diagonalization with overlap
     c_bands:  1 eigenvalues not converged
     c_bands:  2 eigenvalues not converged
     ethr =  6.28E-11,  avg # of iterations =  3.7

     negative rho (up, down):  0.000E+00 4.269E-03
 
     Magnetic moment per site:
     atom:    1    charge:   15.2439    magn:    3.3387    constr:    0.0000
     atom:    2    charge:   15.2439    magn:    3.3370    constr:    0.0000
     atom:    3    charge:   15.2440    magn:    3.3366    constr:    0.0000
     atom:    4    charge:   15.2439    magn:    3.3370    constr:    0.0000
     atom:    5    charge:   15.2440    magn:    3.3366    constr:    0.0000
     atom:    6    charge:   15.2439    magn:    3.3370    constr:    0.0000
     atom:    7    charge:   15.2439    magn:    3.3364    constr:    0.0000
     atom:    8    charge:   15.2439    magn:    3.3370    constr:    0.0000
     atom:    9    charge:   15.2440    magn:    3.3366    constr:    0.0000
     atom:   10    charge:   15.2439    magn:    3.3370    constr:    0.0000
     atom:   11    charge:   15.2439    magn:    3.3364    constr:    0.0000
     atom:   12    charge:   15.2439    magn:    3.3370    constr:    0.0000
     atom:   13    charge:   15.2439    magn:    3.3364    constr:    0.0000
     atom:   14    charge:   15.2439    magn:    3.3370    constr:    0.0000
     atom:   15    charge:   15.2436    magn:    3.3379    constr:    0.0000
     atom:   16    charge:   15.2439    magn:    3.3370    constr:    0.0000

     total cpu time spent up to now is     1151.0 secs

     End of self-consistent calculation

 ------ SPIN UP ------------


          k = 0.0346 0.0346 0.0346 ( 45271 PWs)   bands (ev):

   -86.1944 -86.1944 -86.1930 -86.1930 -86.1930 -86.1930 -86.1930 -86.1929
   -86.1929 -86.1929 -86.1925 -86.1925 -86.1925 -86.1924 -86.1924 -86.1924
   -52.2642 -52.2642 -52.2641 -52.2640 -52.2639 -52.2639 -52.2638 -52.2638
   -52.2638 -52.2636 -52.2635 -52.2635 -52.2634 -52.2634 -52.2634 -52.2633
   -52.2633 -52.2632 -52.2632 -52.2632 -52.2630 -52.2630 -52.2628 -52.2628
   -52.2628 -52.2623 -52.2622 -52.2622 -52.2622 -52.2621 -52.2621 -52.2619
   -52.2619 -52.2619 -52.2616 -52.2616 -52.2616 -52.2616 -52.2616 -52.2616
   -52.2614 -52.2613 -52.2613 -52.2613 -52.2612 -52.2612 -52.2611 -52.2610
    -1.2041  -0.3630  -0.3630  -0.2512  -0.2512  -0.2506  -0.2506  -0.2506
    -0.2496  -0.2014  -0.2014  -0.2012  -0.1922  -0.1922  -0.1921  -0.1887
    -0.1887  -0.1885  -0.1722  -0.1722  -0.1721  -0.0287  -0.0287  -0.0236
    -0.0236  -0.0234  -0.0203  -0.0203  -0.0200  -0.0200  -0.0200  -0.0200
    -0.0199   0.0763   0.0772   0.0772   0.0789   0.0789   0.0798   0.1357
     0.1546   0.1546   0.1572   0.1572   0.1590   0.1604   0.1604   0.1630
     0.1813   0.1813   0.1841   0.1841   0.1858   0.1942   0.2400   0.2400
     0.2413   0.2522   0.2537   0.2537   0.2637   0.2637   0.2658   0.2758
     0.2774   0.2774   0.3217   0.3217   0.3249   0.3471   0.3471   0.3499
     0.4612   0.4668   0.4668   0.4922   0.4922   0.4939   0.4943   0.4961
     0.4961   0.7337   0.7337   0.7337   1.1600   1.1601   1.1601   2.5364
     2.5364   2.5367

          k = 0.0346 0.0346 0.1038 ( 45244 PWs)   bands (ev):

   -86.1944 -86.1943 -86.1930 -86.1930 -86.1930 -86.1930 -86.1930 -86.1930
   -86.1929 -86.1929 -86.1925 -86.1925 -86.1925 -86.1924 -86.1924 -86.1924
   -52.2641 -52.2641 -52.2641 -52.2640 -52.2640 -52.2640 -52.2637 -52.2637
   -52.2637 -52.2635 -52.2635 -52.2634 -52.2634 -52.2634 -52.2634 -52.2633
   -52.2633 -52.2632 -52.2632 -52.2631 -52.2630 -52.2630 -52.2628 -52.2628
   -52.2628 -52.2623 -52.2622 -52.2622 -52.2621 -52.2621 -52.2621 -52.2619
   -52.2619 -52.2619 -52.2617 -52.2616 -52.2616 -52.2616 -52.2616 -52.2615
   -52.2614 -52.2613 -52.2613 -52.2612 -52.2612 -52.2612 -52.2612 -52.2611
    -1.1546  -0.3574  -0.3547  -0.2476  -0.2471  -0.2464  -0.2460  -0.2374
    -0.2369  -0.2306  -0.2154  -0.2094  -0.2016  -0.2015  -0.1866  -0.1863
    -0.1835  -0.1833  -0.1657  -0.1655  -0.1438  -0.0352  -0.0345  -0.0345
    -0.0343  -0.0332  -0.0269  -0.0241  -0.0240  -0.0233  -0.0205  -0.0200
    -0.0199   0.0779   0.0787   0.0817   0.0826   0.0867   0.0876   0.1166
     0.1307   0.1559   0.1568   0.1594   0.1624   0.1640   0.1643   0.1663
     0.1800   0.1811   0.1826   0.1929   0.2133   0.2136   0.2164   0.2198
     0.2205   0.2336   0.2366   0.2376   0.2409   0.2425   0.2665   0.2679
     0.2912   0.2959   0.3035   0.3438   0.3454   0.3693   0.3702   0.3730
     0.3846   0.4495   0.4582   0.4660   0.4749   0.4778   0.4844   0.4854
     0.4917   0.4927   0.7945   0.7946   1.2183   1.2184   1.6412   2.1687
     2.1689   2.5759

          k = 0.0346 0.0346 0.1730 ( 45222 PWs)   bands (ev):

   -86.1944 -86.1943 -86.1930 -86.1930 -86.1930 -86.1930 -86.1930 -86.1930
   -86.1929 -86.1929 -86.1925 -86.1925 -86.1925 -86.1924 -86.1924 -86.1924
   -52.2641 -52.2641 -52.2640 -52.2640 -52.2640 -52.2640 -52.2637 -52.2637
   -52.2636 -52.2635 -52.2634 -52.2634 -52.2634 -52.2634 -52.2634 -52.2634
   -52.2634 -52.2632 -52.2632 -52.2632 -52.2631 -52.2630 -52.2628 -52.2628
   -52.2628 -52.2623 -52.2622 -52.2622 -52.2621 -52.2621 -52.2621 -52.2619
   -52.2619 -52.2619 -52.2616 -52.2616 -52.2616 -52.2616 -52.2616 -52.2615
   -52.2614 -52.2613 -52.2613 -52.2612 -52.2611 -52.2611 -52.2611 -52.2610
    -1.0564  -0.3463  -0.3389  -0.3163  -0.2592  -0.2410  -0.2406  -0.2385
    -0.2381  -0.2336  -0.2122  -0.2114  -0.2064  -0.2062  -0.1924  -0.1921
    -0.1634  -0.1632  -0.1446  -0.1445  -0.1174  -0.0626  -0.0614  -0.0526
    -0.0524  -0.0421  -0.0363  -0.0363  -0.0230  -0.0229  -0.0210  -0.0199
    -0.0198   0.0793   0.0802   0.0928   0.0936   0.1010   0.1015   0.1020
     0.1128   0.1245   0.1569   0.1579   0.1613   0.1657   0.1668   0.1711
     0.1729   0.1792   0.1811   0.1839   0.1845   0.1853   0.2033   0.2048
     0.2059   0.2170   0.2176   0.2180   0.2191   0.2454   0.2469   0.2581
     0.2613   0.2770   0.3200   0.3323   0.3731   0.3744   0.3950   0.3975
     0.3991   0.4312   0.4418   0.4420   0.4458   0.4599   0.4709   0.4719
     0.4827   0.4837   0.9083   0.9084   1.3310   1.3310   1.8271   1.8273
     2.1686   2.2540

          k = 0.0346 0.0346 0.2423 ( 45246 PWs)   bands (ev):

   -86.1944 -86.1943 -86.1930 -86.1930 -86.1930 -86.1930 -86.1929 -86.1929
   -86.1929 -86.1929 -86.1925 -86.1925 -86.1925 -86.1924 -86.1924 -86.1924
   -52.2641 -52.2641 -52.2640 -52.2640 -52.2640 -52.2640 -52.2637 -52.2637
   -52.2636 -52.2636 -52.2635 -52.2635 -52.2635 -52.2634 -52.2634 -52.2634
   -52.2633 -52.2633 -52.2632 -52.2631 -52.2631 -52.2630 -52.2628 -52.2628
   -52.2628 -52.2623 -52.2622 -52.2622 -52.2622 -52.2622 -52.2621 -52.2620
   -52.2619 -52.2619 -52.2617 -52.2616 -52.2616 -52.2616 -52.2616 -52.2616
   -52.2614 -52.2613 -52.2613 -52.2612 -52.2612 -52.2612 -52.2612 -52.2611
    -0.9114  -0.5104  -0.3303  -0.3168  -0.2859  -0.2614  -0.2324  -0.2320
    -0.2278  -0.2274  -0.2139  -0.2136  -0.2029  -0.2026  -0.1779  -0.1767
    -0.1362  -0.1360  -0.1153  -0.1152  -0.0984  -0.0970  -0.0935  -0.0772
    -0.0770  -0.0570  -0.0569  -0.0554  -0.0225  -0.0215  -0.0199  -0.0197
    -0.0162   0.0308   0.0810   0.0841   0.0912   0.0995   0.1095   0.1103
     0.1208   0.1218   0.1560   0.1566   0.1623   0.1625   0.1645   0.1669
     0.1697   0.1738   0.1748   0.1768   0.1825   0.1841   0.1846   0.1896
     0.1929   0.1947   0.2004   0.2052   0.2170   0.2213   0.2229   0.2540
     0.3030   0.3073   0.3500   0.3624   0.3989   0.4024   0.4032   0.4035
     0.4074   0.4160   0.4191   0.4248   0.4261   0.4491   0.4524   0.4534
     0.4683   0.4694   1.0691   1.0693   1.4936   1.4936   1.5284   1.5285
     1.9577   1.9578

          k = 0.0346 0.0346-0.3115 ( 45272 PWs)   bands (ev):

   -86.1944 -86.1944 -86.1930 -86.1930 -86.1930 -86.1930 -86.1929 -86.1929
   -86.1929 -86.1929 -86.1925 -86.1925 -86.1925 -86.1924 -86.1924 -86.1924
   -52.2641 -52.2640 -52.2640 -52.2640 -52.2640 -52.2640 -52.2636 -52.2636
   -52.2636 -52.2635 -52.2635 -52.2635 -52.2635 -52.2635 -52.2634 -52.2634
   -52.2633 -52.2633 -52.2632 -52.2632 -52.2631 -52.2631 -52.2629 -52.2628
   -52.2628 -52.2623 -52.2622 -52.2622 -52.2622 -52.2622 -52.2621 -52.2620
   -52.2619 -52.2619 -52.2618 -52.2616 -52.2616 -52.2616 -52.2616 -52.2616
   -52.2614 -52.2613 -52.2612 -52.2612 -52.2612 -52.2612 -52.2612 -52.2612
    -0.7246  -0.7245  -0.3099  -0.3099  -0.2901  -0.2901  -0.2228  -0.2228
    -0.2225  -0.2225  -0.2154  -0.2154  -0.2150  -0.2150  -0.1385  -0.1385
    -0.1371  -0.1371  -0.1061  -0.1061  -0.1059  -0.1059  -0.0845  -0.0845
    -0.0844  -0.0844  -0.0726  -0.0726  -0.0220  -0.0220  -0.0198  -0.0198
    -0.0025  -0.0025   0.0845   0.0846   0.0902   0.0904   0.1308   0.1311
     0.1315   0.1318   0.1453   0.1455   0.1463   0.1466   0.1652   0.1655
     0.1730   0.1732   0.1741   0.1742   0.1762   0.1764   0.1905   0.1907
     0.1959   0.1961   0.1994   0.1995   0.2010   0.2011   0.2339   0.2342
     0.3510   0.3512   0.3556   0.3558   0.3796   0.3798   0.3918   0.3920
     0.4291   0.4294   0.4301   0.4304   0.4341   0.4345   0.4486   0.4489
     0.4498   0.4500   1.2757   1.2757   1.2759   1.2759   1.7031   1.7031
     1.7032   1.7032

          k = 0.0346 0.1038 0.1038 ( 45227 PWs)   bands (ev):

   -86.1944 -86.1943 -86.1930 -86.1930 -86.1930 -86.1930 -86.1929 -86.1929
   -86.1929 -86.1929 -86.1925 -86.1925 -86.1925 -86.1924 -86.1924 -86.1924
   -52.2641 -52.2641 -52.2641 -52.2640 -52.2640 -52.2640 -52.2637 -52.2637
   -52.2637 -52.2635 -52.2634 -52.2634 -52.2634 -52.2634 -52.2634 -52.2634
   -52.2633 -52.2632 -52.2631 -52.2631 -52.2631 -52.2630 -52.2628 -52.2628
   -52.2628 -52.2623 -52.2623 -52.2622 -52.2621 -52.2621 -52.2621 -52.2619
   -52.2619 -52.2619 -52.2616 -52.2616 -52.2616 -52.2616 -52.2616 -52.2616
   -52.2614 -52.2613 -52.2613 -52.2612 -52.2612 -52.2611 -52.2611 -52.2611
    -1.1054  -0.3507  -0.3476  -0.2457  -0.2421  -0.2346  -0.2341  -0.2328
    -0.2323  -0.2284  -0.2281  -0.2063  -0.2061  -0.2026  -0.2024  -0.1951
    -0.1810  -0.1757  -0.1674  -0.1406  -0.1406  -0.0510  -0.0414  -0.0393
    -0.0346  -0.0343  -0.0342  -0.0291  -0.0282  -0.0271  -0.0244  -0.0244
    -0.0207   0.0818   0.0827   0.0832   0.0848   0.0853   0.0985   0.0994
     0.1229   0.1488   0.1579   0.1594   0.1683   0.1696   0.1700   0.1748
     0.1752   0.1836   0.1864   0.1877   0.1882   0.1993   0.2041   0.2092
     0.2158   0.2164   0.2301   0.2328   0.2518   0.2621   0.2642   0.2756
     0.2945   0.2950   0.3142   0.3166   0.3448   0.3747   0.3929   0.3946
     0.4328   0.4516   0.4522   0.4524   0.4656   0.4666   0.4687   0.4722
     0.4744   0.4756   0.4938   0.8550   1.2760   1.6976   1.6977   1.7835
     2.2152   2.2154

          k = 0.0346 0.1038 0.1730 ( 45254 PWs)   bands (ev):

   -86.1944 -86.1944 -86.1930 -86.1930 -86.1930 -86.1930 -86.1930 -86.1930
   -86.1929 -86.1929 -86.1925 -86.1925 -86.1925 -86.1924 -86.1924 -86.1924
   -52.2641 -52.2641 -52.2640 -52.2640 -52.2640 -52.2640 -52.2637 -52.2637
   -52.2636 -52.2636 -52.2635 -52.2635 -52.2635 -52.2634 -52.2634 -52.2634
   -52.2634 -52.2633 -52.2632 -52.2631 -52.2631 -52.2631 -52.2628 -52.2628
   -52.2628 -52.2623 -52.2622 -52.2622 -52.2621 -52.2621 -52.2621 -52.2619
   -52.2619 -52.2619 -52.2617 -52.2616 -52.2616 -52.2616 -52.2616 -52.2616
   -52.2614 -52.2613 -52.2613 -52.2612 -52.2612 -52.2612 -52.2611 -52.2611
    -1.0079  -0.3396  -0.3322  -0.2930  -0.2554  -0.2423  -0.2346  -0.2281
    -0.2278  -0.2270  -0.2249  -0.2096  -0.2070  -0.1995  -0.1960  -0.1855
    -0.1791  -0.1643  -0.1483  -0.1260  -0.1155  -0.0737  -0.0647  -0.0612
    -0.0527  -0.0423  -0.0373  -0.0341  -0.0324  -0.0288  -0.0257  -0.0254
    -0.0251   0.0812   0.0834   0.0870   0.0908   0.0916   0.0954   0.1090
     0.1136   0.1157   0.1427   0.1603   0.1617   0.1618   0.1632   0.1717
     0.1758   0.1765   0.1798   0.1800   0.1869   0.1873   0.1874   0.1933
     0.2023   0.2187   0.2299   0.2392   0.2506   0.2567   0.2650   0.2661
     0.2747   0.2920   0.3081   0.3241   0.3461   0.3595   0.3901   0.4100
     0.4152   0.4201   0.4325   0.4350   0.4432   0.4519   0.4548   0.4660
     0.4676   0.4897   0.5614   0.9679   1.3873   1.4415   1.8080   1.8776
     2.2229   2.3000

          k = 0.0346 0.1038 0.2423 ( 45250 PWs)   bands (ev):

   -86.1944 -86.1944 -86.1930 -86.1930 -86.1930 -86.1930 -86.1930 -86.1929
   -86.1929 -86.1929 -86.1925 -86.1925 -86.1925 -86.1924 -86.1924 -86.1924
   -52.2641 -52.2641 -52.2640 -52.2640 -52.2640 -52.2640 -52.2637 -52.2637
   -52.2636 -52.2636 -52.2635 -52.2635 -52.2635 -52.2634 -52.2634 -52.2634
   -52.2633 -52.2633 -52.2632 -52.2632 -52.2631 -52.2631 -52.2629 -52.2628
   -52.2628 -52.2623 -52.2622 -52.2622 -52.2621 -52.2621 -52.2621 -52.2620
   -52.2619 -52.2619 -52.2617 -52.2616 -52.2616 -52.2616 -52.2616 -52.2616
   -52.2613 -52.2613 -52.2612 -52.2612 -52.2612 -52.2612 -52.2612 -52.2611
    -0.8642  -0.4724  -0.3240  -0.3101  -0.2811  -0.2548  -0.2379  -0.2298
    -0.2247  -0.2199  -0.2141  -0.2035  -0.2025  -0.1897  -0.1760  -0.1725
    -0.1604  -0.1374  -0.1183  -0.1011  -0.0989  -0.0975  -0.0946  -0.0923
    -0.0778  -0.0586  -0.0551  -0.0408  -0.0339  -0.0332  -0.0281  -0.0259
    -0.0189   0.0292   0.0785   0.0802   0.0860   0.0980   0.1034   0.1046
     0.1103   0.1377   0.1385   0.1405   0.1406   0.1530   0.1620   0.1670
     0.1713   0.1731   0.1757   0.1809   0.1841   0.1928   0.1960   0.1968
     0.1986   0.2041   0.2147   0.2161   0.2360   0.2424   0.2501   0.2788
     0.2963   0.3091   0.3224   0.3546   0.3774   0.3829   0.3839   0.3893
     0.4017   0.4117   0.4120   0.4323   0.4333   0.4342   0.4444   0.4520
     0.4609   0.4800   0.7107   1.1272   1.1482   1.5482   1.5819   1.9687
     2.0075   2.4236

          k = 0.0346 0.1038-0.3115 ( 45246 PWs)   bands (ev):

   -86.1944 -86.1943 -86.1930 -86.1930 -86.1930 -86.1930 -86.1929 -86.1929
   -86.1929 -86.1929 -86.1925 -86.1925 -86.1925 -86.1924 -86.1924 -86.1924
   -52.2640 -52.2640 -52.2640 -52.2640 -52.2640 -52.2640 -52.2636 -52.2636
   -52.2636 -52.2635 -52.2635 -52.2635 -52.2635 -52.2635 -52.2634 -52.2634
   -52.2633 -52.2633 -52.2632 -52.2632 -52.2631 -52.2631 -52.2629 -52.2628
   -52.2627 -52.2623 -52.2622 -52.2621 -52.2621 -52.2621 -52.2621 -52.2620
   -52.2619 -52.2619 -52.2617 -52.2616 -52.2616 -52.2616 -52.2616 -52.2616
   -52.2613 -52.2613 -52.2612 -52.2612 -52.2612 -52.2612 -52.2612 -52.2612
    -0.6801  -0.6801  -0.3043  -0.3043  -0.2835  -0.2834  -0.2335  -0.2335
    -0.2135  -0.2135  -0.2109  -0.2109  -0.2019  -0.2019  -0.1376  -0.1376
    -0.1334  -0.1334  -0.1310  -0.1309  -0.1071  -0.1070  -0.0868  -0.0868
    -0.0720  -0.0720  -0.0661  -0.0661  -0.0336  -0.0336  -0.0270  -0.0270
    -0.0049  -0.0048   0.0776   0.0778   0.0905   0.0907   0.1188   0.1190
     0.1216   0.1218   0.1295   0.1297   0.1459   0.1460   0.1657   0.1660
     0.1717   0.1720   0.1741   0.1743   0.1905   0.1906   0.1923   0.1927
     0.2015   0.2016   0.2176   0.2178   0.2255   0.2257   0.2558   0.2561
     0.3421   0.3422   0.3531   0.3533   0.3555   0.3557   0.3843   0.3845
     0.4064   0.4066   0.4096   0.4098   0.4333   0.4336   0.4495   0.4498
     0.4646   0.4649   0.9050   0.9051   1.3317   1.3317   1.7556   1.7556
     2.1758   2.1758

          k = 0.0346 0.1730 0.1730 ( 45231 PWs)   bands (ev):

   -86.1944 -86.1943 -86.1930 -86.1930 -86.1930 -86.1930 -86.1929 -86.1929
   -86.1929 -86.1929 -86.1925 -86.1925 -86.1925 -86.1924 -86.1924 -86.1924
   -52.2640 -52.2640 -52.2640 -52.2640 -52.2640 -52.2640 -52.2636 -52.2636
   -52.2636 -52.2636 -52.2635 -52.2634 -52.2634 -52.2634 -52.2634 -52.2634
   -52.2634 -52.2633 -52.2632 -52.2632 -52.2631 -52.2630 -52.2629 -52.2628
   -52.2627 -52.2622 -52.2622 -52.2622 -52.2621 -52.2621 -52.2621 -52.2619
   -52.2619 -52.2619 -52.2617 -52.2616 -52.2616 -52.2616 -52.2616 -52.2615
   -52.2613 -52.2613 -52.2612 -52.2612 -52.2612 -52.2611 -52.2611 -52.2611
    -0.9119  -0.3283  -0.3175  -0.2583  -0.2581  -0.2514  -0.2510  -0.2434
    -0.2298  -0.2116  -0.2114  -0.2043  -0.2038  -0.1996  -0.1991  -0.1828
    -0.1607  -0.1580  -0.1526  -0.1063  -0.1062  -0.0995  -0.0734  -0.0674
    -0.0531  -0.0531  -0.0477  -0.0453  -0.0419  -0.0390  -0.0390  -0.0275
    -0.0220   0.0770   0.0863   0.0872   0.0883   0.0892   0.0955   0.0991
     0.1027   0.1030   0.1264   0.1359   0.1382   0.1536   0.1633   0.1659
     0.1673   0.1702   0.1716   0.1911   0.1920   0.1920   0.1928   0.2055
     0.2205   0.2378   0.2481   0.2569   0.2591   0.2646   0.2725   0.2799
     0.2999   0.3013   0.3046   0.3050   0.3482   0.3576   0.3590   0.3831
     0.3846   0.4173   0.4176   0.4186   0.4334   0.4347   0.4360   0.4380
     0.4396   0.4719   0.4907   1.0793   1.1063   1.4965   1.9754   1.9756
     2.3293   2.3294

          k = 0.0346 0.1730 0.2423 ( 45276 PWs)   bands (ev):

   -86.1944 -86.1944 -86.1930 -86.1930 -86.1930 -86.1930 -86.1930 -86.1930
   -86.1929 -86.1929 -86.1925 -86.1925 -86.1925 -86.1924 -86.1924 -86.1924
   -52.2641 -52.2641 -52.2640 -52.2640 -52.2640 -52.2640 -52.2637 -52.2636
   -52.2636 -52.2636 -52.2635 -52.2635 -52.2635 -52.2635 -52.2634 -52.2634
   -52.2634 -52.2633 -52.2632 -52.2632 -52.2632 -52.2631 -52.2629 -52.2628
   -52.2628 -52.2623 -52.2622 -52.2622 -52.2622 -52.2621 -52.2621 -52.2620
   -52.2619 -52.2619 -52.2618 -52.2617 -52.2616 -52.2616 -52.2616 -52.2616
   -52.2613 -52.2613 -52.2613 -52.2612 -52.2612 -52.2612 -52.2612 -52.2612
    -0.7715  -0.4035  -0.3134  -0.2956  -0.2741  -0.2482  -0.2445  -0.2401
    -0.2321  -0.2251  -0.1969  -0.1892  -0.1879  -0.1827  -0.1718  -0.1661
    -0.1654  -0.1389  -0.1287  -0.1237  -0.0996  -0.0922  -0.0867  -0.0820
    -0.0789  -0.0617  -0.0546  -0.0537  -0.0535  -0.0456  -0.0414  -0.0288
    -0.0236   0.0265   0.0730   0.0792   0.0870   0.0917   0.0958   0.0967
     0.0971   0.1044   0.1117   0.1199   0.1301   0.1423   0.1579   0.1586
     0.1611   0.1807   0.1874   0.1960   0.2013   0.2048   0.2132   0.2232
     0.2236   0.2273   0.2346   0.2420   0.2592   0.2609   0.2795   0.2886
     0.2907   0.3100   0.3110   0.3356   0.3448   0.3528   0.3566   0.3749
     0.3914   0.3940   0.3955   0.3985   0.4084   0.4224   0.4533   0.4540
     0.4596   0.4712   0.4859   0.8271   1.2367   1.6542   1.6848   2.1046
     2.1167   2.4838

          k = 0.0346 0.1730-0.3115 ( 45254 PWs)   bands (ev):

   -86.1944 -86.1944 -86.1930 -86.1930 -86.1930 -86.1930 -86.1930 -86.1930
   -86.1929 -86.1929 -86.1925 -86.1925 -86.1925 -86.1924 -86.1924 -86.1924
   -52.2641 -52.2640 -52.2640 -52.2640 -52.2640 -52.2640 -52.2637 -52.2636
   -52.2636 -52.2635 -52.2635 -52.2635 -52.2635 -52.2635 -52.2634 -52.2633
   -52.2633 -52.2633 -52.2632 -52.2632 -52.2631 -52.2631 -52.2629 -52.2628
   -52.2628 -52.2623 -52.2622 -52.2622 -52.2622 -52.2621 -52.2621 -52.2620
   -52.2619 -52.2619 -52.2617 -52.2616 -52.2616 -52.2616 -52.2616 -52.2616
   -52.2613 -52.2613 -52.2612 -52.2612 -52.2612 -52.2612 -52.2612 -52.2612
    -0.5944  -0.5943  -0.2952  -0.2952  -0.2690  -0.2689  -0.2461  -0.2461
    -0.2236  -0.2236  -0.1892  -0.1891  -0.1776  -0.1776  -0.1591  -0.1591
    -0.1352  -0.1352  -0.1278  -0.1278  -0.1089  -0.1089  -0.0912  -0.0912
    -0.0690  -0.0690  -0.0541  -0.0541  -0.0504  -0.0504  -0.0439  -0.0439
    -0.0096  -0.0096   0.0741   0.0742   0.0878   0.0879   0.0990   0.0990
     0.1058   0.1060   0.1109   0.1111   0.1219   0.1222   0.1560   0.1562
     0.1899   0.1903   0.1907   0.1910   0.2100   0.2102   0.2153   0.2155
     0.2164   0.2167   0.2377   0.2379   0.2526   0.2528   0.2829   0.2831
     0.3206   0.3209   0.3303   0.3305   0.3520   0.3521   0.3661   0.3663
     0.3765   0.3767   0.3791   0.3794   0.4063   0.4066   0.4649   0.4652
     0.4754   0.4756   0.6088   0.6089   1.4384   1.4385   1.8577   1.8577
     2.2977   2.2978

          k = 0.0346 0.2423 0.2423 ( 45253 PWs)   bands (ev):

   -86.1944 -86.1944 -86.1930 -86.1930 -86.1930 -86.1930 -86.1930 -86.1930
   -86.1930 -86.1929 -86.1925 -86.1925 -86.1925 -86.1924 -86.1924 -86.1924
   -52.2640 -52.2640 -52.2640 -52.2640 -52.2640 -52.2640 -52.2637 -52.2636
   -52.2635 -52.2635 -52.2635 -52.2635 -52.2634 -52.2634 -52.2634 -52.2634
   -52.2633 -52.2633 -52.2632 -52.2632 -52.2632 -52.2631 -52.2629 -52.2628
   -52.2628 -52.2622 -52.2622 -52.2622 -52.2622 -52.2621 -52.2621 -52.2620
   -52.2620 -52.2619 -52.2617 -52.2617 -52.2616 -52.2616 -52.2616 -52.2615
   -52.2613 -52.2613 -52.2612 -52.2612 -52.2612 -52.2612 -52.2611 -52.2611
    -0.6380  -0.3227  -0.3225  -0.3000  -0.2737  -0.2670  -0.2665  -0.2518
    -0.2336  -0.2174  -0.2172  -0.1665  -0.1661  -0.1638  -0.1587  -0.1566
    -0.1562  -0.1431  -0.1339  -0.1238  -0.1074  -0.0966  -0.0803  -0.0802
    -0.0740  -0.0685  -0.0685  -0.0658  -0.0656  -0.0647  -0.0542  -0.0267
    -0.0236   0.0251   0.0254   0.0714   0.0717   0.0839   0.0849   0.0874
     0.0893   0.0902   0.1056   0.1103   0.1114   0.1379   0.1394   0.1475
     0.1886   0.2015   0.2028   0.2128   0.2156   0.2288   0.2301   0.2395
     0.2419   0.2527   0.2536   0.2550   0.2664   0.2847   0.2860   0.2864
     0.2949   0.3101   0.3104   0.3199   0.3217   0.3384   0.3471   0.3492
     0.3573   0.3582   0.3700   0.3766   0.3793   0.3851   0.3862   0.4694
     0.4711   0.4763   0.4865   0.5787   1.3920   1.8078   1.8325   1.8327
     2.2455   2.2457

          k = 0.0346 0.2423-0.3115 ( 45278 PWs)   bands (ev):

   -86.1944 -86.1944 -86.1930 -86.1930 -86.1930 -86.1930 -86.1930 -86.1930
   -86.1929 -86.1929 -86.1925 -86.1925 -86.1925 -86.1924 -86.1924 -86.1924
   -52.2641 -52.2641 -52.2640 -52.2640 -52.2640 -52.2640 -52.2637 -52.2636
   -52.2636 -52.2635 -52.2635 -52.2635 -52.2635 -52.2635 -52.2634 -52.2633
   -52.2633 -52.2633 -52.2633 -52.2633 -52.2632 -52.2632 -52.2629 -52.2628
   -52.2628 -52.2623 -52.2622 -52.2622 -52.2622 -52.2622 -52.2621 -52.2620
   -52.2620 -52.2619 -52.2617 -52.2617 -52.2616 -52.2616 -52.2616 -52.2616
   -52.2613 -52.2613 -52.2613 -52.2612 -52.2612 -52.2612 -52.2612 -52.2612
    -0.4765  -0.4765  -0.2844  -0.2844  -0.2615  -0.2615  -0.2593  -0.2593
    -0.2468  -0.2468  -0.1892  -0.1891  -0.1615  -0.1615  -0.1469  -0.1469
    -0.1332  -0.1331  -0.1219  -0.1219  -0.1101  -0.1101  -0.0962  -0.0961
    -0.0807  -0.0807  -0.0690  -0.0690  -0.0583  -0.0583  -0.0372  -0.0371
    -0.0167  -0.0167   0.0350   0.0350   0.0756   0.0758   0.0865   0.0867
     0.0948   0.0950   0.0955   0.0957   0.1225   0.1228   0.1407   0.1410
     0.2131   0.2134   0.2198   0.2201   0.2260   0.2262   0.2396   0.2397
     0.2409   0.2413   0.2532   0.2534   0.2818   0.2820   0.2863   0.2866
     0.3124   0.3126   0.3195   0.3197   0.3404   0.3408   0.3411   0.3412
     0.3421   0.3423   0.3489   0.3491   0.3764   0.3767   0.4194   0.4196
     0.4757   0.4760   0.4812   0.4814   1.5907   1.5907   2.0059   2.0059
     2.0221   2.0221

          k = 0.0346-0.3115-0.3115 ( 45288 PWs)   bands (ev):

   -86.1944 -86.1944 -86.1930 -86.1930 -86.1930 -86.1930 -86.1930 -86.1930
   -86.1930 -86.1930 -86.1925 -86.1925 -86.1925 -86.1924 -86.1924 -86.1924
   -52.2640 -52.2640 -52.2640 -52.2640 -52.2640 -52.2640 -52.2637 -52.2635
   -52.2635 -52.2635 -52.2635 -52.2635 -52.2634 -52.2634 -52.2634 -52.2634
   -52.2634 -52.2633 -52.2633 -52.2632 -52.2632 -52.2632 -52.2630 -52.2629
   -52.2628 -52.2622 -52.2622 -52.2622 -52.2622 -52.2622 -52.2621 -52.2621
   -52.2620 -52.2619 -52.2617 -52.2617 -52.2617 -52.2616 -52.2616 -52.2616
   -52.2613 -52.2613 -52.2613 -52.2613 -52.2612 -52.2612 -52.2612 -52.2611
    -0.3510  -0.3510  -0.3509  -0.3508  -0.2725  -0.2725  -0.2720  -0.2720
    -0.2194  -0.2193  -0.2191  -0.2191  -0.1385  -0.1385  -0.1382  -0.1382
    -0.1226  -0.1226  -0.1223  -0.1223  -0.1041  -0.1041  -0.1039  -0.1039
    -0.0933  -0.0933  -0.0931  -0.0930  -0.0282  -0.0282  -0.0278  -0.0278
    -0.0255  -0.0255  -0.0253  -0.0253   0.0822   0.0822   0.0830   0.0834
     0.0887   0.0887   0.0894   0.0897   0.1283   0.1289   0.1301   0.1301
     0.2284   0.2288   0.2300   0.2300   0.2510   0.2510   0.2531   0.2537
     0.2550   0.2556   0.2567   0.2567   0.2819   0.2819   0.2820   0.2823
     0.3118   0.3118   0.3120   0.3123   0.3195   0.3195   0.3201   0.3204
     0.3464   0.3464   0.3482   0.3488   0.3544   0.3544   0.3552   0.3556
     0.4803   0.4809   0.4822   0.4822   1.7856   1.7856   1.7857   1.7859
     2.1968   2.1968

          k = 0.1038 0.1038 0.1038 ( 45220 PWs)   bands (ev):

   -86.1944 -86.1943 -86.1930 -86.1930 -86.1930 -86.1930 -86.1929 -86.1929
   -86.1929 -86.1929 -86.1925 -86.1925 -86.1925 -86.1924 -86.1924 -86.1924
   -52.2640 -52.2640 -52.2640 -52.2640 -52.2640 -52.2640 -52.2636 -52.2636
   -52.2636 -52.2635 -52.2635 -52.2635 -52.2634 -52.2634 -52.2634 -52.2634
   -52.2634 -52.2632 -52.2632 -52.2632 -52.2630 -52.2630 -52.2628 -52.2628
   -52.2628 -52.2623 -52.2623 -52.2623 -52.2621 -52.2621 -52.2621 -52.2619
   -52.2619 -52.2619 -52.2616 -52.2616 -52.2616 -52.2616 -52.2616 -52.2616
   -52.2614 -52.2613 -52.2613 -52.2612 -52.2612 -52.2612 -52.2611 -52.2611
    -1.0565  -0.3423  -0.3423  -0.2334  -0.2334  -0.2328  -0.2281  -0.2281
    -0.2273  -0.2230  -0.2230  -0.2227  -0.1981  -0.1981  -0.1981  -0.1941
    -0.1941  -0.1938  -0.1406  -0.1406  -0.1406  -0.0508  -0.0508  -0.0506
    -0.0433  -0.0433  -0.0368  -0.0368  -0.0328  -0.0328  -0.0216  -0.0215
    -0.0215   0.0809   0.0844   0.0855   0.0855   0.0918   0.0918   0.0932
     0.1462   0.1462   0.1497   0.1497   0.1518   0.1614   0.1614   0.1622
     0.1766   0.1766   0.1813   0.1813   0.1835   0.2171   0.2308   0.2312
     0.2312   0.2315   0.2332   0.2332   0.2353   0.2353   0.2362   0.2983
     0.2983   0.3010   0.3015   0.3031   0.3031   0.3989   0.3989   0.4011
     0.4123   0.4514   0.4514   0.4529   0.4600   0.4600   0.4766   0.4782
     0.4782   0.5199   0.5199   0.5207   1.7532   1.7533   1.7533   1.8342
     1.8342   1.8345

          k = 0.1038 0.1038 0.1730 ( 45240 PWs)   bands (ev):

   -86.1944 -86.1943 -86.1930 -86.1930 -86.1930 -86.1930 -86.1929 -86.1929
   -86.1929 -86.1929 -86.1925 -86.1925 -86.1925 -86.1924 -86.1924 -86.1924
   -52.2641 -52.2641 -52.2640 -52.2640 -52.2640 -52.2640 -52.2636 -52.2636
   -52.2636 -52.2636 -52.2635 -52.2635 -52.2635 -52.2634 -52.2634 -52.2634
   -52.2634 -52.2632 -52.2632 -52.2631 -52.2631 -52.2631 -52.2628 -52.2628
   -52.2628 -52.2622 -52.2622 -52.2622 -52.2621 -52.2621 -52.2621 -52.2619
   -52.2619 -52.2619 -52.2617 -52.2616 -52.2616 -52.2616 -52.2616 -52.2616
   -52.2613 -52.2613 -52.2613 -52.2612 -52.2612 -52.2612 -52.2611 -52.2611
    -0.9596  -0.3320  -0.3264  -0.2694  -0.2499  -0.2305  -0.2301  -0.2219
    -0.2202  -0.2198  -0.2193  -0.2192  -0.2094  -0.2014  -0.1841  -0.1840
    -0.1834  -0.1831  -0.1302  -0.1302  -0.1153  -0.0734  -0.0732  -0.0687
    -0.0581  -0.0500  -0.0450  -0.0418  -0.0342  -0.0290  -0.0273  -0.0272
    -0.0233   0.0699   0.0833   0.0883   0.0918   0.0925   0.1044   0.1054
     0.1056   0.1273   0.1398   0.1404   0.1450   0.1463   0.1535   0.1608
     0.1713   0.1799   0.1933   0.1981   0.1997   0.2021   0.2036   0.2128
     0.2139   0.2151   0.2165   0.2321   0.2347   0.2472   0.2627   0.2738
     0.2922   0.2935   0.3149   0.3160   0.3319   0.3582   0.3863   0.4137
     0.4148   0.4156   0.4210   0.4315   0.4325   0.4430   0.4478   0.4627
     0.4738   0.4749   0.6279   0.6285   1.4958   1.4960   1.8622   1.8622
     1.9326   2.2763

          k = 0.1038 0.1038 0.2423 ( 45238 PWs)   bands (ev):

   -86.1944 -86.1943 -86.1930 -86.1930 -86.1930 -86.1930 -86.1929 -86.1929
   -86.1929 -86.1929 -86.1925 -86.1925 -86.1925 -86.1924 -86.1924 -86.1924
   -52.2641 -52.2640 -52.2640 -52.2640 -52.2640 -52.2640 -52.2637 -52.2636
   -52.2636 -52.2635 -52.2635 -52.2635 -52.2635 -52.2634 -52.2634 -52.2634
   -52.2633 -52.2633 -52.2632 -52.2632 -52.2631 -52.2631 -52.2629 -52.2628
   -52.2628 -52.2623 -52.2622 -52.2622 -52.2621 -52.2621 -52.2621 -52.2620
   -52.2619 -52.2619 -52.2617 -52.2616 -52.2616 -52.2616 -52.2616 -52.2616
   -52.2613 -52.2613 -52.2612 -52.2612 -52.2612 -52.2612 -52.2612 -52.2611
    -0.8173  -0.4348  -0.3169  -0.3043  -0.2751  -0.2493  -0.2266  -0.2263
    -0.2199  -0.2197  -0.2097  -0.2093  -0.1872  -0.1868  -0.1772  -0.1662
    -0.1601  -0.1598  -0.1024  -0.1019  -0.1019  -0.1009  -0.1006  -0.0923
    -0.0893  -0.0550  -0.0491  -0.0465  -0.0433  -0.0432  -0.0312  -0.0256
    -0.0221   0.0277   0.0664   0.0747   0.0939   0.1012   0.1019   0.1128
     0.1222   0.1234   0.1235   0.1241   0.1476   0.1490   0.1573   0.1638
     0.1694   0.1718   0.1732   0.1814   0.1845   0.1849   0.1860   0.2020
     0.2059   0.2194   0.2209   0.2264   0.2554   0.2703   0.2716   0.2800
     0.2935   0.3093   0.3175   0.3460   0.3470   0.3567   0.3624   0.3708
     0.4065   0.4077   0.4081   0.4200   0.4327   0.4337   0.4386   0.4598
     0.4647   0.4660   0.7749   0.7754   1.2059   1.2062   2.0207   2.0207
     2.0740   2.4691

          k = 0.1038 0.1038-0.3115 ( 45264 PWs)   bands (ev):

   -86.1944 -86.1944 -86.1930 -86.1930 -86.1930 -86.1930 -86.1929 -86.1929
   -86.1929 -86.1929 -86.1925 -86.1925 -86.1925 -86.1924 -86.1924 -86.1924
   -52.2641 -52.2641 -52.2641 -52.2640 -52.2640 -52.2640 -52.2637 -52.2637
   -52.2636 -52.2635 -52.2635 -52.2635 -52.2635 -52.2635 -52.2634 -52.2633
   -52.2633 -52.2633 -52.2632 -52.2632 -52.2631 -52.2631 -52.2629 -52.2628
   -52.2628 -52.2623 -52.2622 -52.2622 -52.2622 -52.2621 -52.2621 -52.2620
   -52.2619 -52.2619 -52.2617 -52.2616 -52.2616 -52.2616 -52.2616 -52.2616
   -52.2613 -52.2613 -52.2612 -52.2612 -52.2612 -52.2612 -52.2612 -52.2612
    -0.6359  -0.6358  -0.2977  -0.2977  -0.2777  -0.2777  -0.2228  -0.2228
    -0.2225  -0.2225  -0.1979  -0.1978  -0.1975  -0.1974  -0.1401  -0.1401
    -0.1309  -0.1309  -0.1307  -0.1307  -0.1271  -0.1270  -0.0720  -0.0720
    -0.0695  -0.0695  -0.0694  -0.0694  -0.0480  -0.0479  -0.0284  -0.0284
    -0.0075  -0.0075   0.0684   0.0686   0.1018   0.1019   0.1113   0.1115
     0.1119   0.1121   0.1447   0.1449   0.1459   0.1462   0.1607   0.1610
     0.1611   0.1613   0.1629   0.1631   0.1717   0.1719   0.1920   0.1921
     0.2172   0.2175   0.2442   0.2444   0.2456   0.2458   0.2794   0.2797
     0.3232   0.3234   0.3254   0.3257   0.3631   0.3633   0.3777   0.3780
     0.3787   0.3789   0.3923   0.3924   0.4503   0.4504   0.4507   0.4509
     0.4526   0.4526   0.9661   0.9662   0.9665   0.9666   2.2249   2.2250
     2.2250   2.2250

          k = 0.1038 0.1730 0.1730 ( 45263 PWs)   bands (ev):

   -86.1944 -86.1943 -86.1930 -86.1930 -86.1930 -86.1930 -86.1930 -86.1930
   -86.1929 -86.1929 -86.1925 -86.1925 -86.1925 -86.1924 -86.1924 -86.1924
   -52.2641 -52.2640 -52.2640 -52.2640 -52.2640 -52.2640 -52.2636 -52.2636
   -52.2636 -52.2635 -52.2635 -52.2635 -52.2635 -52.2635 -52.2634 -52.2634
   -52.2634 -52.2633 -52.2632 -52.2632 -52.2632 -52.2631 -52.2629 -52.2628
   -52.2628 -52.2623 -52.2622 -52.2622 -52.2621 -52.2621 -52.2621 -52.2620
   -52.2619 -52.2619 -52.2617 -52.2617 -52.2616 -52.2616 -52.2616 -52.2616
   -52.2613 -52.2613 -52.2613 -52.2612 -52.2612 -52.2612 -52.2611 -52.2611
    -0.8643  -0.3199  -0.3128  -0.2435  -0.2431  -0.2339  -0.2336  -0.2320
    -0.2138  -0.2088  -0.2085  -0.2078  -0.2075  -0.2074  -0.1931  -0.1926
    -0.1774  -0.1586  -0.1338  -0.1093  -0.1092  -0.0987  -0.0788  -0.0726
    -0.0725  -0.0613  -0.0610  -0.0441  -0.0436  -0.0322  -0.0303  -0.0301
    -0.0242   0.0608   0.0897   0.0908   0.0939   0.0947   0.0971   0.0973
     0.0980   0.1202   0.1231   0.1244   0.1290   0.1508   0.1522   0.1655
     0.1680   0.1730   0.1810   0.1824   0.1836   0.2143   0.2156   0.2212
     0.2270   0.2288   0.2305   0.2453   0.2508   0.2524   0.2541   0.2563
     0.2891   0.2925   0.3001   0.3224   0.3232   0.3571   0.3928   0.3937
     0.4061   0.4106   0.4272   0.4284   0.4330   0.4336   0.4346   0.4452
     0.4464   0.4628   0.4766   0.7384   1.1650   1.5996   1.5999   1.9681
     2.3809   2.3809

          k = 0.1038 0.1730 0.2423 ( 45287 PWs)   bands (ev):

   -86.1944 -86.1944 -86.1930 -86.1930 -86.1930 -86.1930 -86.1930 -86.1930
   -86.1929 -86.1929 -86.1925 -86.1925 -86.1925 -86.1925 -86.1924 -86.1924
   -52.2641 -52.2641 -52.2640 -52.2640 -52.2640 -52.2640 -52.2637 -52.2636
   -52.2636 -52.2635 -52.2635 -52.2635 -52.2635 -52.2635 -52.2634 -52.2634
   -52.2634 -52.2633 -52.2633 -52.2632 -52.2632 -52.2631 -52.2629 -52.2628
   -52.2628 -52.2623 -52.2622 -52.2622 -52.2622 -52.2621 -52.2621 -52.2620
   -52.2619 -52.2619 -52.2618 -52.2617 -52.2616 -52.2616 -52.2616 -52.2616
   -52.2613 -52.2613 -52.2613 -52.2613 -52.2612 -52.2612 -52.2612 -52.2612
    -0.7251  -0.3664  -0.3052  -0.2911  -0.2663  -0.2388  -0.2363  -0.2338
    -0.2086  -0.2072  -0.2049  -0.2022  -0.1861  -0.1817  -0.1768  -0.1581
    -0.1573  -0.1572  -0.1277  -0.1102  -0.1065  -0.1001  -0.0886  -0.0868
    -0.0842  -0.0714  -0.0674  -0.0545  -0.0478  -0.0430  -0.0342  -0.0318
    -0.0274   0.0254   0.0599   0.0764   0.0932   0.0980   0.0990   0.1028
     0.1032   0.1111   0.1134   0.1193   0.1409   0.1453   0.1548   0.1588
     0.1600   0.1611   0.1635   0.1730   0.1874   0.1969   0.2084   0.2144
     0.2312   0.2401   0.2466   0.2543   0.2598   0.2638   0.2819   0.2893
     0.2942   0.3010   0.3068   0.3242   0.3252   0.3471   0.3521   0.3536
     0.3660   0.3743   0.4081   0.4117   0.4162   0.4387   0.4481   0.4500
     0.4629   0.4727   0.5290   0.8868   0.8915   1.3142   1.7476   2.1226
     2.1635   2.5326

          k = 0.1038 0.1730-0.3115 ( 45254 PWs)   bands (ev):

   -86.1944 -86.1944 -86.1930 -86.1930 -86.1930 -86.1930 -86.1929 -86.1929
   -86.1929 -86.1929 -86.1925 -86.1925 -86.1925 -86.1924 -86.1924 -86.1924
   -52.2641 -52.2640 -52.2640 -52.2640 -52.2640 -52.2640 -52.2637 -52.2636
   -52.2636 -52.2636 -52.2635 -52.2635 -52.2635 -52.2634 -52.2634 -52.2633
   -52.2633 -52.2633 -52.2632 -52.2632 -52.2632 -52.2631 -52.2629 -52.2628
   -52.2627 -52.2622 -52.2622 -52.2622 -52.2622 -52.2621 -52.2621 -52.2620
   -52.2619 -52.2619 -52.2617 -52.2617 -52.2616 -52.2616 -52.2616 -52.2616
   -52.2613 -52.2613 -52.2612 -52.2612 -52.2612 -52.2612 -52.2612 -52.2612
    -0.5506  -0.5505  -0.2872  -0.2872  -0.2646  -0.2646  -0.2359  -0.2359
    -0.2031  -0.2031  -0.2025  -0.2025  -0.1691  -0.1691  -0.1578  -0.1578
    -0.1416  -0.1416  -0.1300  -0.1300  -0.1189  -0.1189  -0.0758  -0.0758
    -0.0700  -0.0700  -0.0697  -0.0697  -0.0544  -0.0544  -0.0388  -0.0388
    -0.0125  -0.0125   0.0656   0.0658   0.0959   0.0960   0.1034   0.1035
     0.1044   0.1047   0.1215   0.1217   0.1322   0.1324   0.1583   0.1586
     0.1665   0.1668   0.1676   0.1678   0.1813   0.1815   0.1975   0.1977
     0.2449   0.2453   0.2665   0.2667   0.2740   0.2742   0.2921   0.2923
     0.3012   0.3014   0.3121   0.3123   0.3356   0.3358   0.3366   0.3369
     0.3661   0.3663   0.3839   0.3841   0.4275   0.4278   0.4580   0.4584
     0.4633   0.4635   0.6797   0.6798   1.0772   1.0773   1.9360   1.9361
     2.3215   2.3216

          k = 0.1038 0.2423 0.2423 ( 45263 PWs)   bands (ev):

   -86.1944 -86.1943 -86.1930 -86.1930 -86.1930 -86.1930 -86.1930 -86.1929
   -86.1929 -86.1929 -86.1925 -86.1925 -86.1925 -86.1924 -86.1924 -86.1924
   -52.2641 -52.2640 -52.2640 -52.2640 -52.2640 -52.2640 -52.2637 -52.2636
   -52.2636 -52.2636 -52.2635 -52.2635 -52.2635 -52.2634 -52.2634 -52.2634
   -52.2633 -52.2633 -52.2632 -52.2632 -52.2632 -52.2632 -52.2629 -52.2628
   -52.2627 -52.2622 -52.2622 -52.2622 -52.2622 -52.2621 -52.2621 -52.2620
   -52.2619 -52.2619 -52.2617 -52.2617 -52.2616 -52.2616 -52.2616 -52.2616
   -52.2613 -52.2613 -52.2613 -52.2612 -52.2612 -52.2612 -52.2612 -52.2611
    -0.5926  -0.2913  -0.2876  -0.2874  -0.2700  -0.2580  -0.2575  -0.2416
    -0.2147  -0.2145  -0.2112  -0.1843  -0.1762  -0.1759  -0.1572  -0.1499
    -0.1463  -0.1459  -0.1226  -0.1191  -0.1175  -0.0989  -0.0988  -0.0879
    -0.0855  -0.0727  -0.0726  -0.0585  -0.0546  -0.0537  -0.0535  -0.0311
    -0.0270   0.0246   0.0248   0.0617   0.0743   0.0843   0.0855   0.0980
     0.0988   0.1029   0.1063   0.1143   0.1203   0.1422   0.1437   0.1502
     0.1647   0.1746   0.1759   0.1889   0.1973   0.2189   0.2248   0.2267
     0.2428   0.2437   0.2578   0.2582   0.2591   0.2722   0.2751   0.2824
     0.2915   0.2951   0.3132   0.3198   0.3209   0.3318   0.3324   0.3327
     0.3387   0.3904   0.4025   0.4039   0.4050   0.4084   0.4099   0.4597
     0.4613   0.4665   0.4741   0.6524   1.0381   1.4657   1.4660   1.8907
     2.2712   2.6874

          k = 0.1038 0.2423-0.3115 ( 45270 PWs)   bands (ev):

   -86.1944 -86.1944 -86.1930 -86.1930 -86.1930 -86.1930 -86.1929 -86.1929
   -86.1929 -86.1929 -86.1925 -86.1925 -86.1925 -86.1925 -86.1924 -86.1924
   -52.2641 -52.2641 -52.2640 -52.2640 -52.2640 -52.2640 -52.2637 -52.2636
   -52.2636 -52.2636 -52.2635 -52.2635 -52.2635 -52.2634 -52.2634 -52.2634
   -52.2633 -52.2633 -52.2633 -52.2632 -52.2632 -52.2632 -52.2629 -52.2628
   -52.2627 -52.2623 -52.2622 -52.2622 -52.2622 -52.2621 -52.2621 -52.2620
   -52.2620 -52.2619 -52.2617 -52.2617 -52.2616 -52.2616 -52.2616 -52.2616
   -52.2613 -52.2613 -52.2613 -52.2612 -52.2612 -52.2612 -52.2612 -52.2612
    -0.4339  -0.4338  -0.2755  -0.2755  -0.2496  -0.2496  -0.2435  -0.2434
    -0.2322  -0.2321  -0.1871  -0.1871  -0.1768  -0.1768  -0.1442  -0.1442
    -0.1337  -0.1337  -0.1278  -0.1278  -0.1099  -0.1099  -0.0964  -0.0963
    -0.0836  -0.0836  -0.0606  -0.0606  -0.0595  -0.0594  -0.0412  -0.0411
    -0.0200  -0.0199   0.0359   0.0359   0.0704   0.0706   0.0988   0.0989
     0.0994   0.0998   0.1010   0.1011   0.1261   0.1263   0.1437   0.1439
     0.1879   0.1882   0.1933   0.1936   0.2000   0.2002   0.2139   0.2140
     0.2576   0.2578   0.2710   0.2713   0.2794   0.2795   0.2825   0.2827
     0.2853   0.2855   0.2941   0.2943   0.3045   0.3047   0.3520   0.3522
     0.3625   0.3627   0.3681   0.3682   0.3999   0.4001   0.4657   0.4661
     0.4698   0.4700   0.4981   0.4983   1.2300   1.2300   1.6580   1.6581
     2.4622   2.4622

          k = 0.1038-0.3115-0.3115 ( 45264 PWs)   bands (ev):

   -86.1944 -86.1944 -86.1930 -86.1930 -86.1930 -86.1930 -86.1930 -86.1930
   -86.1930 -86.1930 -86.1925 -86.1925 -86.1925 -86.1924 -86.1924 -86.1924
   -52.2640 -52.2640 -52.2640 -52.2640 -52.2640 -52.2640 -52.2636 -52.2636
   -52.2635 -52.2635 -52.2635 -52.2634 -52.2634 -52.2634 -52.2634 -52.2634
   -52.2633 -52.2633 -52.2633 -52.2632 -52.2632 -52.2632 -52.2630 -52.2628
   -52.2627 -52.2622 -52.2622 -52.2622 -52.2622 -52.2622 -52.2622 -52.2620
   -52.2620 -52.2619 -52.2617 -52.2617 -52.2617 -52.2616 -52.2616 -52.2616
   -52.2613 -52.2613 -52.2613 -52.2612 -52.2612 -52.2612 -52.2612 -52.2611
    -0.3122  -0.3122  -0.3121  -0.3120  -0.2632  -0.2631  -0.2627  -0.2627
    -0.2166  -0.2166  -0.2163  -0.2163  -0.1539  -0.1539  -0.1536  -0.1536
    -0.1190  -0.1190  -0.1190  -0.1190  -0.1065  -0.1065  -0.1061  -0.1061
    -0.0841  -0.0841  -0.0838  -0.0837  -0.0305  -0.0305  -0.0301  -0.0301
    -0.0296  -0.0296  -0.0293  -0.0293   0.0816   0.0816   0.0826   0.0830
     0.0977   0.0977   0.0983   0.0987   0.1314   0.1319   0.1331   0.1331
     0.2054   0.2059   0.2070   0.2070   0.2233   0.2233   0.2250   0.2255
     0.2411   0.2411   0.2416   0.2420   0.2702   0.2702   0.2707   0.2710
     0.2850   0.2856   0.2868   0.2868   0.3346   0.3346   0.3352   0.3356
     0.3771   0.3771   0.3779   0.3783   0.4049   0.4049   0.4062   0.4067
     0.4695   0.4701   0.4714   0.4714   1.4229   1.4229   1.4231   1.4233
     2.6422   2.6423

          k = 0.1730 0.1730 0.1730 ( 45296 PWs)   bands (ev):

   -86.1944 -86.1943 -86.1930 -86.1930 -86.1930 -86.1930 -86.1930 -86.1929
   -86.1929 -86.1929 -86.1925 -86.1925 -86.1925 -86.1924 -86.1924 -86.1924
   -52.2641 -52.2641 -52.2641 -52.2640 -52.2640 -52.2640 -52.2636 -52.2636
   -52.2636 -52.2635 -52.2635 -52.2635 -52.2635 -52.2635 -52.2634 -52.2634
   -52.2634 -52.2633 -52.2633 -52.2633 -52.2631 -52.2631 -52.2629 -52.2628
   -52.2628 -52.2623 -52.2622 -52.2622 -52.2621 -52.2621 -52.2621 -52.2620
   -52.2619 -52.2619 -52.2618 -52.2617 -52.2617 -52.2616 -52.2616 -52.2616
   -52.2613 -52.2613 -52.2613 -52.2613 -52.2613 -52.2612 -52.2612 -52.2612
    -0.7704  -0.3037  -0.3037  -0.2314  -0.2314  -0.2311  -0.2107  -0.2107
    -0.2102  -0.2003  -0.2003  -0.2002  -0.1947  -0.1947  -0.1942  -0.1847
    -0.1847  -0.1840  -0.1109  -0.1107  -0.1107  -0.0972  -0.0972  -0.0969
    -0.0837  -0.0837  -0.0543  -0.0543  -0.0412  -0.0412  -0.0284  -0.0282
    -0.0282   0.0532   0.0917   0.0917   0.0919   0.0993   0.0993   0.1013
     0.1020   0.1031   0.1031   0.1335   0.1335   0.1356   0.1483   0.1483
     0.1695   0.1695   0.1965   0.1965   0.1989   0.2088   0.2098   0.2098
     0.2103   0.2103   0.2126   0.2295   0.2403   0.2403   0.2424   0.2827
     0.2912   0.2912   0.3256   0.3292   0.3309   0.3309   0.3616   0.3616
     0.3630   0.4292   0.4292   0.4313   0.4452   0.4452   0.4487   0.4505
     0.4505   0.5151   0.5151   0.5167   1.2738   1.2738   1.2743   2.1190
     2.4819   2.4819

          k = 0.1730 0.1730 0.2423 ( 45273 PWs)   bands (ev):

   -86.1944 -86.1944 -86.1930 -86.1930 -86.1930 -86.1930 -86.1929 -86.1929
   -86.1929 -86.1929 -86.1925 -86.1925 -86.1925 -86.1924 -86.1924 -86.1924
   -52.2641 -52.2640 -52.2640 -52.2640 -52.2640 -52.2640 -52.2637 -52.2636
   -52.2636 -52.2635 -52.2635 -52.2635 -52.2635 -52.2634 -52.2634 -52.2634
   -52.2633 -52.2633 -52.2633 -52.2632 -52.2632 -52.2632 -52.2629 -52.2628
   -52.2628 -52.2622 -52.2622 -52.2622 -52.2621 -52.2621 -52.2621 -52.2620
   -52.2619 -52.2619 -52.2617 -52.2617 -52.2616 -52.2616 -52.2616 -52.2616
   -52.2613 -52.2613 -52.2613 -52.2613 -52.2612 -52.2612 -52.2612 -52.2611
    -0.6341  -0.2991  -0.2904  -0.2813  -0.2536  -0.2269  -0.2221  -0.2221
    -0.2135  -0.2133  -0.1818  -0.1817  -0.1813  -0.1752  -0.1748  -0.1672
    -0.1668  -0.1470  -0.1255  -0.1253  -0.1136  -0.0955  -0.0953  -0.0948
    -0.0894  -0.0878  -0.0762  -0.0540  -0.0473  -0.0373  -0.0372  -0.0345
    -0.0338   0.0238   0.0554   0.0808   0.0900   0.0904   0.1036   0.1042
     0.1098   0.1156   0.1169   0.1298   0.1311   0.1323   0.1422   0.1588
     0.1615   0.1655   0.1663   0.1671   0.1751   0.1758   0.1765   0.1954
     0.2261   0.2345   0.2447   0.2455   0.2599   0.2684   0.2699   0.2865
     0.2921   0.3123   0.3148   0.3194   0.3207   0.3245   0.3256   0.3320
     0.3618   0.4096   0.4141   0.4213   0.4328   0.4340   0.4431   0.4474
     0.4481   0.4513   0.6319   0.6328   1.0036   1.0041   1.4254   1.8477
     2.6283   2.6283

          k = 0.1730 0.1730-0.3115 ( 45288 PWs)   bands (ev):

   -86.1944 -86.1944 -86.1930 -86.1930 -86.1930 -86.1930 -86.1930 -86.1930
   -86.1929 -86.1929 -86.1925 -86.1925 -86.1925 -86.1924 -86.1924 -86.1924
   -52.2641 -52.2641 -52.2641 -52.2640 -52.2640 -52.2640 -52.2637 -52.2637
   -52.2636 -52.2636 -52.2635 -52.2635 -52.2635 -52.2635 -52.2634 -52.2634
   -52.2634 -52.2633 -52.2633 -52.2632 -52.2632 -52.2632 -52.2629 -52.2628
   -52.2627 -52.2622 -52.2622 -52.2622 -52.2621 -52.2621 -52.2621 -52.2620
   -52.2619 -52.2619 -52.2617 -52.2617 -52.2617 -52.2616 -52.2616 -52.2616
   -52.2613 -52.2613 -52.2612 -52.2612 -52.2612 -52.2612 -52.2612 -52.2611
    -0.4663  -0.4663  -0.2735  -0.2735  -0.2549  -0.2549  -0.2170  -0.2170
    -0.2168  -0.2168  -0.1667  -0.1667  -0.1663  -0.1662  -0.1552  -0.1551
    -0.1549  -0.1549  -0.1477  -0.1477  -0.1086  -0.1086  -0.0917  -0.0916
    -0.0703  -0.0703  -0.0619  -0.0619  -0.0617  -0.0617  -0.0403  -0.0403
    -0.0181  -0.0181   0.0651   0.0654   0.0943   0.0944   0.0949   0.0950
     0.1197   0.1198   0.1379   0.1381   0.1393   0.1396   0.1476   0.1478
     0.1486   0.1489   0.1521   0.1523   0.1586   0.1589   0.1843   0.1844
     0.2580   0.2583   0.2670   0.2671   0.2754   0.2757   0.2841   0.2843
     0.2849   0.2852   0.2963   0.2965   0.2977   0.2979   0.3537   0.3540
     0.3737   0.3738   0.3926   0.3928   0.4406   0.4409   0.4416   0.4420
     0.4500   0.4503   0.7910   0.7911   0.7917   0.7918   1.6166   1.6167
     2.8114   2.8115

          k = 0.1730 0.2423 0.2423 ( 45281 PWs)   bands (ev):

   -86.1944 -86.1944 -86.1930 -86.1930 -86.1930 -86.1930 -86.1930 -86.1930
   -86.1930 -86.1929 -86.1925 -86.1925 -86.1925 -86.1924 -86.1924 -86.1924
   -52.2641 -52.2641 -52.2640 -52.2640 -52.2640 -52.2640 -52.2637 -52.2636
   -52.2636 -52.2636 -52.2635 -52.2635 -52.2634 -52.2634 -52.2634 -52.2634
   -52.2633 -52.2633 -52.2633 -52.2632 -52.2632 -52.2632 -52.2629 -52.2628
   -52.2628 -52.2622 -52.2622 -52.2622 -52.2622 -52.2622 -52.2621 -52.2620
   -52.2619 -52.2619 -52.2617 -52.2617 -52.2617 -52.2616 -52.2616 -52.2616
   -52.2613 -52.2613 -52.2613 -52.2612 -52.2612 -52.2612 -52.2612 -52.2611
    -0.5043  -0.2747  -0.2625  -0.2416  -0.2411  -0.2230  -0.2227  -0.2222
    -0.2089  -0.2086  -0.2038  -0.1860  -0.1857  -0.1715  -0.1713  -0.1538
    -0.1354  -0.1350  -0.1269  -0.1222  -0.1221  -0.1219  -0.1085  -0.1027
    -0.0796  -0.0795  -0.0740  -0.0561  -0.0548  -0.0446  -0.0444  -0.0397
    -0.0332   0.0243   0.0244   0.0604   0.0814   0.0909   0.0922   0.0935
     0.1079   0.1089   0.1199   0.1280   0.1362   0.1372   0.1446   0.1457
     0.1503   0.1518   0.1552   0.1691   0.1781   0.1919   0.1936   0.2003
     0.2060   0.2065   0.2073   0.2134   0.2574   0.2742   0.2749   0.2783
     0.2886   0.2900   0.2994   0.3073   0.3266   0.3460   0.3513   0.3523
     0.3548   0.4091   0.4145   0.4157   0.4191   0.4431   0.4447   0.4477
     0.4510   0.4854   0.4867   0.7638   0.7651   1.1547   1.1552   1.5744
     2.7664   3.1125

          k = 0.1730 0.2423-0.3115 ( 45306 PWs)   bands (ev):

   -86.1944 -86.1944 -86.1930 -86.1930 -86.1930 -86.1930 -86.1930 -86.1930
   -86.1930 -86.1930 -86.1925 -86.1925 -86.1925 -86.1924 -86.1924 -86.1924
   -52.2641 -52.2640 -52.2640 -52.2640 -52.2640 -52.2640 -52.2637 -52.2636
   -52.2636 -52.2636 -52.2635 -52.2635 -52.2635 -52.2635 -52.2634 -52.2634
   -52.2634 -52.2634 -52.2633 -52.2633 -52.2632 -52.2632 -52.2630 -52.2628
   -52.2628 -52.2622 -52.2622 -52.2622 -52.2622 -52.2622 -52.2621 -52.2620
   -52.2619 -52.2619 -52.2617 -52.2617 -52.2617 -52.2616 -52.2616 -52.2616
   -52.2613 -52.2613 -52.2613 -52.2613 -52.2612 -52.2612 -52.2612 -52.2612
    -0.3519  -0.3519  -0.2589  -0.2589  -0.2367  -0.2367  -0.2313  -0.2313
    -0.1922  -0.1922  -0.1828  -0.1828  -0.1792  -0.1792  -0.1548  -0.1548
    -0.1501  -0.1501  -0.1228  -0.1228  -0.1175  -0.1174  -0.0975  -0.0974
    -0.0712  -0.0712  -0.0647  -0.0647  -0.0524  -0.0524  -0.0487  -0.0487
    -0.0263  -0.0263   0.0389   0.0390   0.0734   0.0736   0.0972   0.0973
     0.1119   0.1122   0.1166   0.1168   0.1329   0.1332   0.1489   0.1492
     0.1616   0.1620   0.1627   0.1629   0.1691   0.1693   0.1887   0.1888
     0.2235   0.2237   0.2315   0.2317   0.2361   0.2363   0.2371   0.2372
     0.3037   0.3040   0.3142   0.3144   0.3282   0.3284   0.3784   0.3786
     0.3826   0.3828   0.4066   0.4068   0.4142   0.4144   0.4473   0.4479
     0.4492   0.4492   0.5963   0.5965   0.9364   0.9365   1.3442   1.3443
     2.9376   2.9376

          k = 0.1730-0.3115-0.3115 ( 45256 PWs)   bands (ev):

   -86.1944 -86.1943 -86.1930 -86.1930 -86.1930 -86.1930 -86.1929 -86.1929
   -86.1929 -86.1929 -86.1925 -86.1925 -86.1925 -86.1924 -86.1924 -86.1924
   -52.2640 -52.2640 -52.2640 -52.2640 -52.2640 -52.2640 -52.2637 -52.2636
   -52.2635 -52.2635 -52.2635 -52.2635 -52.2634 -52.2634 -52.2634 -52.2634
   -52.2633 -52.2633 -52.2633 -52.2632 -52.2632 -52.2632 -52.2630 -52.2628
   -52.2627 -52.2622 -52.2622 -52.2622 -52.2622 -52.2621 -52.2621 -52.2620
   -52.2619 -52.2619 -52.2617 -52.2617 -52.2616 -52.2616 -52.2616 -52.2616
   -52.2613 -52.2613 -52.2613 -52.2613 -52.2612 -52.2612 -52.2611 -52.2611
    -0.2455  -0.2455  -0.2451  -0.2451  -0.2383  -0.2383  -0.2381  -0.2380
    -0.2113  -0.2113  -0.2110  -0.2110  -0.1684  -0.1684  -0.1681  -0.1681
    -0.1396  -0.1396  -0.1394  -0.1394  -0.0905  -0.0905  -0.0902  -0.0902
    -0.0749  -0.0749  -0.0746  -0.0745  -0.0373  -0.0373  -0.0370  -0.0370
    -0.0351  -0.0351  -0.0348  -0.0348   0.0891   0.0891   0.0902   0.0907
     0.1045   0.1045   0.1053   0.1057   0.1371   0.1376   0.1388   0.1388
     0.1859   0.1864   0.1874   0.1874   0.1903   0.1903   0.1917   0.1922
     0.2054   0.2054   0.2055   0.2056   0.2056   0.2060   0.2062   0.2063
     0.3182   0.3187   0.3199   0.3199   0.3579   0.3579   0.3586   0.3590
     0.3898   0.3898   0.3906   0.3909   0.4489   0.4495   0.4508   0.4508
     0.4791   0.4791   0.4803   0.4807   1.1186   1.1186   1.1190   1.1192
     3.0915   3.0916

          k = 0.2423 0.2423 0.2423 ( 45302 PWs)   bands (ev):

   -86.1944 -86.1944 -86.1930 -86.1930 -86.1930 -86.1930 -86.1930 -86.1930
   -86.1930 -86.1930 -86.1925 -86.1925 -86.1925 -86.1924 -86.1924 -86.1924
   -52.2641 -52.2640 -52.2640 -52.2640 -52.2640 -52.2640 -52.2637 -52.2637
   -52.2636 -52.2635 -52.2635 -52.2635 -52.2635 -52.2634 -52.2634 -52.2634
   -52.2634 -52.2633 -52.2633 -52.2633 -52.2632 -52.2632 -52.2630 -52.2628
   -52.2628 -52.2623 -52.2622 -52.2622 -52.2622 -52.2622 -52.2622 -52.2620
   -52.2619 -52.2619 -52.2617 -52.2617 -52.2617 -52.2616 -52.2616 -52.2616
   -52.2613 -52.2613 -52.2613 -52.2613 -52.2612 -52.2612 -52.2612 -52.2611
    -0.3799  -0.2518  -0.2518  -0.2221  -0.2221  -0.2217  -0.1975  -0.1975
    -0.1974  -0.1960  -0.1960  -0.1958  -0.1490  -0.1490  -0.1487  -0.1470
    -0.1470  -0.1464  -0.1354  -0.1354  -0.1245  -0.1245  -0.1239  -0.0841
    -0.0838  -0.0838  -0.0626  -0.0626  -0.0519  -0.0519  -0.0419  -0.0416
    -0.0416   0.0278   0.0278   0.0279   0.0688   0.0954   0.0954   0.0972
     0.1082   0.1082   0.1105   0.1276   0.1285   0.1285   0.1527   0.1527
     0.1559   0.1559   0.1579   0.1600   0.1600   0.1624   0.1626   0.1626
     0.1676   0.1843   0.1853   0.1853   0.2226   0.2290   0.2290   0.2302
     0.3195   0.3195   0.3216   0.3448   0.3448   0.3582   0.3599   0.3599
     0.4068   0.4182   0.4195   0.4195   0.4225   0.4225   0.4269   0.4269
     0.4290   0.5846   0.5846   0.5863   0.9061   0.9061   0.9070   1.3061
     3.2634   3.2634

          k = 0.2423 0.2423-0.3115 ( 45282 PWs)   bands (ev):

   -86.1944 -86.1944 -86.1930 -86.1930 -86.1930 -86.1930 -86.1930 -86.1930
   -86.1929 -86.1929 -86.1925 -86.1925 -86.1925 -86.1924 -86.1924 -86.1924
   -52.2640 -52.2640 -52.2640 -52.2640 -52.2640 -52.2640 -52.2637 -52.2637
   -52.2636 -52.2636 -52.2635 -52.2635 -52.2635 -52.2634 -52.2634 -52.2634
   -52.2634 -52.2633 -52.2633 -52.2633 -52.2632 -52.2632 -52.2630 -52.2627
   -52.2627 -52.2622 -52.2622 -52.2622 -52.2622 -52.2622 -52.2621 -52.2620
   -52.2619 -52.2619 -52.2617 -52.2617 -52.2617 -52.2616 -52.2616 -52.2616
   -52.2613 -52.2613 -52.2613 -52.2612 -52.2612 -52.2612 -52.2612 -52.2611
    -0.2404  -0.2403  -0.2381  -0.2381  -0.2251  -0.2251  -0.2070  -0.2070
    -0.2069  -0.2069  -0.1763  -0.1763  -0.1761  -0.1761  -0.1657  -0.1657
    -0.1427  -0.1427  -0.1170  -0.1169  -0.1166  -0.1166  -0.0847  -0.0847
    -0.0668  -0.0668  -0.0588  -0.0588  -0.0586  -0.0585  -0.0518  -0.0518
    -0.0353  -0.0352   0.0492   0.0493   0.0497   0.0498   0.0856   0.0858
     0.1231   0.1233   0.1311   0.1313   0.1328   0.1330   0.1390   0.1391
     0.1426   0.1429   0.1434   0.1437   0.1532   0.1535   0.1725   0.1727
     0.1881   0.1883   0.1898   0.1901   0.1962   0.1964   0.1971   0.1973
     0.3356   0.3359   0.3461   0.3463   0.3475   0.3477   0.3828   0.3830
     0.3919   0.3921   0.4200   0.4203   0.4210   0.4214   0.4286   0.4288
     0.4770   0.4772   0.7194   0.7196   0.7203   0.7205   1.0849   1.0850
     3.3763   3.3764

          k = 0.2423-0.3115-0.3115 ( 45256 PWs)   bands (ev):

   -86.1944 -86.1943 -86.1930 -86.1930 -86.1930 -86.1930 -86.1929 -86.1929
   -86.1929 -86.1929 -86.1925 -86.1925 -86.1925 -86.1924 -86.1924 -86.1924
[...]
   -48.7210 -48.7209 -48.7208 -48.7208 -48.7207 -48.7207 -48.7204 -48.7203
   -48.7202 -48.7202 -48.7202 -48.7202 -48.7201 -48.7200 -48.7200 -48.7200
   -48.7200 -48.7199 -48.7199 -48.7199 -48.7199 -48.7197 -48.7196 -48.7196
   -48.7196 -48.7196 -48.7196 -48.7196 -48.7195 -48.7195 -48.7194 -48.7194
    -0.5134   0.3553   0.3553   0.3561   1.1328   1.1328   1.1332   1.8246
     2.1683   2.1697   2.1697   2.1806   2.1806   2.1810   2.3801   2.5931
     2.5931   2.6294   2.6294   2.6310   2.6599   2.6599   2.6792   2.6802
     2.6802   2.7304   2.7324   2.7324   2.7513   2.7533   2.7533   2.7658
     2.7658   2.7678   2.7678   2.7678   2.8538   2.8542   2.8542   2.8674
     2.8698   2.8698   2.9055   2.9055   2.9201   2.9208   2.9208   2.9439
     2.9501   3.1026   3.1050   3.1050   3.2421   3.2421   3.2801   3.2823
     3.2823   3.2858   3.2858   3.2879   3.3124   3.3143   3.3143   3.4506
     3.4506   3.4533   3.4573   3.4582   3.4582   3.5260   3.5264   3.5264
     3.5825   3.5825   3.5825   3.6062   3.6062   3.6512   3.6564   3.6564
     3.6742   3.6742   3.6936   3.6936   3.6937   3.7061   3.7061   3.7061
     3.8906   3.8907

          k = 0.1730 0.1730 0.2423 ( 45273 PWs)   bands (ev):

   -82.5777 -82.5776 -82.5770 -82.5770 -82.5770 -82.5769 -82.5769 -82.5769
   -82.5769 -82.5769 -82.5767 -82.5767 -82.5767 -82.5767 -82.5766 -82.5766
   -48.7217 -48.7215 -48.7215 -48.7214 -48.7213 -48.7213 -48.7213 -48.7213
   -48.7212 -48.7212 -48.7212 -48.7212 -48.7212 -48.7211 -48.7210 -48.7210
   -48.7209 -48.7209 -48.7208 -48.7208 -48.7208 -48.7207 -48.7204 -48.7203
   -48.7203 -48.7202 -48.7201 -48.7201 -48.7201 -48.7200 -48.7200 -48.7200
   -48.7200 -48.7199 -48.7199 -48.7199 -48.7198 -48.7197 -48.7197 -48.7196
   -48.7196 -48.7196 -48.7195 -48.7195 -48.7195 -48.7194 -48.7194 -48.7194
    -0.3661   0.0703   0.4922   0.4927   0.8868   0.8873   1.2603   1.6160
     2.2200   2.2200   2.2272   2.2281   2.2357   2.3562   2.4770   2.6005
     2.6182   2.6205   2.6474   2.6485   2.6608   2.6692   2.7012   2.7033
     2.7044   2.7057   2.7167   2.7172   2.7309   2.7418   2.7432   2.7495
     2.7503   2.7510   2.7631   2.7650   2.8091   2.8092   2.8306   2.8367
     2.8587   2.8598   2.8785   2.9013   2.9016   2.9056   2.9073   2.9313
     2.9804   3.0614   3.1533   3.1547   3.2313   3.2526   3.2585   3.2597
     3.2631   3.2853   3.3215   3.3234   3.3309   3.3318   3.3866   3.4067
     3.4085   3.4200   3.4207   3.4879   3.5083   3.5464   3.5466   3.5515
     3.5656   3.5682   3.5796   3.5796   3.5821   3.6056   3.6339   3.6550
     3.6691   3.6812   3.6907   3.6925   3.6926   3.6958   3.7011   3.7011
     3.9521   3.9524

          k = 0.1730 0.1730-0.3115 ( 45288 PWs)   bands (ev):

   -82.5777 -82.5776 -82.5770 -82.5770 -82.5769 -82.5769 -82.5769 -82.5769
   -82.5769 -82.5769 -82.5767 -82.5767 -82.5767 -82.5767 -82.5767 -82.5767
   -48.7215 -48.7215 -48.7215 -48.7215 -48.7215 -48.7214 -48.7214 -48.7213
   -48.7213 -48.7213 -48.7212 -48.7212 -48.7212 -48.7211 -48.7210 -48.7210
   -48.7210 -48.7209 -48.7208 -48.7208 -48.7208 -48.7208 -48.7204 -48.7203
   -48.7202 -48.7202 -48.7202 -48.7201 -48.7201 -48.7200 -48.7200 -48.7200
   -48.7200 -48.7199 -48.7199 -48.7198 -48.7198 -48.7197 -48.7197 -48.7197
   -48.7196 -48.7195 -48.7195 -48.7195 -48.7194 -48.7194 -48.7194 -48.7194
    -0.1711  -0.1710   0.6708   0.6709   0.6712   0.6713   1.4237   1.4238
     2.2410   2.2410   2.2415   2.2415   2.3037   2.3038   2.6102   2.6103
     2.6551   2.6552   2.6619   2.6621   2.6730   2.6731   2.6740   2.6742
     2.6872   2.6873   2.7374   2.7375   2.7418   2.7419   2.7433   2.7434
     2.7607   2.7607   2.7607   2.7608   2.7628   2.7630   2.7650   2.7650
     2.8732   2.8733   2.8735   2.8736   2.8968   2.8969   2.9290   2.9292
     3.0199   3.0200   3.2053   3.2055   3.2066   3.2068   3.2336   3.2336
     3.2773   3.2775   3.3630   3.3632   3.3649   3.3651   3.3770   3.3770
     3.3778   3.3778   3.4652   3.4653   3.5245   3.5247   3.5504   3.5506
     3.5660   3.5660   3.5661   3.5661   3.6042   3.6045   3.6310   3.6312
     3.6828   3.6830   3.6866   3.6869   3.6958   3.6958   3.6959   3.6959
     4.0418   4.0419

          k = 0.1730 0.2423 0.2423 ( 45281 PWs)   bands (ev):

   -82.5777 -82.5776 -82.5770 -82.5770 -82.5770 -82.5770 -82.5770 -82.5769
   -82.5769 -82.5769 -82.5767 -82.5767 -82.5767 -82.5767 -82.5767 -82.5766
   -48.7215 -48.7215 -48.7214 -48.7214 -48.7214 -48.7214 -48.7214 -48.7213
   -48.7212 -48.7212 -48.7212 -48.7212 -48.7212 -48.7211 -48.7211 -48.7211
   -48.7210 -48.7209 -48.7209 -48.7208 -48.7208 -48.7208 -48.7204 -48.7202
   -48.7202 -48.7202 -48.7201 -48.7201 -48.7200 -48.7200 -48.7200 -48.7200
   -48.7199 -48.7199 -48.7199 -48.7199 -48.7198 -48.7198 -48.7197 -48.7196
   -48.7196 -48.7196 -48.7195 -48.7195 -48.7195 -48.7195 -48.7194 -48.7194
    -0.2201   0.2111   0.2117   0.6238   0.6282   1.0183   1.0187   1.3911
     2.2620   2.2823   2.2835   2.3569   2.3608   2.4728   2.4731   2.6172
     2.6283   2.6383   2.6393   2.6611   2.6886   2.6928   2.6969   2.6983
     2.7057   2.7063   2.7063   2.7079   2.7189   2.7195   2.7344   2.7379
     2.7477   2.7488   2.7546   2.7553   2.7695   2.7913   2.8168   2.8286
     2.8291   2.8422   2.8429   2.8896   2.8902   2.9006   2.9013   2.9090
     3.0208   3.1077   3.1093   3.2072   3.2084   3.2506   3.2774   3.2944
     3.2962   3.3153   3.3168   3.3228   3.3242   3.3693   3.3693   3.3787
     3.3818   3.4523   3.4529   3.4604   3.4622   3.4687   3.5321   3.5433
     3.5664   3.5825   3.5828   3.5930   3.6009   3.6009   3.6328   3.6440
     3.6651   3.6794   3.6847   3.6888   3.6888   3.6889   3.6890   3.6965
     4.0170   4.2113

          k = 0.1730 0.2423-0.3115 ( 45306 PWs)   bands (ev):

   -82.5777 -82.5776 -82.5770 -82.5770 -82.5770 -82.5770 -82.5770 -82.5770
   -82.5769 -82.5769 -82.5767 -82.5767 -82.5767 -82.5767 -82.5766 -82.5766
   -48.7215 -48.7214 -48.7214 -48.7214 -48.7214 -48.7214 -48.7214 -48.7213
   -48.7213 -48.7213 -48.7212 -48.7212 -48.7211 -48.7211 -48.7211 -48.7211
   -48.7210 -48.7210 -48.7209 -48.7209 -48.7208 -48.7208 -48.7204 -48.7202
   -48.7202 -48.7202 -48.7201 -48.7201 -48.7201 -48.7201 -48.7200 -48.7200
   -48.7200 -48.7199 -48.7199 -48.7198 -48.7198 -48.7198 -48.7197 -48.7197
   -48.7197 -48.7196 -48.7196 -48.7195 -48.7195 -48.7195 -48.7194 -48.7194
    -0.0270  -0.0269   0.3969   0.3970   0.8051   0.8052   1.1885   1.1886
     2.2885   2.2885   2.3328   2.3329   2.4357   2.4357   2.6286   2.6287
     2.6495   2.6496   2.6575   2.6577   2.6638   2.6639   2.6816   2.6818
     2.6996   2.6998   2.7032   2.7033   2.7179   2.7181   2.7403   2.7404
     2.7493   2.7494   2.7500   2.7502   2.7651   2.7651   2.7985   2.7986
     2.8141   2.8142   2.8739   2.8739   2.8975   2.8975   2.9034   2.9035
     3.0638   3.0639   3.1580   3.1581   3.2639   3.2641   3.2687   3.2688
     3.2981   3.2983   3.3392   3.3392   3.3474   3.3474   3.3932   3.3933
     3.4117   3.4118   3.4148   3.4148   3.4911   3.4913   3.5055   3.5057
     3.5862   3.5863   3.5932   3.5932   3.6125   3.6128   3.6237   3.6239
     3.6753   3.6755   3.6837   3.6838   3.6839   3.6841   3.6917   3.6918
     4.1096   4.1096

          k = 0.1730-0.3115-0.3115 ( 45256 PWs)   bands (ev):

   -82.5777 -82.5776 -82.5770 -82.5770 -82.5769 -82.5769 -82.5769 -82.5769
   -82.5769 -82.5769 -82.5767 -82.5767 -82.5767 -82.5767 -82.5766 -82.5766
   -48.7214 -48.7214 -48.7214 -48.7214 -48.7213 -48.7213 -48.7213 -48.7213
   -48.7212 -48.7212 -48.7211 -48.7211 -48.7211 -48.7211 -48.7210 -48.7210
   -48.7210 -48.7210 -48.7209 -48.7209 -48.7209 -48.7209 -48.7205 -48.7202
   -48.7202 -48.7201 -48.7201 -48.7201 -48.7200 -48.7200 -48.7200 -48.7199
   -48.7199 -48.7199 -48.7199 -48.7198 -48.7198 -48.7198 -48.7198 -48.7196
   -48.7196 -48.7196 -48.7196 -48.7195 -48.7195 -48.7194 -48.7194 -48.7194
     0.1628   0.1628   0.1632   0.1634   0.9792   0.9792   0.9795   0.9796
     2.3240   2.3241   2.3253   2.3253   2.5666   2.5666   2.5671   2.5672
     2.6496   2.6498   2.6507   2.6507   2.6710   2.6710   2.6723   2.6726
     2.6965   2.6965   2.6979   2.6982   2.7363   2.7363   2.7374   2.7376
     2.7424   2.7427   2.7437   2.7437   2.7691   2.7691   2.7703   2.7703
     2.8380   2.8381   2.8390   2.8390   2.9019   2.9019   2.9023   2.9024
     3.1093   3.1096   3.1111   3.1111   3.3029   3.3030   3.3051   3.3051
     3.3216   3.3216   3.3227   3.3230   3.3259   3.3261   3.3274   3.3274
     3.4517   3.4517   3.4520   3.4522   3.4598   3.4599   3.4619   3.4619
     3.6071   3.6071   3.6071   3.6073   3.6103   3.6103   3.6104   3.6107
     3.6748   3.6749   3.6749   3.6750   3.6870   3.6871   3.6871   3.6874
     4.2011   4.2012

          k = 0.2423 0.2423 0.2423 ( 45302 PWs)   bands (ev):

   -82.5777 -82.5776 -82.5770 -82.5770 -82.5770 -82.5770 -82.5770 -82.5769
   -82.5769 -82.5769 -82.5767 -82.5767 -82.5767 -82.5767 -82.5767 -82.5767
   -48.7214 -48.7214 -48.7214 -48.7214 -48.7214 -48.7214 -48.7213 -48.7213
   -48.7213 -48.7213 -48.7212 -48.7212 -48.7212 -48.7212 -48.7211 -48.7211
   -48.7211 -48.7209 -48.7209 -48.7209 -48.7209 -48.7209 -48.7205 -48.7202
   -48.7202 -48.7201 -48.7201 -48.7200 -48.7200 -48.7200 -48.7200 -48.7200
   -48.7200 -48.7199 -48.7199 -48.7198 -48.7198 -48.7197 -48.7197 -48.7197
   -48.7197 -48.7196 -48.7196 -48.7196 -48.7195 -48.7195 -48.7195 -48.7194
    -0.0753   0.3512   0.3512   0.3519   0.7591   0.7591   0.7598   1.1492
     2.3903   2.3922   2.3922   2.4041   2.4776   2.4780   2.4780   2.6346
     2.6346   2.6519   2.6519   2.6537   2.6926   2.6947   2.6947   2.6965
     2.6987   2.6987   2.7196   2.7196   2.7216   2.7226   2.7291   2.7291
     2.7336   2.7336   2.7429   2.7433   2.7433   2.8201   2.8208   2.8208
     2.8435   2.8443   2.8443   2.8525   2.8542   2.8542   2.8790   2.8790
     3.0640   3.1569   3.1591   3.1591   3.2654   3.2674   3.2674   3.2872
     3.2872   3.3336   3.3336   3.3361   3.3487   3.3507   3.3507   3.3970
     3.4154   3.4165   3.4165   3.4233   3.4233   3.4260   3.5004   3.5004
     3.5984   3.5987   3.5987   3.6132   3.6132   3.6133   3.6482   3.6482
     3.6581   3.6581   3.6783   3.6783   3.6783   3.6819   3.6819   3.6819
     4.2978   4.2978

          k = 0.2423 0.2423-0.3115 ( 45282 PWs)   bands (ev):

   -82.5777 -82.5776 -82.5770 -82.5770 -82.5770 -82.5770 -82.5769 -82.5769
   -82.5769 -82.5769 -82.5767 -82.5767 -82.5767 -82.5767 -82.5767 -82.5767
   -48.7214 -48.7214 -48.7214 -48.7214 -48.7214 -48.7214 -48.7213 -48.7213
   -48.7213 -48.7212 -48.7212 -48.7212 -48.7212 -48.7212 -48.7211 -48.7211
   -48.7211 -48.7210 -48.7209 -48.7209 -48.7209 -48.7208 -48.7205 -48.7202
   -48.7201 -48.7201 -48.7201 -48.7201 -48.7200 -48.7200 -48.7199 -48.7199
   -48.7199 -48.7199 -48.7199 -48.7198 -48.7198 -48.7198 -48.7197 -48.7196
   -48.7196 -48.7196 -48.7195 -48.7195 -48.7195 -48.7195 -48.7194 -48.7194
     0.1158   0.1159   0.5349   0.5350   0.5354   0.5354   0.9360   0.9361
     2.4117   2.4118   2.4532   2.4533   2.4542   2.4542   2.6252   2.6253
     2.6430   2.6431   2.6622   2.6623   2.6724   2.6725   2.6737   2.6738
     2.7040   2.7041   2.7054   2.7055   2.7081   2.7083   2.7240   2.7241
     2.7372   2.7373   2.7836   2.7837   2.7845   2.7846   2.7851   2.7852
     2.8440   2.8441   2.8442   2.8443   2.8509   2.8510   2.8727   2.8729
     3.1102   3.1104   3.2109   3.2111   3.2123   3.2124   3.3064   3.3065
     3.3207   3.3209   3.3298   3.3299   3.3754   3.3755   3.3768   3.3769
     3.3852   3.3853   3.3866   3.3867   3.4566   3.4568   3.4647   3.4649
     3.6116   3.6116   3.6117   3.6117   3.6259   3.6262   3.6357   3.6359
     3.6653   3.6655   3.6692   3.6695   3.6764   3.6764   3.6765   3.6765
     4.4039   4.4041

          k = 0.2423-0.3115-0.3115 ( 45256 PWs)   bands (ev):

   -82.5777 -82.5776 -82.5770 -82.5770 -82.5770 -82.5770 -82.5769 -82.5769
   -82.5769 -82.5769 -82.5767 -82.5767 -82.5767 -82.5767 -82.5767 -82.5767
   -48.7214 -48.7213 -48.7213 -48.7213 -48.7213 -48.7213 -48.7213 -48.7213
   -48.7213 -48.7213 -48.7212 -48.7212 -48.7212 -48.7212 -48.7212 -48.7212
   -48.7209 -48.7209 -48.7209 -48.7209 -48.7208 -48.7208 -48.7204 -48.7202
   -48.7201 -48.7201 -48.7201 -48.7200 -48.7200 -48.7200 -48.7200 -48.7199
   -48.7199 -48.7199 -48.7199 -48.7198 -48.7198 -48.7198 -48.7197 -48.7196
   -48.7196 -48.7196 -48.7196 -48.7195 -48.7195 -48.7195 -48.7195 -48.7194
     0.3038   0.3038   0.3042   0.3044   0.7159   0.7159   0.7163   0.7164
     2.4486   2.4487   2.4501   2.4501   2.5611   2.5613   2.5616   2.5616
     2.6609   2.6611   2.6620   2.6620   2.6749   2.6749   2.6763   2.6766
     2.6893   2.6893   2.6907   2.6910   2.7100   2.7102   2.7112   2.7112
     2.7715   2.7715   2.7724   2.7726   2.7993   2.7993   2.8006   2.8006
     2.8214   2.8214   2.8214   2.8215   2.8576   2.8576   2.8582   2.8584
     3.1593   3.1596   3.1610   3.1610   3.2686   3.2689   3.2701   3.2701
     3.3412   3.3413   3.3433   3.3433   3.3508   3.3508   3.3516   3.3518
     3.4169   3.4169   3.4173   3.4175   3.4234   3.4235   3.4255   3.4255
     3.6284   3.6284   3.6284   3.6287   3.6297   3.6298   3.6298   3.6299
     3.6636   3.6637   3.6637   3.6638   3.6684   3.6685   3.6685   3.6688
     4.4788   4.4788

          k =-0.3115-0.3115-0.3115 ( 45104 PWs)   bands (ev):

   -82.5776 -82.5776 -82.5769 -82.5769 -82.5769 -82.5769 -82.5769 -82.5769
   -82.5769 -82.5769 -82.5766 -82.5766 -82.5766 -82.5766 -82.5766 -82.5766
   -48.7213 -48.7213 -48.7213 -48.7213 -48.7213 -48.7213 -48.7213 -48.7213
   -48.7213 -48.7213 -48.7213 -48.7212 -48.7212 -48.7212 -48.7212 -48.7212
   -48.7207 -48.7207 -48.7207 -48.7207 -48.7207 -48.7207 -48.7203 -48.7201
   -48.7201 -48.7201 -48.7200 -48.7199 -48.7199 -48.7199 -48.7197 -48.7197
   -48.7197 -48.7197 -48.7197 -48.7195 -48.7195 -48.7195 -48.7195 -48.7195
   -48.7195 -48.7194 -48.7193 -48.7193 -48.7193 -48.7193 -48.7193 -48.7193
     0.4891   0.4891   0.4891   0.4892   0.4892   0.4892   0.4900   0.4903
     2.5226   2.5229   2.5251   2.5251   2.5251   2.5252   2.5252   2.5252
     2.6810   2.6810   2.6810   2.6811   2.6811   2.6811   2.6827   2.6827
     2.6831   2.6831   2.6837   2.6837   2.6837   2.6839   2.6839   2.6839
     2.8125   2.8125   2.8125   2.8127   2.8127   2.8127   2.8128   2.8128
     2.8128   2.8128   2.8128   2.8128   2.8145   2.8145   2.8146   2.8146
     3.2116   3.2120   3.2145   3.2145   3.2145   3.2147   3.2147   3.2147
     3.3821   3.3821   3.3821   3.3822   3.3822   3.3823   3.3823   3.3824
     3.3824   3.3824   3.3849   3.3849   3.3849   3.3852   3.3852   3.3852
     3.6485   3.6485   3.6485   3.6486   3.6486   3.6486   3.6488   3.6488
     3.6490   3.6490   3.6490   3.6490   3.6490   3.6491   3.6491   3.6491
     4.6270   4.6271

     the Fermi energy is     2.9320 ev

!    total energy              =   -5264.06172808 Ry

     total all-electron energy =    -40724.806257 Ry
     estimated scf accuracy    <       0.00000010 Ry
     smearing contrib. (-TS)   =      -0.19875289 Ry
     internal energy E=F+TS    =   -5263.86297519 Ry

     The total energy is F=E-TS. E is the sum of the following terms:
     one-electron contribution =   -3407.22969256 Ry
     hartree contribution      =    1716.32363536 Ry
     xc contribution           =    -440.16301313 Ry
     ewald contribution        =   -1808.52166608 Ry
     one-center paw contrib.   =   -1324.27223877 Ry

     total magnetization       =    51.90 Bohr mag/cell
     absolute magnetization    =    55.33 Bohr mag/cell

     convergence has been achieved in  36 iterations

     negative rho (up, down):  0.000E+00 4.269E-03

     Forces acting on atoms (cartesian axes, Ry/au):

     atom    1 type  1   force =     0.00000000    0.00000000    0.00000000
     atom    2 type  2   force =     0.00000964    0.00000964    0.00000964
     atom    3 type  1   force =     0.00000000    0.00000000    0.00000000
     atom    4 type  2   force =     0.00000964    0.00000964   -0.00000964
     atom    5 type  1   force =     0.00000000    0.00000000    0.00000000
     atom    6 type  2   force =     0.00000964   -0.00000964    0.00000964
     atom    7 type  1   force =     0.00000000    0.00000000    0.00000000
     atom    8 type  2   force =     0.00000964   -0.00000964   -0.00000964
     atom    9 type  1   force =     0.00000000    0.00000000    0.00000000
     atom   10 type  2   force =    -0.00000964    0.00000964    0.00000964
     atom   11 type  1   force =     0.00000000    0.00000000    0.00000000
     atom   12 type  2   force =    -0.00000964    0.00000964   -0.00000964
     atom   13 type  1   force =     0.00000000    0.00000000    0.00000000
     atom   14 type  2   force =    -0.00000964   -0.00000964    0.00000964
     atom   15 type  1   force =     0.00000000    0.00000000    0.00000000
     atom   16 type  2   force =    -0.00000964   -0.00000964   -0.00000964

     Total force =     0.000047     Total SCF correction =     0.001366
     SCF correction compared to forces is large: reduce conv_thr to get better values


     Computing stress (Cartesian axis) and pressure


     negative rho (up, down):  0.000E+00 4.269E-03
          total   stress  (Ry/bohr**3)                   (kbar)     P=     -113.75
  -0.00077324   0.00000000   0.00000000         -113.75        0.00        0.00
   0.00000000  -0.00077324   0.00000000            0.00     -113.75        0.00
   0.00000000   0.00000000  -0.00077324            0.00        0.00     -113.75


     Writing output data file /scratch/gpKVJxzyOxxXhiiQ.save/
 
     init_run     :     10.49s CPU     10.97s WALL (       1 calls)
     electrons    :   1121.38s CPU   1137.30s WALL (       1 calls)
     forces       :      3.54s CPU      3.61s WALL (       1 calls)
     stress       :     19.15s CPU     19.34s WALL (       1 calls)

     Called by init_run:
     wfcinit      :      9.57s CPU      9.86s WALL (       1 calls)
     potinit      :      0.21s CPU      0.26s WALL (       1 calls)
     hinit0       :      0.13s CPU      0.20s WALL (       1 calls)

     Called by electrons:
     c_bands      :    966.37s CPU    977.25s WALL (      36 calls)
     sum_band     :    144.86s CPU    148.35s WALL (      36 calls)
     v_of_rho     :      1.80s CPU      1.95s WALL (      37 calls)
     newd         :      2.46s CPU      3.30s WALL (      37 calls)
     PAW_pot      :      4.26s CPU      4.75s WALL (      37 calls)
     mix_rho      :      1.53s CPU      1.61s WALL (      36 calls)

     Called by c_bands:
     init_us_2    :      7.42s CPU      7.59s WALL (    5250 calls)
     cegterg      :    938.92s CPU    948.87s WALL (    2520 calls)

     Called by *egterg:
     cdiaghg      :    108.00s CPU    108.60s WALL (   12039 calls)
     h_psi        :    577.79s CPU    585.42s WALL (   12109 calls)
     s_psi        :     30.73s CPU     30.98s WALL (   12109 calls)
     g_psi        :      1.54s CPU      1.57s WALL (    9519 calls)

     Called by h_psi:
     h_psi:calbec :     52.70s CPU     53.15s WALL (   12109 calls)
     vloc_psi     :    488.63s CPU    495.42s WALL (   12109 calls)
     add_vuspsi   :     32.81s CPU     33.19s WALL (   12109 calls)

     General routines
     calbec       :     77.82s CPU     78.46s WALL (   14979 calls)
     fft          :      1.53s CPU      1.56s WALL (     963 calls)
     ffts         :      0.76s CPU      0.79s WALL (    1221 calls)
     fftw         :    574.82s CPU    582.87s WALL ( 2201820 calls)
     interpolate  :      0.15s CPU      0.15s WALL (      74 calls)
 
     Parallel routines
     fft_scatt_xy :     54.81s CPU     55.58s WALL ( 2204004 calls)
     fft_scatt_yz :    412.49s CPU    418.38s WALL ( 2204004 calls)
 
     PWSCF        :  19m26.18s CPU  19m45.57s WALL

 
   This run was terminated on:  17: 3:22  19Mar2022            

=------------------------------------------------------------------------------=
   JOB DONE.
=------------------------------------------------------------------------------=
