
     Program PWSCF v.6.7MaX starts on 20Mar2022 at 12:40:51 

     This program is part of the open-source Quantum ESPRESSO suite
     for quantum simulation of materials; please cite
         "P. Giannozzi et al., J. Phys.:Condens. Matter 21 395502 (2009);
         "P. Giannozzi et al., J. Phys.:Condens. Matter 29 465901 (2017);
          URL http://www.quantum-espresso.org", 
     in publications or presentations arising from this work. More details at
     http://www.quantum-espresso.org/quote

     Parallel version (MPI & OpenMP), running on      72 processor cores
     Number of MPI processes:                72
     Threads/MPI process:                     1

     MPI processes distributed on     1 nodes
     R & G space division:  proc/nbgrp/npool/nimage =      72
     Reading input from bcc_17.in
Warning: card &CELL ignored
Warning: card CELL_DYNAMICS = 'BFGS', ignored
Warning: card CELL_FACTOR = 2.0, ignored
Warning: card PRESS = 0.0, ignored
Warning: card / ignored

     Current dimensions of program PWSCF are:
     Max number of different atomic species (ntypx) = 10
     Max number of k-points (npk) =  40000
     Max angular momentum in pseudopotentials (lmaxx) =  3
     file Fe.pbe-spn-kjpaw_psl.1.0.0.UPF: wavefunction(s)  3P 3D renormalized
     file Fe.pbe-spn-kjpaw_psl.1.0.0.UPF: wavefunction(s)  3P 3D renormalized

     Subspace diagonalization in iterative solution of the eigenvalue problem:
     one sub-group per band group will be used
     ELPA distributed-memory algorithm (size of sub-group:  8*  8 procs)

     Found symmetry operation: I + (  0.0000  0.0000 -0.5000)
     This is a supercell, fractional translations are disabled
     Message from routine setup:
     using ibrav=0 with symmetry is DISCOURAGED, use correct ibrav instead
 
     Parallelization info
     --------------------
     sticks:   dense  smooth     PW     G-vecs:    dense   smooth      PW
     Min         163     107     28                13265     7116     984
     Max         164     109     29                13269     7120     991
     Sum       11737    7753   2077               955259   512451   71111
 


     bravais-lattice index     =            0
     lattice parameter (alat)  =      10.2690  a.u.
     unit-cell volume          =    6343.2326 (a.u.)^3
     number of atoms/cell      =           16
     number of atomic types    =            2
     number of electrons       =       256.00
     number of Kohn-Sham states=          154
     kinetic-energy cutoff     =      71.0000  Ry
     charge density cutoff     =     430.0000  Ry
     scf convergence threshold =      1.0E-07
     mixing beta               =       0.3000
     number of iterations used =           10  plain     mixing
     Exchange-correlation= SLA  PW   PBX  PBC
                           (   1   4   3   4   0   0   0)

     celldm(1)=  10.269041  celldm(2)=   0.000000  celldm(3)=   0.000000
     celldm(4)=   0.000000  celldm(5)=   0.000000  celldm(6)=   0.000000

     crystal axes: (cart. coord. in units of alat)
               a(1) = (   1.802632   0.000000   0.000000 )  
               a(2) = (   0.000000   1.802632   0.000000 )  
               a(3) = (   0.000000   0.000000   1.802632 )  

     reciprocal axes: (cart. coord. in units 2 pi/alat)
               b(1) = (  0.554745  0.000000  0.000000 )  
               b(2) = (  0.000000  0.554745  0.000000 )  
               b(3) = (  0.000000  0.000000  0.554745 )  


     PseudoPot. # 1 for Fe read from file:
     /rds/homes/b/bxp912/pp/Fe.pbe-spn-kjpaw_psl.1.0.0.UPF
     MD5 check sum: 42f43b795421b414b0dc916aa790dbcb
     Pseudo is Projector augmented-wave + core cor, Zval = 16.0
     Generated using &quot;atomic&quot; code by A. Dal Corso  v.6.3
     Shape of augmentation charge: PSQ
     Using radial grid of 1191 points,  6 beta functions with: 
                l(1) =   0
                l(2) =   0
                l(3) =   1
                l(4) =   1
                l(5) =   2
                l(6) =   2
     Q(r) pseudized with 0 coefficients 


     PseudoPot. # 2 for Fe read from file:
     /rds/homes/b/bxp912/pp/Fe.pbe-spn-kjpaw_psl.1.0.0.UPF
     MD5 check sum: 42f43b795421b414b0dc916aa790dbcb
     Pseudo is Projector augmented-wave + core cor, Zval = 16.0
     Generated using &quot;atomic&quot; code by A. Dal Corso  v.6.3
     Shape of augmentation charge: PSQ
     Using radial grid of 1191 points,  6 beta functions with: 
                l(1) =   0
                l(2) =   0
                l(3) =   1
                l(4) =   1
                l(5) =   2
                l(6) =   2
     Q(r) pseudized with 0 coefficients 


     atomic species   valence    mass     pseudopotential
        Fe1           16.00    55.84500     Fe( 1.00)
        Fe2           16.00    55.84500     Fe( 1.00)

     Starting magnetic structure 
     atomic species   magnetization
        Fe1          0.100
        Fe2          0.100

     48 Sym. Ops., with inversion, found



   Cartesian axes

     site n.     atom                  positions (alat units)
         1           Fe1 tau(   1) = (   0.0000000   0.0000000   0.0000000  )
         2           Fe2 tau(   2) = (   0.4506579   0.4506579   0.4506579  )
         3           Fe1 tau(   3) = (   0.0000000   0.0000000   0.9013158  )
         4           Fe2 tau(   4) = (   0.4506579   0.4506579   1.3519737  )
         5           Fe1 tau(   5) = (   0.0000000   0.9013158   0.0000000  )
         6           Fe2 tau(   6) = (   0.4506579   1.3519737   0.4506579  )
         7           Fe1 tau(   7) = (   0.0000000   0.9013158   0.9013158  )
         8           Fe2 tau(   8) = (   0.4506579   1.3519737   1.3519737  )
         9           Fe1 tau(   9) = (   0.9013158   0.0000000   0.0000000  )
        10           Fe2 tau(  10) = (   1.3519737   0.4506579   0.4506579  )
        11           Fe1 tau(  11) = (   0.9013158   0.0000000   0.9013158  )
        12           Fe2 tau(  12) = (   1.3519737   0.4506579   1.3519737  )
        13           Fe1 tau(  13) = (   0.9013158   0.9013158   0.0000000  )
        14           Fe2 tau(  14) = (   1.3519737   1.3519737   0.4506579  )
        15           Fe1 tau(  15) = (   0.9013158   0.9013158   0.9013158  )
        16           Fe2 tau(  16) = (   1.3519737   1.3519737   1.3519737  )

     number of k points=    35  Marzari-Vanderbilt smearing, width (Ry)=  0.0400
                       cart. coord. in units 2pi/alat
        k(    1) = (   0.0308191   0.0308191   0.0308191), wk =   0.0109739
        k(    2) = (   0.0308191   0.0308191   0.0924574), wk =   0.0329218
        k(    3) = (   0.0308191   0.0308191   0.1540957), wk =   0.0329218
        k(    4) = (   0.0308191   0.0308191   0.2157340), wk =   0.0329218
        k(    5) = (   0.0308191   0.0308191  -0.2773723), wk =   0.0164609
        k(    6) = (   0.0308191   0.0924574   0.0924574), wk =   0.0329218
        k(    7) = (   0.0308191   0.0924574   0.1540957), wk =   0.0658436
        k(    8) = (   0.0308191   0.0924574   0.2157340), wk =   0.0658436
        k(    9) = (   0.0308191   0.0924574  -0.2773723), wk =   0.0329218
        k(   10) = (   0.0308191   0.1540957   0.1540957), wk =   0.0329218
        k(   11) = (   0.0308191   0.1540957   0.2157340), wk =   0.0658436
        k(   12) = (   0.0308191   0.1540957  -0.2773723), wk =   0.0329218
        k(   13) = (   0.0308191   0.2157340   0.2157340), wk =   0.0329218
        k(   14) = (   0.0308191   0.2157340  -0.2773723), wk =   0.0329218
        k(   15) = (   0.0308191  -0.2773723  -0.2773723), wk =   0.0082305
        k(   16) = (   0.0924574   0.0924574   0.0924574), wk =   0.0109739
        k(   17) = (   0.0924574   0.0924574   0.1540957), wk =   0.0329218
        k(   18) = (   0.0924574   0.0924574   0.2157340), wk =   0.0329218
        k(   19) = (   0.0924574   0.0924574  -0.2773723), wk =   0.0164609
        k(   20) = (   0.0924574   0.1540957   0.1540957), wk =   0.0329218
        k(   21) = (   0.0924574   0.1540957   0.2157340), wk =   0.0658436
        k(   22) = (   0.0924574   0.1540957  -0.2773723), wk =   0.0329218
        k(   23) = (   0.0924574   0.2157340   0.2157340), wk =   0.0329218
        k(   24) = (   0.0924574   0.2157340  -0.2773723), wk =   0.0329218
        k(   25) = (   0.0924574  -0.2773723  -0.2773723), wk =   0.0082305
        k(   26) = (   0.1540957   0.1540957   0.1540957), wk =   0.0109739
        k(   27) = (   0.1540957   0.1540957   0.2157340), wk =   0.0329218
        k(   28) = (   0.1540957   0.1540957  -0.2773723), wk =   0.0164609
        k(   29) = (   0.1540957   0.2157340   0.2157340), wk =   0.0329218
        k(   30) = (   0.1540957   0.2157340  -0.2773723), wk =   0.0329218
        k(   31) = (   0.1540957  -0.2773723  -0.2773723), wk =   0.0082305
        k(   32) = (   0.2157340   0.2157340   0.2157340), wk =   0.0109739
        k(   33) = (   0.2157340   0.2157340  -0.2773723), wk =   0.0164609
        k(   34) = (   0.2157340  -0.2773723  -0.2773723), wk =   0.0082305
        k(   35) = (  -0.2773723  -0.2773723  -0.2773723), wk =   0.0013717

     Dense  grid:   955259 G-vectors     FFT dimensions: ( 125, 125, 125)

     Smooth grid:   512451 G-vectors     FFT dimensions: ( 100, 100, 100)

     Estimated max dynamical RAM per process >     212.98 MB

     Estimated total dynamical RAM >      14.98 GB

     Check: negative core charge=   -0.000002
     Generating pointlists ...
     new r_m :   0.3220 (alat units)  3.3064 (a.u.) for type    1
     new r_m :   0.3220 (alat units)  3.3064 (a.u.) for type    2

     Initial potential from superposition of free atoms

     starting charge  255.99300, renormalised to  256.00000
     Starting wfcs are  160 randomized atomic wfcs
     Checking if some PAW data can be deallocated... 

     total cpu time spent up to now is       16.9 secs

     Self-consistent Calculation

     iteration #  1     ecut=    71.00 Ry     beta= 0.30
     Davidson diagonalization with overlap
     ethr =  1.00E-02,  avg # of iterations =  2.0

     total cpu time spent up to now is       53.3 secs

     total energy              =   -5256.42070491 Ry
     estimated scf accuracy    <      16.80410565 Ry

     total magnetization       =    37.61 Bohr mag/cell
     absolute magnetization    =    37.61 Bohr mag/cell

     iteration #  2     ecut=    71.00 Ry     beta= 0.30
     Davidson diagonalization with overlap
     ethr =  6.56E-03,  avg # of iterations =  7.5

     total cpu time spent up to now is      107.2 secs

     total energy              =   -5261.60852440 Ry
     estimated scf accuracy    <      17.02891628 Ry

     total magnetization       =    59.88 Bohr mag/cell
     absolute magnetization    =    61.90 Bohr mag/cell

     iteration #  3     ecut=    71.00 Ry     beta= 0.30
     Davidson diagonalization with overlap
     ethr =  6.56E-03,  avg # of iterations =  2.0

     total cpu time spent up to now is      141.6 secs

     total energy              =   -5261.71880119 Ry
     estimated scf accuracy    <      16.45025059 Ry

     total magnetization       =    49.25 Bohr mag/cell
     absolute magnetization    =    49.80 Bohr mag/cell

     iteration #  4     ecut=    71.00 Ry     beta= 0.30
     Davidson diagonalization with overlap
     ethr =  6.43E-03,  avg # of iterations =  1.0

     total cpu time spent up to now is      172.6 secs

     total energy              =   -5261.73475178 Ry
     estimated scf accuracy    <       7.66130130 Ry

     total magnetization       =    52.65 Bohr mag/cell
     absolute magnetization    =    53.08 Bohr mag/cell

     iteration #  5     ecut=    71.00 Ry     beta= 0.30
     Davidson diagonalization with overlap
     ethr =  2.99E-03,  avg # of iterations =  4.5

     total cpu time spent up to now is      211.8 secs

     total energy              =   -5262.26404882 Ry
     estimated scf accuracy    <      13.92229975 Ry

     total magnetization       =    50.90 Bohr mag/cell
     absolute magnetization    =    51.04 Bohr mag/cell

     iteration #  6     ecut=    71.00 Ry     beta= 0.30
     Davidson diagonalization with overlap
     ethr =  2.99E-03,  avg # of iterations =  5.6

     negative rho (up, down):  0.000E+00 1.888E-05

     total cpu time spent up to now is      256.9 secs

     total energy              =   -5263.75136526 Ry
     estimated scf accuracy    <      16.46714592 Ry

     total magnetization       =    43.63 Bohr mag/cell
     absolute magnetization    =    43.63 Bohr mag/cell

     iteration #  7     ecut=    71.00 Ry     beta= 0.30
     Davidson diagonalization with overlap
     ethr =  2.99E-03,  avg # of iterations =  1.2

     negative rho (up, down):  0.000E+00 1.644E-04

     total cpu time spent up to now is      288.5 secs

     total energy              =   -5263.53664354 Ry
     estimated scf accuracy    <      17.29472916 Ry

     total magnetization       =    43.46 Bohr mag/cell
     absolute magnetization    =    43.47 Bohr mag/cell

     iteration #  8     ecut=    71.00 Ry     beta= 0.30
     Davidson diagonalization with overlap
     ethr =  2.99E-03,  avg # of iterations =  1.1

     negative rho (up, down):  0.000E+00 2.206E-04

     total cpu time spent up to now is      320.3 secs

     total energy              =   -5263.46443119 Ry
     estimated scf accuracy    <      11.58394772 Ry

     total magnetization       =    46.87 Bohr mag/cell
     absolute magnetization    =    46.88 Bohr mag/cell

     iteration #  9     ecut=    71.00 Ry     beta= 0.30
     Davidson diagonalization with overlap
     ethr =  2.99E-03,  avg # of iterations =  1.2

     negative rho (up, down):  0.000E+00 7.299E-04

     total cpu time spent up to now is      351.5 secs

     total energy              =   -5263.17378599 Ry
     estimated scf accuracy    <       6.93721944 Ry

     total magnetization       =    48.16 Bohr mag/cell
     absolute magnetization    =    48.17 Bohr mag/cell

     iteration # 10     ecut=    71.00 Ry     beta= 0.30
     Davidson diagonalization with overlap
     ethr =  2.71E-03,  avg # of iterations =  1.0

     negative rho (up, down):  0.000E+00 2.120E-03

     total cpu time spent up to now is      382.3 secs

     total energy              =   -5263.20709755 Ry
     estimated scf accuracy    <       2.45256224 Ry

     total magnetization       =    51.43 Bohr mag/cell
     absolute magnetization    =    51.75 Bohr mag/cell

     iteration # 11     ecut=    71.00 Ry     beta= 0.30
     Davidson diagonalization with overlap
     ethr =  9.58E-04,  avg # of iterations =  1.2

     negative rho (up, down):  0.000E+00 1.503E-03

     total cpu time spent up to now is      413.9 secs

     total energy              =   -5263.04853800 Ry
     estimated scf accuracy    <       7.42320821 Ry

     total magnetization       =    52.06 Bohr mag/cell
     absolute magnetization    =    52.76 Bohr mag/cell

     iteration # 12     ecut=    71.00 Ry     beta= 0.30
     Davidson diagonalization with overlap
     ethr =  9.58E-04,  avg # of iterations =  1.2

     negative rho (up, down):  0.000E+00 1.489E-03

     total cpu time spent up to now is      444.9 secs

     total energy              =   -5263.07802756 Ry
     estimated scf accuracy    <       0.73488487 Ry

     total magnetization       =    52.29 Bohr mag/cell
     absolute magnetization    =    53.55 Bohr mag/cell

     iteration # 13     ecut=    71.00 Ry     beta= 0.30
     Davidson diagonalization with overlap
     ethr =  2.87E-04,  avg # of iterations =  3.6

     negative rho (up, down):  0.000E+00 1.345E-03

     total cpu time spent up to now is      481.6 secs

     total energy              =   -5263.10584999 Ry
     estimated scf accuracy    <       0.18507208 Ry

     total magnetization       =    52.34 Bohr mag/cell
     absolute magnetization    =    54.63 Bohr mag/cell

     iteration # 14     ecut=    71.00 Ry     beta= 0.30
     Davidson diagonalization with overlap
     c_bands:  5 eigenvalues not converged
     c_bands:  1 eigenvalues not converged
     c_bands:  4 eigenvalues not converged
     c_bands:  4 eigenvalues not converged
     c_bands:  1 eigenvalues not converged
     c_bands:  1 eigenvalues not converged
     c_bands:  3 eigenvalues not converged
     ethr =  7.23E-05,  avg # of iterations =  8.6

     negative rho (up, down):  0.000E+00 1.406E-03

     total cpu time spent up to now is      534.9 secs

     total energy              =   -5263.14126008 Ry
     estimated scf accuracy    <       0.89647726 Ry

     total magnetization       =    52.32 Bohr mag/cell
     absolute magnetization    =    55.52 Bohr mag/cell

     iteration # 15     ecut=    71.00 Ry     beta= 0.30
     Davidson diagonalization with overlap
     ethr =  7.23E-05,  avg # of iterations =  1.2

     negative rho (up, down):  0.000E+00 1.491E-03

     total cpu time spent up to now is      566.0 secs

     total energy              =   -5263.13280342 Ry
     estimated scf accuracy    <       0.55879059 Ry

     total magnetization       =    52.31 Bohr mag/cell
     absolute magnetization    =    55.61 Bohr mag/cell

     iteration # 16     ecut=    71.00 Ry     beta= 0.30
     Davidson diagonalization with overlap
     ethr =  7.23E-05,  avg # of iterations =  1.4

     negative rho (up, down):  0.000E+00 1.592E-03

     total cpu time spent up to now is      597.7 secs

     total energy              =   -5263.14510375 Ry
     estimated scf accuracy    <       0.02394979 Ry

     total magnetization       =    52.32 Bohr mag/cell
     absolute magnetization    =    55.68 Bohr mag/cell

     iteration # 17     ecut=    71.00 Ry     beta= 0.30
     Davidson diagonalization with overlap
     c_bands:  3 eigenvalues not converged
     c_bands:  5 eigenvalues not converged
     c_bands:  2 eigenvalues not converged
     c_bands:  2 eigenvalues not converged
     c_bands:  3 eigenvalues not converged
     c_bands:  5 eigenvalues not converged
     c_bands:  1 eigenvalues not converged
     ethr =  9.36E-06,  avg # of iterations = 10.6

     negative rho (up, down):  0.000E+00 1.381E-03

     total cpu time spent up to now is      656.9 secs

     total energy              =   -5263.15315680 Ry
     estimated scf accuracy    <       0.00465754 Ry

     total magnetization       =    52.33 Bohr mag/cell
     absolute magnetization    =    55.81 Bohr mag/cell

     iteration # 18     ecut=    71.00 Ry     beta= 0.30
     Davidson diagonalization with overlap
     c_bands:  1 eigenvalues not converged
     c_bands:  1 eigenvalues not converged
     c_bands:  2 eigenvalues not converged
     c_bands:  2 eigenvalues not converged
     ethr =  1.82E-06,  avg # of iterations = 10.6

     negative rho (up, down):  0.000E+00 1.537E-03

     total cpu time spent up to now is      706.2 secs

     total energy              =   -5263.15555533 Ry
     estimated scf accuracy    <       0.03955825 Ry

     total magnetization       =    52.34 Bohr mag/cell
     absolute magnetization    =    55.76 Bohr mag/cell

     iteration # 19     ecut=    71.00 Ry     beta= 0.30
     Davidson diagonalization with overlap
     c_bands:  4 eigenvalues not converged
     c_bands:  1 eigenvalues not converged
     c_bands:  2 eigenvalues not converged
     ethr =  1.82E-06,  avg # of iterations =  8.7

     negative rho (up, down):  0.000E+00 1.714E-03

     total cpu time spent up to now is      762.1 secs

     total energy              =   -5263.15506841 Ry
     estimated scf accuracy    <       0.03538246 Ry

     total magnetization       =    52.35 Bohr mag/cell
     absolute magnetization    =    55.69 Bohr mag/cell

     iteration # 20     ecut=    71.00 Ry     beta= 0.30
     Davidson diagonalization with overlap
     ethr =  1.82E-06,  avg # of iterations =  6.5

     negative rho (up, down):  0.000E+00 1.687E-03

     total cpu time spent up to now is      805.8 secs

     total energy              =   -5263.15763590 Ry
     estimated scf accuracy    <       0.06287708 Ry

     total magnetization       =    52.33 Bohr mag/cell
     absolute magnetization    =    55.76 Bohr mag/cell

     iteration # 21     ecut=    71.00 Ry     beta= 0.30
     Davidson diagonalization with overlap
     c_bands:  1 eigenvalues not converged
     c_bands:  2 eigenvalues not converged
     ethr =  1.82E-06,  avg # of iterations =  6.3

     negative rho (up, down):  0.000E+00 1.697E-03

     total cpu time spent up to now is      848.3 secs

     total energy              =   -5263.16007478 Ry
     estimated scf accuracy    <       0.02659425 Ry

     total magnetization       =    52.34 Bohr mag/cell
     absolute magnetization    =    55.68 Bohr mag/cell

     iteration # 22     ecut=    71.00 Ry     beta= 0.30
     Davidson diagonalization with overlap
     ethr =  1.82E-06,  avg # of iterations =  1.0

     negative rho (up, down):  0.000E+00 1.747E-03

     total cpu time spent up to now is      879.3 secs

     total energy              =   -5263.15952675 Ry
     estimated scf accuracy    <       0.01749737 Ry

     total magnetization       =    52.34 Bohr mag/cell
     absolute magnetization    =    55.68 Bohr mag/cell

     iteration # 23     ecut=    71.00 Ry     beta= 0.30
     Davidson diagonalization with overlap
     c_bands:  3 eigenvalues not converged
     c_bands:  1 eigenvalues not converged
     ethr =  1.82E-06,  avg # of iterations =  6.8

     negative rho (up, down):  0.000E+00 1.654E-03

     total cpu time spent up to now is      925.8 secs

     total energy              =   -5263.16157140 Ry
     estimated scf accuracy    <       0.01139432 Ry

     total magnetization       =    52.34 Bohr mag/cell
     absolute magnetization    =    55.59 Bohr mag/cell

     iteration # 24     ecut=    71.00 Ry     beta= 0.30
     Davidson diagonalization with overlap
     ethr =  1.82E-06,  avg # of iterations =  1.5

     negative rho (up, down):  0.000E+00 1.677E-03

     total cpu time spent up to now is      958.4 secs

     total energy              =   -5263.16185286 Ry
     estimated scf accuracy    <       0.00071961 Ry

     total magnetization       =    52.34 Bohr mag/cell
     absolute magnetization    =    55.59 Bohr mag/cell

     iteration # 25     ecut=    71.00 Ry     beta= 0.30
     Davidson diagonalization with overlap
     c_bands:  1 eigenvalues not converged
     c_bands:  1 eigenvalues not converged
     c_bands:  2 eigenvalues not converged
     c_bands:  5 eigenvalues not converged
     c_bands:  3 eigenvalues not converged
     ethr =  2.81E-07,  avg # of iterations = 12.1

     negative rho (up, down):  0.000E+00 1.675E-03

     total cpu time spent up to now is     1011.4 secs

     total energy              =   -5263.16197300 Ry
     estimated scf accuracy    <       0.00026010 Ry

     total magnetization       =    52.34 Bohr mag/cell
     absolute magnetization    =    55.58 Bohr mag/cell

     iteration # 26     ecut=    71.00 Ry     beta= 0.30
     Davidson diagonalization with overlap
     c_bands:  2 eigenvalues not converged
     c_bands:  1 eigenvalues not converged
     c_bands:  3 eigenvalues not converged
     ethr =  1.02E-07,  avg # of iterations =  8.7

     negative rho (up, down):  0.000E+00 1.677E-03

     total cpu time spent up to now is     1061.5 secs

     total energy              =   -5263.16214285 Ry
     estimated scf accuracy    <       0.00046330 Ry

     total magnetization       =    52.33 Bohr mag/cell
     absolute magnetization    =    55.59 Bohr mag/cell

     iteration # 27     ecut=    71.00 Ry     beta= 0.30
     Davidson diagonalization with overlap
     c_bands:  2 eigenvalues not converged
     ethr =  1.02E-07,  avg # of iterations =  2.7

     negative rho (up, down):  0.000E+00 1.676E-03

     total cpu time spent up to now is     1096.6 secs

     total energy              =   -5263.16215638 Ry
     estimated scf accuracy    <       0.00021463 Ry

     total magnetization       =    52.34 Bohr mag/cell
     absolute magnetization    =    55.58 Bohr mag/cell

     iteration # 28     ecut=    71.00 Ry     beta= 0.30
     Davidson diagonalization with overlap
     c_bands:  1 eigenvalues not converged
     c_bands:  3 eigenvalues not converged
     c_bands:  5 eigenvalues not converged
     c_bands:  3 eigenvalues not converged
     c_bands:  2 eigenvalues not converged
     c_bands:  3 eigenvalues not converged
     c_bands:  3 eigenvalues not converged
     c_bands:  1 eigenvalues not converged
     c_bands:  2 eigenvalues not converged
     c_bands:  2 eigenvalues not converged
     c_bands:  2 eigenvalues not converged
     c_bands:  4 eigenvalues not converged
     c_bands:  5 eigenvalues not converged
     c_bands:  1 eigenvalues not converged
     c_bands:  2 eigenvalues not converged
     c_bands:  3 eigenvalues not converged
     c_bands:  4 eigenvalues not converged
     c_bands:  3 eigenvalues not converged
     c_bands:  5 eigenvalues not converged
     c_bands:  1 eigenvalues not converged
     ethr =  8.38E-08,  avg # of iterations = 11.8

     negative rho (up, down):  0.000E+00 1.677E-03

     total cpu time spent up to now is     1156.4 secs

     total energy              =   -5263.16219750 Ry
     estimated scf accuracy    <       0.00038598 Ry

     total magnetization       =    52.34 Bohr mag/cell
     absolute magnetization    =    55.56 Bohr mag/cell

     iteration # 29     ecut=    71.00 Ry     beta= 0.30
     Davidson diagonalization with overlap
     c_bands:  1 eigenvalues not converged
     ethr =  8.38E-08,  avg # of iterations =  7.1

     negative rho (up, down):  0.000E+00 1.685E-03

     total cpu time spent up to now is     1202.0 secs

     total energy              =   -5263.16229279 Ry
     estimated scf accuracy    <       0.00020444 Ry

     total magnetization       =    52.33 Bohr mag/cell
     absolute magnetization    =    55.59 Bohr mag/cell

     iteration # 30     ecut=    71.00 Ry     beta= 0.30
     Davidson diagonalization with overlap
     c_bands:  1 eigenvalues not converged
     c_bands:  3 eigenvalues not converged
     c_bands:  2 eigenvalues not converged
     c_bands:  1 eigenvalues not converged
     c_bands:  2 eigenvalues not converged
     c_bands:  2 eigenvalues not converged
     ethr =  7.99E-08,  avg # of iterations =  4.1

     negative rho (up, down):  0.000E+00 1.683E-03

     total cpu time spent up to now is     1238.4 secs

     total energy              =   -5263.16232180 Ry
     estimated scf accuracy    <       0.00005905 Ry

     total magnetization       =    52.33 Bohr mag/cell
     absolute magnetization    =    55.58 Bohr mag/cell

     iteration # 31     ecut=    71.00 Ry     beta= 0.30
     Davidson diagonalization with overlap
     c_bands:  1 eigenvalues not converged
     c_bands:  2 eigenvalues not converged
     c_bands:  1 eigenvalues not converged
     c_bands:  2 eigenvalues not converged
     c_bands:  3 eigenvalues not converged
     c_bands:  1 eigenvalues not converged
     ethr =  2.31E-08,  avg # of iterations =  7.4

     negative rho (up, down):  0.000E+00 1.682E-03

     total cpu time spent up to now is     1280.5 secs

     total energy              =   -5263.16231214 Ry
     estimated scf accuracy    <       0.00005102 Ry

     total magnetization       =    52.33 Bohr mag/cell
     absolute magnetization    =    55.58 Bohr mag/cell

     iteration # 32     ecut=    71.00 Ry     beta= 0.30
     Davidson diagonalization with overlap
     c_bands:  1 eigenvalues not converged
     ethr =  1.99E-08,  avg # of iterations =  2.7

     negative rho (up, down):  0.000E+00 1.682E-03

     total cpu time spent up to now is     1314.8 secs

     total energy              =   -5263.16231898 Ry
     estimated scf accuracy    <       0.00007696 Ry

     total magnetization       =    52.33 Bohr mag/cell
     absolute magnetization    =    55.58 Bohr mag/cell

     iteration # 33     ecut=    71.00 Ry     beta= 0.30
     Davidson diagonalization with overlap
     c_bands:  1 eigenvalues not converged
     ethr =  1.99E-08,  avg # of iterations =  1.3

     negative rho (up, down):  0.000E+00 1.688E-03

     total cpu time spent up to now is     1346.0 secs

     total energy              =   -5263.16233411 Ry
     estimated scf accuracy    <       0.00008020 Ry

     total magnetization       =    52.33 Bohr mag/cell
     absolute magnetization    =    55.58 Bohr mag/cell

     iteration # 34     ecut=    71.00 Ry     beta= 0.30
     Davidson diagonalization with overlap
     c_bands:  1 eigenvalues not converged
     ethr =  1.99E-08,  avg # of iterations =  4.6

     negative rho (up, down):  0.000E+00 1.687E-03

     total cpu time spent up to now is     1384.6 secs

     total energy              =   -5263.16233392 Ry
     estimated scf accuracy    <       0.00004815 Ry

     total magnetization       =    52.33 Bohr mag/cell
     absolute magnetization    =    55.58 Bohr mag/cell

     iteration # 35     ecut=    71.00 Ry     beta= 0.30
     Davidson diagonalization with overlap
     ethr =  1.88E-08,  avg # of iterations =  1.5

     negative rho (up, down):  0.000E+00 1.681E-03

     total cpu time spent up to now is     1416.3 secs

     total energy              =   -5263.16235208 Ry
     estimated scf accuracy    <       0.00003805 Ry

     total magnetization       =    52.33 Bohr mag/cell
     absolute magnetization    =    55.58 Bohr mag/cell

     iteration # 36     ecut=    71.00 Ry     beta= 0.30
     Davidson diagonalization with overlap
     c_bands:  1 eigenvalues not converged
     c_bands:  4 eigenvalues not converged
     ethr =  1.49E-08,  avg # of iterations =  5.9

     negative rho (up, down):  0.000E+00 1.681E-03

     total cpu time spent up to now is     1457.8 secs

     total energy              =   -5263.16237296 Ry
     estimated scf accuracy    <       0.00010322 Ry

     total magnetization       =    52.33 Bohr mag/cell
     absolute magnetization    =    55.58 Bohr mag/cell

     iteration # 37     ecut=    71.00 Ry     beta= 0.30
     Davidson diagonalization with overlap
     ethr =  1.49E-08,  avg # of iterations =  1.9

     negative rho (up, down):  0.000E+00 1.683E-03

     total cpu time spent up to now is     1490.9 secs

     total energy              =   -5263.16234411 Ry
     estimated scf accuracy    <       0.00014179 Ry

     total magnetization       =    52.33 Bohr mag/cell
     absolute magnetization    =    55.58 Bohr mag/cell

     iteration # 38     ecut=    71.00 Ry     beta= 0.30
     Davidson diagonalization with overlap
     ethr =  1.49E-08,  avg # of iterations =  1.1

     negative rho (up, down):  0.000E+00 1.683E-03

     total cpu time spent up to now is     1522.2 secs

     total energy              =   -5263.16235410 Ry
     estimated scf accuracy    <       0.00015655 Ry

     total magnetization       =    52.33 Bohr mag/cell
     absolute magnetization    =    55.58 Bohr mag/cell

     iteration # 39     ecut=    71.00 Ry     beta= 0.30
     Davidson diagonalization with overlap
     ethr =  1.49E-08,  avg # of iterations =  1.0

     negative rho (up, down):  0.000E+00 1.686E-03

     total cpu time spent up to now is     1553.3 secs

     total energy              =   -5263.16235148 Ry
     estimated scf accuracy    <       0.00012952 Ry

     total magnetization       =    52.33 Bohr mag/cell
     absolute magnetization    =    55.58 Bohr mag/cell

     iteration # 40     ecut=    71.00 Ry     beta= 0.30
     Davidson diagonalization with overlap
     ethr =  1.49E-08,  avg # of iterations =  1.1

     negative rho (up, down):  0.000E+00 1.688E-03

     total cpu time spent up to now is     1584.4 secs

     total energy              =   -5263.16234794 Ry
     estimated scf accuracy    <       0.00014422 Ry

     total magnetization       =    52.33 Bohr mag/cell
     absolute magnetization    =    55.58 Bohr mag/cell

     iteration # 41     ecut=    71.00 Ry     beta= 0.30
     Davidson diagonalization with overlap
     ethr =  1.49E-08,  avg # of iterations =  1.0

     negative rho (up, down):  0.000E+00 1.692E-03

     total cpu time spent up to now is     1615.2 secs

     total energy              =   -5263.16225457 Ry
     estimated scf accuracy    <       0.00009262 Ry

     total magnetization       =    52.33 Bohr mag/cell
     absolute magnetization    =    55.58 Bohr mag/cell

     iteration # 42     ecut=    71.00 Ry     beta= 0.30
     Davidson diagonalization with overlap
     c_bands:  1 eigenvalues not converged
     c_bands:  1 eigenvalues not converged
     c_bands:  2 eigenvalues not converged
     c_bands:  5 eigenvalues not converged
     c_bands:  1 eigenvalues not converged
     c_bands:  2 eigenvalues not converged
     ethr =  1.49E-08,  avg # of iterations =  8.3

     negative rho (up, down):  0.000E+00 1.691E-03

     total cpu time spent up to now is     1670.3 secs

     total energy              =   -5263.16223930 Ry
     estimated scf accuracy    <       0.00003744 Ry

     total magnetization       =    52.33 Bohr mag/cell
     absolute magnetization    =    55.58 Bohr mag/cell

     iteration # 43     ecut=    71.00 Ry     beta= 0.30
     Davidson diagonalization with overlap
     c_bands:  1 eigenvalues not converged
     c_bands:  2 eigenvalues not converged
     c_bands:  1 eigenvalues not converged
     c_bands:  1 eigenvalues not converged
     c_bands:  4 eigenvalues not converged
     c_bands:  2 eigenvalues not converged
     ethr =  1.46E-08,  avg # of iterations =  9.2

     negative rho (up, down):  0.000E+00 1.691E-03

     total cpu time spent up to now is     1724.5 secs

     total energy              =   -5263.16214119 Ry
     estimated scf accuracy    <       0.00009049 Ry

     total magnetization       =    52.33 Bohr mag/cell
     absolute magnetization    =    55.58 Bohr mag/cell

     iteration # 44     ecut=    71.00 Ry     beta= 0.30
     Davidson diagonalization with overlap
     c_bands:  1 eigenvalues not converged
     c_bands:  1 eigenvalues not converged
     c_bands:  1 eigenvalues not converged
     c_bands:  3 eigenvalues not converged
     c_bands:  1 eigenvalues not converged
     c_bands:  3 eigenvalues not converged
     c_bands:  2 eigenvalues not converged
     c_bands:  1 eigenvalues not converged
     c_bands:  2 eigenvalues not converged
     c_bands:  1 eigenvalues not converged
     c_bands:  3 eigenvalues not converged
     c_bands:  3 eigenvalues not converged
     c_bands:  2 eigenvalues not converged
     ethr =  1.46E-08,  avg # of iterations = 10.8

     negative rho (up, down):  0.000E+00 1.689E-03

     total cpu time spent up to now is     1789.6 secs

     total energy              =   -5263.16208556 Ry
     estimated scf accuracy    <       0.00008168 Ry

     total magnetization       =    52.34 Bohr mag/cell
     absolute magnetization    =    55.58 Bohr mag/cell

     iteration # 45     ecut=    71.00 Ry     beta= 0.30
     Davidson diagonalization with overlap
     c_bands:  1 eigenvalues not converged
     c_bands:  2 eigenvalues not converged
     c_bands:  1 eigenvalues not converged
     c_bands:  1 eigenvalues not converged
     c_bands:  1 eigenvalues not converged
     c_bands:  1 eigenvalues not converged
     c_bands:  2 eigenvalues not converged
     c_bands:  2 eigenvalues not converged
     c_bands:  2 eigenvalues not converged
     c_bands:  4 eigenvalues not converged
     c_bands:  1 eigenvalues not converged
     c_bands:  2 eigenvalues not converged
     c_bands:  2 eigenvalues not converged
     c_bands:  1 eigenvalues not converged
     c_bands:  3 eigenvalues not converged
     c_bands:  1 eigenvalues not converged
     c_bands:  2 eigenvalues not converged
     c_bands:  3 eigenvalues not converged
     ethr =  1.46E-08,  avg # of iterations = 11.7

     negative rho (up, down):  0.000E+00 1.692E-03

     total cpu time spent up to now is     1859.1 secs

     total energy              =   -5263.16217758 Ry
     estimated scf accuracy    <       0.00008327 Ry

     total magnetization       =    52.34 Bohr mag/cell
     absolute magnetization    =    55.58 Bohr mag/cell

     iteration # 46     ecut=    71.00 Ry     beta= 0.30
     Davidson diagonalization with overlap
     c_bands:  1 eigenvalues not converged
     c_bands:  1 eigenvalues not converged
     c_bands:  1 eigenvalues not converged
     ethr =  1.46E-08,  avg # of iterations =  3.6

     negative rho (up, down):  0.000E+00 1.695E-03

     total cpu time spent up to now is     1895.2 secs

     total energy              =   -5263.16218574 Ry
     estimated scf accuracy    <       0.00002219 Ry

     total magnetization       =    52.33 Bohr mag/cell
     absolute magnetization    =    55.58 Bohr mag/cell

     iteration # 47     ecut=    71.00 Ry     beta= 0.30
     Davidson diagonalization with overlap
     c_bands:  1 eigenvalues not converged
     ethr =  8.67E-09,  avg # of iterations =  6.8

     negative rho (up, down):  0.000E+00 1.694E-03

     total cpu time spent up to now is     1940.6 secs

     total energy              =   -5263.16219158 Ry
     estimated scf accuracy    <       0.00001011 Ry

     total magnetization       =    52.33 Bohr mag/cell
     absolute magnetization    =    55.58 Bohr mag/cell

     iteration # 48     ecut=    71.00 Ry     beta= 0.30
     Davidson diagonalization with overlap
     c_bands:  1 eigenvalues not converged
     c_bands:  2 eigenvalues not converged
     ethr =  3.95E-09,  avg # of iterations =  6.4

     negative rho (up, down):  0.000E+00 1.694E-03

     total cpu time spent up to now is     1980.3 secs

     total energy              =   -5263.16219238 Ry
     estimated scf accuracy    <       0.00000324 Ry

     total magnetization       =    52.33 Bohr mag/cell
     absolute magnetization    =    55.58 Bohr mag/cell

     iteration # 49     ecut=    71.00 Ry     beta= 0.30
     Davidson diagonalization with overlap
     c_bands:  1 eigenvalues not converged
     c_bands:  2 eigenvalues not converged
     c_bands:  1 eigenvalues not converged
     ethr =  1.26E-09,  avg # of iterations =  8.3

     negative rho (up, down):  0.000E+00 1.694E-03

     total cpu time spent up to now is     2025.1 secs

     total energy              =   -5263.16219381 Ry
     estimated scf accuracy    <       0.00000077 Ry

     total magnetization       =    52.33 Bohr mag/cell
     absolute magnetization    =    55.58 Bohr mag/cell

     iteration # 50     ecut=    71.00 Ry     beta= 0.30
     Davidson diagonalization with overlap
     c_bands:  1 eigenvalues not converged
     c_bands:  1 eigenvalues not converged
     c_bands:  1 eigenvalues not converged
     c_bands:  1 eigenvalues not converged
     c_bands:  1 eigenvalues not converged
     c_bands:  1 eigenvalues not converged
     c_bands:  1 eigenvalues not converged
     c_bands:  2 eigenvalues not converged
     c_bands:  5 eigenvalues not converged
     c_bands:  3 eigenvalues not converged
     c_bands:  5 eigenvalues not converged
     c_bands:  4 eigenvalues not converged
     c_bands:  2 eigenvalues not converged
     c_bands:  1 eigenvalues not converged
     c_bands:  5 eigenvalues not converged
     c_bands:  2 eigenvalues not converged
     c_bands:  2 eigenvalues not converged
     c_bands:  2 eigenvalues not converged
     c_bands:  1 eigenvalues not converged
     c_bands:  2 eigenvalues not converged
     c_bands:  1 eigenvalues not converged
     c_bands:  1 eigenvalues not converged
     ethr =  2.99E-10,  avg # of iterations = 15.1

     negative rho (up, down):  0.000E+00 1.694E-03

     total cpu time spent up to now is     2096.5 secs

     total energy              =   -5263.16219458 Ry
     estimated scf accuracy    <       0.00000285 Ry

     total magnetization       =    52.33 Bohr mag/cell
     absolute magnetization    =    55.58 Bohr mag/cell

     iteration # 51     ecut=    71.00 Ry     beta= 0.30
     Davidson diagonalization with overlap
     c_bands:  1 eigenvalues not converged
     c_bands:  1 eigenvalues not converged
     ethr =  2.99E-10,  avg # of iterations =  3.2

     negative rho (up, down):  0.000E+00 1.694E-03

     total cpu time spent up to now is     2131.2 secs

     total energy              =   -5263.16219483 Ry
     estimated scf accuracy    <       0.00000138 Ry

     total magnetization       =    52.33 Bohr mag/cell
     absolute magnetization    =    55.58 Bohr mag/cell

     iteration # 52     ecut=    71.00 Ry     beta= 0.30
     Davidson diagonalization with overlap
     c_bands:  1 eigenvalues not converged
     c_bands:  1 eigenvalues not converged
     ethr =  2.99E-10,  avg # of iterations =  8.0

     negative rho (up, down):  0.000E+00 1.695E-03

     total cpu time spent up to now is     2174.1 secs

     total energy              =   -5263.16219447 Ry
     estimated scf accuracy    <       0.00000065 Ry

     total magnetization       =    52.33 Bohr mag/cell
     absolute magnetization    =    55.58 Bohr mag/cell

     iteration # 53     ecut=    71.00 Ry     beta= 0.30
     Davidson diagonalization with overlap
     c_bands:  1 eigenvalues not converged
     c_bands:  1 eigenvalues not converged
     c_bands:  1 eigenvalues not converged
     c_bands:  1 eigenvalues not converged
     c_bands:  1 eigenvalues not converged
     c_bands:  5 eigenvalues not converged
     c_bands:  3 eigenvalues not converged
     c_bands:  4 eigenvalues not converged
     c_bands:  2 eigenvalues not converged
     c_bands:  5 eigenvalues not converged
     c_bands:  5 eigenvalues not converged
     c_bands:  1 eigenvalues not converged
     c_bands:  2 eigenvalues not converged
     c_bands:  5 eigenvalues not converged
     c_bands:  1 eigenvalues not converged
     ethr =  2.56E-10,  avg # of iterations = 16.5

     negative rho (up, down):  0.000E+00 1.695E-03

     total cpu time spent up to now is     2254.3 secs

     total energy              =   -5263.16219646 Ry
     estimated scf accuracy    <       0.00000804 Ry

     total magnetization       =    52.33 Bohr mag/cell
     absolute magnetization    =    55.58 Bohr mag/cell

     iteration # 54     ecut=    71.00 Ry     beta= 0.30
     Davidson diagonalization with overlap
     c_bands:  1 eigenvalues not converged
     c_bands:  1 eigenvalues not converged
     c_bands:  2 eigenvalues not converged
     c_bands:  1 eigenvalues not converged
     c_bands:  3 eigenvalues not converged
     ethr =  2.56E-10,  avg # of iterations =  3.1

     negative rho (up, down):  0.000E+00 1.694E-03

     total cpu time spent up to now is     2288.1 secs

     total energy              =   -5263.16219556 Ry
     estimated scf accuracy    <       0.00000654 Ry

     total magnetization       =    52.33 Bohr mag/cell
     absolute magnetization    =    55.58 Bohr mag/cell

     iteration # 55     ecut=    71.00 Ry     beta= 0.30
     Davidson diagonalization with overlap
     c_bands:  3 eigenvalues not converged
     c_bands:  2 eigenvalues not converged
     ethr =  2.56E-10,  avg # of iterations =  8.3

     negative rho (up, down):  0.000E+00 1.694E-03

     total cpu time spent up to now is     2346.5 secs

     total energy              =   -5263.16219682 Ry
     estimated scf accuracy    <       0.00000311 Ry

     total magnetization       =    52.33 Bohr mag/cell
     absolute magnetization    =    55.58 Bohr mag/cell

     iteration # 56     ecut=    71.00 Ry     beta= 0.30
     Davidson diagonalization with overlap
     c_bands:  3 eigenvalues not converged
     c_bands:  1 eigenvalues not converged
     ethr =  2.56E-10,  avg # of iterations =  5.1

     negative rho (up, down):  0.000E+00 1.694E-03

     total cpu time spent up to now is     2389.0 secs

     total energy              =   -5263.16219698 Ry
     estimated scf accuracy    <       0.00000181 Ry

     total magnetization       =    52.33 Bohr mag/cell
     absolute magnetization    =    55.58 Bohr mag/cell

     iteration # 57     ecut=    71.00 Ry     beta= 0.30
     Davidson diagonalization with overlap
     c_bands:  1 eigenvalues not converged
     c_bands:  1 eigenvalues not converged
     c_bands:  1 eigenvalues not converged
     c_bands:  5 eigenvalues not converged
     c_bands:  4 eigenvalues not converged
     c_bands:  2 eigenvalues not converged
     c_bands:  1 eigenvalues not converged
     c_bands:  2 eigenvalues not converged
     c_bands:  2 eigenvalues not converged
     c_bands:  1 eigenvalues not converged
     c_bands:  1 eigenvalues not converged
     ethr =  2.56E-10,  avg # of iterations = 13.3

     negative rho (up, down):  0.000E+00 1.694E-03

     total cpu time spent up to now is     2455.7 secs

     total energy              =   -5263.16219694 Ry
     estimated scf accuracy    <       0.00000065 Ry

     total magnetization       =    52.33 Bohr mag/cell
     absolute magnetization    =    55.58 Bohr mag/cell

     iteration # 58     ecut=    71.00 Ry     beta= 0.30
     Davidson diagonalization with overlap
     c_bands:  1 eigenvalues not converged
     c_bands:  1 eigenvalues not converged
     c_bands:  1 eigenvalues not converged
     c_bands:  1 eigenvalues not converged
     c_bands:  1 eigenvalues not converged
     c_bands:  4 eigenvalues not converged
     c_bands:  1 eigenvalues not converged
     c_bands:  2 eigenvalues not converged
     c_bands:  5 eigenvalues not converged
     c_bands:  1 eigenvalues not converged
     c_bands:  2 eigenvalues not converged
     c_bands:  5 eigenvalues not converged
     c_bands:  2 eigenvalues not converged
     c_bands:  1 eigenvalues not converged
     c_bands:  2 eigenvalues not converged
     c_bands:  1 eigenvalues not converged
     c_bands:  3 eigenvalues not converged
     c_bands:  3 eigenvalues not converged
     c_bands:  4 eigenvalues not converged
     c_bands:  4 eigenvalues not converged
     c_bands:  2 eigenvalues not converged
     c_bands:  4 eigenvalues not converged
     c_bands:  5 eigenvalues not converged
     c_bands:  5 eigenvalues not converged
     c_bands:  3 eigenvalues not converged
     c_bands:  2 eigenvalues not converged
     c_bands:  1 eigenvalues not converged
     ethr =  2.55E-10,  avg # of iterations = 14.3

     negative rho (up, down):  0.000E+00 1.694E-03

     total cpu time spent up to now is     2519.8 secs

     total energy              =   -5263.16219775 Ry
     estimated scf accuracy    <       0.00000492 Ry

     total magnetization       =    52.33 Bohr mag/cell
     absolute magnetization    =    55.58 Bohr mag/cell

     iteration # 59     ecut=    71.00 Ry     beta= 0.30
     Davidson diagonalization with overlap
     c_bands:  4 eigenvalues not converged
     c_bands:  3 eigenvalues not converged
     c_bands:  1 eigenvalues not converged
     c_bands:  1 eigenvalues not converged
     ethr =  2.55E-10,  avg # of iterations =  4.1

     negative rho (up, down):  0.000E+00 1.694E-03

     total cpu time spent up to now is     2555.5 secs

     total energy              =   -5263.16219777 Ry
     estimated scf accuracy    <       0.00000375 Ry

     total magnetization       =    52.33 Bohr mag/cell
     absolute magnetization    =    55.58 Bohr mag/cell

     iteration # 60     ecut=    71.00 Ry     beta= 0.30
     Davidson diagonalization with overlap
     c_bands:  1 eigenvalues not converged
     ethr =  2.55E-10,  avg # of iterations =  1.4

     negative rho (up, down):  0.000E+00 1.694E-03

     total cpu time spent up to now is     2586.7 secs

     total energy              =   -5263.16219746 Ry
     estimated scf accuracy    <       0.00000380 Ry

     total magnetization       =    52.33 Bohr mag/cell
     absolute magnetization    =    55.58 Bohr mag/cell

     iteration # 61     ecut=    71.00 Ry     beta= 0.30
     Davidson diagonalization with overlap
     ethr =  2.55E-10,  avg # of iterations =  2.1

     negative rho (up, down):  0.000E+00 1.694E-03

     total cpu time spent up to now is     2621.3 secs

     total energy              =   -5263.16219768 Ry
     estimated scf accuracy    <       0.00000318 Ry

     total magnetization       =    52.33 Bohr mag/cell
     absolute magnetization    =    55.58 Bohr mag/cell

     iteration # 62     ecut=    71.00 Ry     beta= 0.30
     Davidson diagonalization with overlap
     ethr =  2.55E-10,  avg # of iterations =  1.0

     negative rho (up, down):  0.000E+00 1.694E-03

     total cpu time spent up to now is     2651.8 secs

     total energy              =   -5263.16219766 Ry
     estimated scf accuracy    <       0.00000317 Ry

     total magnetization       =    52.33 Bohr mag/cell
     absolute magnetization    =    55.58 Bohr mag/cell

     iteration # 63     ecut=    71.00 Ry     beta= 0.30
     Davidson diagonalization with overlap
     ethr =  2.55E-10,  avg # of iterations =  1.2

     negative rho (up, down):  0.000E+00 1.694E-03

     total cpu time spent up to now is     2683.4 secs

     total energy              =   -5263.16219771 Ry
     estimated scf accuracy    <       0.00000242 Ry

     total magnetization       =    52.33 Bohr mag/cell
     absolute magnetization    =    55.58 Bohr mag/cell

     iteration # 64     ecut=    71.00 Ry     beta= 0.30
     Davidson diagonalization with overlap
     c_bands:  1 eigenvalues not converged
     ethr =  2.55E-10,  avg # of iterations =  6.1

     negative rho (up, down):  0.000E+00 1.694E-03

     total cpu time spent up to now is     2722.6 secs

     total energy              =   -5263.16219767 Ry
     estimated scf accuracy    <       0.00000220 Ry

     total magnetization       =    52.33 Bohr mag/cell
     absolute magnetization    =    55.58 Bohr mag/cell

     iteration # 65     ecut=    71.00 Ry     beta= 0.30
     Davidson diagonalization with overlap
     ethr =  2.55E-10,  avg # of iterations =  1.4

     negative rho (up, down):  0.000E+00 1.694E-03

     total cpu time spent up to now is     2755.3 secs

     total energy              =   -5263.16219783 Ry
     estimated scf accuracy    <       0.00000402 Ry

     total magnetization       =    52.33 Bohr mag/cell
     absolute magnetization    =    55.58 Bohr mag/cell

     iteration # 66     ecut=    71.00 Ry     beta= 0.30
     Davidson diagonalization with overlap
     ethr =  2.55E-10,  avg # of iterations =  1.1

     negative rho (up, down):  0.000E+00 1.694E-03

     total cpu time spent up to now is     2787.0 secs

     total energy              =   -5263.16219780 Ry
     estimated scf accuracy    <       0.00000245 Ry

     total magnetization       =    52.33 Bohr mag/cell
     absolute magnetization    =    55.58 Bohr mag/cell

     iteration # 67     ecut=    71.00 Ry     beta= 0.30
     Davidson diagonalization with overlap
     ethr =  2.55E-10,  avg # of iterations =  1.0

     negative rho (up, down):  0.000E+00 1.694E-03

     total cpu time spent up to now is     2817.8 secs

     total energy              =   -5263.16219692 Ry
     estimated scf accuracy    <       0.00000284 Ry

     total magnetization       =    52.33 Bohr mag/cell
     absolute magnetization    =    55.58 Bohr mag/cell

     iteration # 68     ecut=    71.00 Ry     beta= 0.30
     Davidson diagonalization with overlap
     c_bands:  3 eigenvalues not converged
     ethr =  2.55E-10,  avg # of iterations =  6.8

     negative rho (up, down):  0.000E+00 1.694E-03

     total cpu time spent up to now is     2864.5 secs

     total energy              =   -5263.16219322 Ry
     estimated scf accuracy    <       0.00000567 Ry

     total magnetization       =    52.33 Bohr mag/cell
     absolute magnetization    =    55.58 Bohr mag/cell

     iteration # 69     ecut=    71.00 Ry     beta= 0.30
     Davidson diagonalization with overlap
     c_bands:  1 eigenvalues not converged
     c_bands:  1 eigenvalues not converged
     c_bands:  2 eigenvalues not converged
     c_bands:  4 eigenvalues not converged
     c_bands:  1 eigenvalues not converged
     c_bands:  5 eigenvalues not converged
     c_bands:  3 eigenvalues not converged
     c_bands:  3 eigenvalues not converged
     c_bands:  1 eigenvalues not converged
     c_bands:  2 eigenvalues not converged
     c_bands:  3 eigenvalues not converged
     c_bands:  1 eigenvalues not converged
     c_bands:  1 eigenvalues not converged
     c_bands:  1 eigenvalues not converged
     c_bands:  2 eigenvalues not converged
     c_bands:  3 eigenvalues not converged
     c_bands:  5 eigenvalues not converged
     c_bands:  1 eigenvalues not converged
     ethr =  2.55E-10,  avg # of iterations = 13.5

     negative rho (up, down):  0.000E+00 1.694E-03

     total cpu time spent up to now is     2953.2 secs

     total energy              =   -5263.16219854 Ry
     estimated scf accuracy    <       0.00000512 Ry

     total magnetization       =    52.33 Bohr mag/cell
     absolute magnetization    =    55.58 Bohr mag/cell

     iteration # 70     ecut=    71.00 Ry     beta= 0.30
     Davidson diagonalization with overlap
     c_bands:  1 eigenvalues not converged
     c_bands:  1 eigenvalues not converged
     c_bands:  1 eigenvalues not converged
     c_bands:  1 eigenvalues not converged
     c_bands:  1 eigenvalues not converged
     c_bands:  1 eigenvalues not converged
     c_bands:  1 eigenvalues not converged
     c_bands:  1 eigenvalues not converged
     c_bands:  1 eigenvalues not converged
     c_bands:  5 eigenvalues not converged
     c_bands:  5 eigenvalues not converged
     c_bands:  1 eigenvalues not converged
     c_bands:  2 eigenvalues not converged
     c_bands:  2 eigenvalues not converged
     c_bands:  5 eigenvalues not converged
     c_bands:  2 eigenvalues not converged
     ethr =  2.55E-10,  avg # of iterations = 14.6

     negative rho (up, down):  0.000E+00 1.694E-03

     total cpu time spent up to now is     3014.7 secs

     total energy              =   -5263.16220018 Ry
     estimated scf accuracy    <       0.00001824 Ry

     total magnetization       =    52.33 Bohr mag/cell
     absolute magnetization    =    55.58 Bohr mag/cell

     iteration # 71     ecut=    71.00 Ry     beta= 0.30
     Davidson diagonalization with overlap
     c_bands:  1 eigenvalues not converged
     c_bands:  2 eigenvalues not converged
     c_bands:  1 eigenvalues not converged
     c_bands:  1 eigenvalues not converged
     ethr =  2.55E-10,  avg # of iterations =  2.7

     negative rho (up, down):  0.000E+00 1.694E-03

     total cpu time spent up to now is     3048.0 secs

     total energy              =   -5263.16220018 Ry
     estimated scf accuracy    <       0.00001595 Ry

     total magnetization       =    52.33 Bohr mag/cell
     absolute magnetization    =    55.58 Bohr mag/cell

     iteration # 72     ecut=    71.00 Ry     beta= 0.30
     Davidson diagonalization with overlap
     c_bands:  1 eigenvalues not converged
     c_bands:  2 eigenvalues not converged
     c_bands:  1 eigenvalues not converged
     ethr =  2.55E-10,  avg # of iterations =  2.6

     negative rho (up, down):  0.000E+00 1.694E-03

     total cpu time spent up to now is     3081.0 secs

     total energy              =   -5263.16219871 Ry
     estimated scf accuracy    <       0.00001629 Ry

     total magnetization       =    52.33 Bohr mag/cell
     absolute magnetization    =    55.58 Bohr mag/cell

     iteration # 73     ecut=    71.00 Ry     beta= 0.30
     Davidson diagonalization with overlap
     c_bands:  3 eigenvalues not converged
     c_bands:  1 eigenvalues not converged
     c_bands:  4 eigenvalues not converged
     c_bands:  2 eigenvalues not converged
     c_bands:  2 eigenvalues not converged
     c_bands:  1 eigenvalues not converged
     ethr =  2.55E-10,  avg # of iterations =  8.0

     negative rho (up, down):  0.000E+00 1.694E-03

     total cpu time spent up to now is     3135.8 secs

     total energy              =   -5263.16219959 Ry
     estimated scf accuracy    <       0.00001446 Ry

     total magnetization       =    52.33 Bohr mag/cell
     absolute magnetization    =    55.58 Bohr mag/cell

     iteration # 74     ecut=    71.00 Ry     beta= 0.30
     Davidson diagonalization with overlap
     ethr =  2.55E-10,  avg # of iterations =  2.0

     negative rho (up, down):  0.000E+00 1.694E-03

     total cpu time spent up to now is     3168.3 secs

     total energy              =   -5263.16219959 Ry
     estimated scf accuracy    <       0.00001397 Ry

     total magnetization       =    52.33 Bohr mag/cell
     absolute magnetization    =    55.58 Bohr mag/cell

     iteration # 75     ecut=    71.00 Ry     beta= 0.30
     Davidson diagonalization with overlap
     c_bands:  1 eigenvalues not converged
     c_bands:  1 eigenvalues not converged
     ethr =  2.55E-10,  avg # of iterations =  6.4

     negative rho (up, down):  0.000E+00 1.694E-03

     total cpu time spent up to now is     3213.5 secs

     total energy              =   -5263.16219981 Ry
     estimated scf accuracy    <       0.00001348 Ry

     total magnetization       =    52.33 Bohr mag/cell
     absolute magnetization    =    55.58 Bohr mag/cell

     iteration # 76     ecut=    71.00 Ry     beta= 0.30
     Davidson diagonalization with overlap
     ethr =  2.55E-10,  avg # of iterations =  1.2

     negative rho (up, down):  0.000E+00 1.694E-03

     total cpu time spent up to now is     3244.9 secs

     total energy              =   -5263.16220009 Ry
     estimated scf accuracy    <       0.00001238 Ry

     total magnetization       =    52.33 Bohr mag/cell
     absolute magnetization    =    55.58 Bohr mag/cell

     iteration # 77     ecut=    71.00 Ry     beta= 0.30
     Davidson diagonalization with overlap
     c_bands:  1 eigenvalues not converged
     ethr =  2.55E-10,  avg # of iterations =  8.4

     negative rho (up, down):  0.000E+00 1.694E-03

     total cpu time spent up to now is     3291.0 secs

     total energy              =   -5263.16219982 Ry
     estimated scf accuracy    <       0.00001918 Ry

     total magnetization       =    52.33 Bohr mag/cell
     absolute magnetization    =    55.58 Bohr mag/cell

     iteration # 78     ecut=    71.00 Ry     beta= 0.30
     Davidson diagonalization with overlap
     ethr =  2.55E-10,  avg # of iterations =  6.4

     negative rho (up, down):  0.000E+00 1.693E-03

     total cpu time spent up to now is     3337.7 secs

     total energy              =   -5263.16219775 Ry
     estimated scf accuracy    <       0.00001311 Ry

     total magnetization       =    52.33 Bohr mag/cell
     absolute magnetization    =    55.58 Bohr mag/cell

     iteration # 79     ecut=    71.00 Ry     beta= 0.30
     Davidson diagonalization with overlap
     c_bands:  1 eigenvalues not converged
     c_bands:  1 eigenvalues not converged
     c_bands:  1 eigenvalues not converged
     c_bands:  1 eigenvalues not converged
     c_bands:  1 eigenvalues not converged
     c_bands:  3 eigenvalues not converged
     c_bands:  4 eigenvalues not converged
     c_bands:  5 eigenvalues not converged
     c_bands:  3 eigenvalues not converged
     c_bands:  1 eigenvalues not converged
     c_bands:  1 eigenvalues not converged
     c_bands:  2 eigenvalues not converged
     c_bands:  2 eigenvalues not converged
     c_bands:  2 eigenvalues not converged
     c_bands:  1 eigenvalues not converged
     c_bands:  3 eigenvalues not converged
     c_bands:  5 eigenvalues not converged
     c_bands:  1 eigenvalues not converged
     c_bands:  2 eigenvalues not converged
     c_bands:  3 eigenvalues not converged
     c_bands:  2 eigenvalues not converged
     c_bands:  3 eigenvalues not converged
     c_bands:  3 eigenvalues not converged
     ethr =  2.55E-10,  avg # of iterations = 15.6

     negative rho (up, down):  0.000E+00 1.693E-03

     total cpu time spent up to now is     3413.7 secs

     total energy              =   -5263.16219849 Ry
     estimated scf accuracy    <       0.00001297 Ry

     total magnetization       =    52.33 Bohr mag/cell
     absolute magnetization    =    55.58 Bohr mag/cell

     iteration # 80     ecut=    71.00 Ry     beta= 0.30
     Davidson diagonalization with overlap
     c_bands:  1 eigenvalues not converged
     c_bands:  1 eigenvalues not converged
     c_bands:  1 eigenvalues not converged
     c_bands:  1 eigenvalues not converged
     c_bands:  2 eigenvalues not converged
     c_bands:  3 eigenvalues not converged
     ethr =  2.55E-10,  avg # of iterations = 11.3

     negative rho (up, down):  0.000E+00 1.692E-03

     total cpu time spent up to now is     3466.7 secs

     total energy              =   -5263.16219405 Ry
     estimated scf accuracy    <       0.00000845 Ry

     total magnetization       =    52.33 Bohr mag/cell
     absolute magnetization    =    55.58 Bohr mag/cell

     iteration # 81     ecut=    71.00 Ry     beta= 0.30
     Davidson diagonalization with overlap
     c_bands:  1 eigenvalues not converged
     c_bands:  1 eigenvalues not converged
     c_bands:  1 eigenvalues not converged
     c_bands:  3 eigenvalues not converged
     c_bands:  3 eigenvalues not converged
     c_bands:  2 eigenvalues not converged
     c_bands:  2 eigenvalues not converged
     c_bands:  1 eigenvalues not converged
     c_bands:  2 eigenvalues not converged
     c_bands:  2 eigenvalues not converged
     c_bands:  2 eigenvalues not converged
     c_bands:  1 eigenvalues not converged
     c_bands:  2 eigenvalues not converged
     c_bands:  5 eigenvalues not converged
     c_bands:  1 eigenvalues not converged
     c_bands:  2 eigenvalues not converged
     c_bands:  1 eigenvalues not converged
     c_bands:  2 eigenvalues not converged
     c_bands:  3 eigenvalues not converged
     c_bands:  4 eigenvalues not converged
     c_bands:  1 eigenvalues not converged
     c_bands:  3 eigenvalues not converged
     c_bands:  3 eigenvalues not converged
     c_bands:  3 eigenvalues not converged
     c_bands:  4 eigenvalues not converged
     ethr =  2.55E-10,  avg # of iterations = 19.6

     negative rho (up, down):  0.000E+00 1.691E-03

     total cpu time spent up to now is     3575.7 secs

     total energy              =   -5263.16219462 Ry
     estimated scf accuracy    <       0.00000951 Ry

     total magnetization       =    52.33 Bohr mag/cell
     absolute magnetization    =    55.58 Bohr mag/cell

     iteration # 82     ecut=    71.00 Ry     beta= 0.30
     Davidson diagonalization with overlap
     c_bands:  1 eigenvalues not converged
     c_bands:  1 eigenvalues not converged
     c_bands:  3 eigenvalues not converged
     c_bands:  5 eigenvalues not converged
     c_bands:  4 eigenvalues not converged
     c_bands:  1 eigenvalues not converged
     c_bands:  4 eigenvalues not converged
     c_bands:  1 eigenvalues not converged
     c_bands:  2 eigenvalues not converged
     c_bands:  5 eigenvalues not converged
     c_bands:  1 eigenvalues not converged
     c_bands:  1 eigenvalues not converged
     c_bands:  4 eigenvalues not converged
     c_bands:  2 eigenvalues not converged
     c_bands:  1 eigenvalues not converged
     c_bands:  1 eigenvalues not converged
     c_bands:  1 eigenvalues not converged
     c_bands:  4 eigenvalues not converged
     ethr =  2.55E-10,  avg # of iterations = 18.5

     negative rho (up, down):  0.000E+00 1.690E-03

     total cpu time spent up to now is     3672.2 secs

     total energy              =   -5263.16219802 Ry
     estimated scf accuracy    <       0.00000349 Ry

     total magnetization       =    52.33 Bohr mag/cell
     absolute magnetization    =    55.58 Bohr mag/cell

     iteration # 83     ecut=    71.00 Ry     beta= 0.30
     Davidson diagonalization with overlap
     c_bands:  1 eigenvalues not converged
     c_bands:  1 eigenvalues not converged
     c_bands:  2 eigenvalues not converged
     c_bands:  4 eigenvalues not converged
     c_bands:  2 eigenvalues not converged
     c_bands:  1 eigenvalues not converged
     c_bands:  5 eigenvalues not converged
     c_bands:  5 eigenvalues not converged
     c_bands:  4 eigenvalues not converged
     c_bands:  1 eigenvalues not converged
     c_bands:  4 eigenvalues not converged
     c_bands:  5 eigenvalues not converged
     c_bands:  1 eigenvalues not converged
     c_bands:  3 eigenvalues not converged
     c_bands:  3 eigenvalues not converged
     c_bands:  1 eigenvalues not converged
     c_bands:  5 eigenvalues not converged
     c_bands:  4 eigenvalues not converged
     c_bands:  2 eigenvalues not converged
     c_bands:  5 eigenvalues not converged
     c_bands:  5 eigenvalues not converged
     c_bands:  1 eigenvalues not converged
     ethr =  2.55E-10,  avg # of iterations = 17.6

     negative rho (up, down):  0.000E+00 1.690E-03

     total cpu time spent up to now is     3767.8 secs

     total energy              =   -5263.16220006 Ry
     estimated scf accuracy    <       0.00000387 Ry

     total magnetization       =    52.33 Bohr mag/cell
     absolute magnetization    =    55.58 Bohr mag/cell

     iteration # 84     ecut=    71.00 Ry     beta= 0.30
     Davidson diagonalization with overlap
     c_bands:  1 eigenvalues not converged
     c_bands:  3 eigenvalues not converged
     c_bands:  1 eigenvalues not converged
     c_bands:  2 eigenvalues not converged
     c_bands:  5 eigenvalues not converged
     ethr =  2.55E-10,  avg # of iterations = 12.9

     negative rho (up, down):  0.000E+00 1.690E-03

     total cpu time spent up to now is     3835.5 secs

     total energy              =   -5263.16220052 Ry
     estimated scf accuracy    <       0.00000398 Ry

     total magnetization       =    52.33 Bohr mag/cell
     absolute magnetization    =    55.58 Bohr mag/cell

     iteration # 85     ecut=    71.00 Ry     beta= 0.30
     Davidson diagonalization with overlap
     c_bands:  1 eigenvalues not converged
     c_bands:  1 eigenvalues not converged
     c_bands:  1 eigenvalues not converged
     c_bands:  1 eigenvalues not converged
     c_bands:  1 eigenvalues not converged
     c_bands:  2 eigenvalues not converged
     ethr =  2.55E-10,  avg # of iterations = 10.8

     negative rho (up, down):  0.000E+00 1.690E-03

     total cpu time spent up to now is     3889.1 secs

     total energy              =   -5263.16220096 Ry
     estimated scf accuracy    <       0.00000121 Ry

     total magnetization       =    52.33 Bohr mag/cell
     absolute magnetization    =    55.58 Bohr mag/cell

     iteration # 86     ecut=    71.00 Ry     beta= 0.30
     Davidson diagonalization with overlap
     c_bands:  1 eigenvalues not converged
     ethr =  2.55E-10,  avg # of iterations =  2.1

     negative rho (up, down):  0.000E+00 1.690E-03

     total cpu time spent up to now is     3921.7 secs

     total energy              =   -5263.16220093 Ry
     estimated scf accuracy    <       0.00000057 Ry

     total magnetization       =    52.33 Bohr mag/cell
     absolute magnetization    =    55.58 Bohr mag/cell

     iteration # 87     ecut=    71.00 Ry     beta= 0.30
     Davidson diagonalization with overlap
     c_bands:  2 eigenvalues not converged
     ethr =  2.22E-10,  avg # of iterations =  7.7

     negative rho (up, down):  0.000E+00 1.690E-03

     total cpu time spent up to now is     3967.4 secs

     total energy              =   -5263.16220105 Ry
     estimated scf accuracy    <       0.00000014 Ry

     total magnetization       =    52.33 Bohr mag/cell
     absolute magnetization    =    55.58 Bohr mag/cell

     iteration # 88     ecut=    71.00 Ry     beta= 0.30
     Davidson diagonalization with overlap
     c_bands:  1 eigenvalues not converged
     c_bands:  1 eigenvalues not converged
     c_bands:  1 eigenvalues not converged
     c_bands:  4 eigenvalues not converged
     c_bands:  4 eigenvalues not converged
     ethr =  5.49E-11,  avg # of iterations =  9.5

     negative rho (up, down):  0.000E+00 1.690E-03
 
     Magnetic moment per site:
     atom:    1    charge:   15.4441    magn:    3.3866    constr:    0.0000
     atom:    2    charge:   15.4399    magn:    3.3523    constr:    0.0000
     atom:    3    charge:   15.4387    magn:    3.3438    constr:    0.0000
     atom:    4    charge:   15.4399    magn:    3.3523    constr:    0.0000
     atom:    5    charge:   15.4387    magn:    3.3438    constr:    0.0000
     atom:    6    charge:   15.4399    magn:    3.3523    constr:    0.0000
     atom:    7    charge:   15.4384    magn:    3.3411    constr:    0.0000
     atom:    8    charge:   15.4399    magn:    3.3523    constr:    0.0000
     atom:    9    charge:   15.4387    magn:    3.3438    constr:    0.0000
     atom:   10    charge:   15.4399    magn:    3.3523    constr:    0.0000
     atom:   11    charge:   15.4384    magn:    3.3411    constr:    0.0000
     atom:   12    charge:   15.4399    magn:    3.3523    constr:    0.0000
     atom:   13    charge:   15.4384    magn:    3.3411    constr:    0.0000
     atom:   14    charge:   15.4399    magn:    3.3523    constr:    0.0000
     atom:   15    charge:   15.4431    magn:    3.3762    constr:    0.0000
     atom:   16    charge:   15.4399    magn:    3.3523    constr:    0.0000

     total cpu time spent up to now is     4016.2 secs

     End of self-consistent calculation

 ------ SPIN UP ------------


          k = 0.0308 0.0308 0.0308 ( 64052 PWs)   bands (ev):

   -87.9666 -87.9596 -87.9451 -87.9451 -87.9451 -87.9451 -87.9451 -87.9450
   -87.9450 -87.9450 -87.9395 -87.9394 -87.9394 -87.9376 -87.9376 -87.9376
   -54.0492 -54.0492 -54.0492 -54.0425 -54.0425 -54.0425 -54.0294 -54.0294
   -54.0294 -54.0294 -54.0294 -54.0294 -54.0294 -54.0291 -54.0289 -54.0289
   -54.0289 -54.0289 -54.0289 -54.0289 -54.0289 -54.0289 -54.0288 -54.0288
   -54.0288 -54.0288 -54.0287 -54.0287 -54.0286 -54.0286 -54.0253 -54.0253
   -54.0253 -54.0245 -54.0245 -54.0245 -54.0230 -54.0230 -54.0230 -54.0229
   -54.0229 -54.0229 -54.0208 -54.0207 -54.0207 -54.0206 -54.0206 -54.0206
    -2.1834  -2.0956  -2.0956  -2.0235  -2.0235  -2.0201  -2.0139  -2.0139
    -2.0108  -2.0107  -2.0107  -2.0098  -2.0098  -2.0071  -2.0064  -1.9955
    -1.9955  -1.9934  -1.9838  -1.9838  -1.9808  -1.9455  -1.9455  -1.9401
    -1.9401  -1.9401  -1.9392  -1.9392  -1.9391  -1.9391  -1.9383  -1.9383
    -1.9368  -1.6142  -1.6142  -1.6128  -1.6094  -1.6088  -1.6088  -1.5903
    -1.5903  -1.5896  -1.5880  -1.5872  -1.5872  -1.5700  -1.5610  -1.5610
    -1.5606  -1.5606  -1.5585  -1.5445  -1.5445  -1.5392  -1.5270  -1.5235
    -1.5235  -1.5198  -1.5198  -1.5177  -1.5133  -1.5133  -1.5115  -1.5064
    -1.5064  -1.5045  -1.4870  -1.4870  -1.4834  -1.4757  -1.4717  -1.4717
    -1.4164  -1.4138  -1.4138  -1.3992  -1.3984  -1.3984  -1.3969  -1.3969
    -1.3962  -0.8139  -0.8123  -0.8123  -0.4877  -0.4860  -0.4860   0.3229
     0.3254   0.3254

          k = 0.0308 0.0308 0.0925 ( 64030 PWs)   bands (ev):

   -87.9666 -87.9596 -87.9451 -87.9451 -87.9451 -87.9451 -87.9451 -87.9450
   -87.9450 -87.9450 -87.9394 -87.9394 -87.9394 -87.9376 -87.9376 -87.9376
   -54.0492 -54.0492 -54.0492 -54.0425 -54.0425 -54.0425 -54.0294 -54.0294
   -54.0294 -54.0294 -54.0294 -54.0293 -54.0293 -54.0292 -54.0289 -54.0289
   -54.0289 -54.0289 -54.0289 -54.0289 -54.0288 -54.0288 -54.0288 -54.0288
   -54.0288 -54.0288 -54.0287 -54.0287 -54.0287 -54.0287 -54.0253 -54.0253
   -54.0252 -54.0246 -54.0246 -54.0245 -54.0230 -54.0230 -54.0229 -54.0229
   -54.0229 -54.0229 -54.0207 -54.0207 -54.0207 -54.0207 -54.0206 -54.0206
    -2.1460  -2.0930  -2.0911  -2.0356  -2.0218  -2.0196  -2.0141  -2.0124
    -2.0108  -2.0098  -2.0096  -2.0071  -2.0062  -2.0061  -2.0043  -1.9967
    -1.9922  -1.9920  -1.9814  -1.9805  -1.9729  -1.9474  -1.9473  -1.9437
    -1.9430  -1.9426  -1.9425  -1.9403  -1.9397  -1.9391  -1.9391  -1.9387
    -1.9377  -1.6131  -1.6123  -1.6096  -1.6074  -1.6066  -1.6052  -1.5890
    -1.5883  -1.5877  -1.5850  -1.5829  -1.5824  -1.5810  -1.5743  -1.5614
    -1.5600  -1.5584  -1.5548  -1.5491  -1.5436  -1.5380  -1.5353  -1.5342
    -1.5276  -1.5269  -1.5247  -1.5243  -1.5215  -1.5208  -1.5117  -1.5099
    -1.4997  -1.4980  -1.4923  -1.4741  -1.4736  -1.4643  -1.4605  -1.4587
    -1.4220  -1.4178  -1.4144  -1.4053  -1.4040  -1.4026  -1.4017  -1.3990
    -1.3982  -1.1074  -0.7719  -0.7708  -0.4479  -0.4468  -0.1322   0.1506
     0.1521   0.3477

          k = 0.0308 0.0308 0.1541 ( 64078 PWs)   bands (ev):

   -87.9666 -87.9596 -87.9451 -87.9451 -87.9451 -87.9451 -87.9451 -87.9451
   -87.9451 -87.9450 -87.9394 -87.9394 -87.9394 -87.9376 -87.9376 -87.9376
   -54.0492 -54.0492 -54.0492 -54.0425 -54.0425 -54.0425 -54.0294 -54.0294
   -54.0294 -54.0294 -54.0294 -54.0294 -54.0293 -54.0292 -54.0289 -54.0289
   -54.0289 -54.0289 -54.0289 -54.0289 -54.0288 -54.0288 -54.0288 -54.0288
   -54.0288 -54.0288 -54.0288 -54.0287 -54.0287 -54.0287 -54.0253 -54.0253
   -54.0252 -54.0246 -54.0246 -54.0245 -54.0230 -54.0230 -54.0230 -54.0230
   -54.0229 -54.0229 -54.0207 -54.0207 -54.0207 -54.0207 -54.0207 -54.0206
    -2.0879  -2.0829  -2.0736  -2.0484  -2.0261  -2.0177  -2.0174  -2.0144
    -2.0124  -2.0086  -2.0076  -2.0059  -2.0057  -1.9979  -1.9970  -1.9888
    -1.9876  -1.9831  -1.9764  -1.9760  -1.9660  -1.9529  -1.9523  -1.9507
    -1.9500  -1.9492  -1.9461  -1.9441  -1.9400  -1.9394  -1.9389  -1.9383
    -1.9369  -1.6111  -1.6096  -1.6048  -1.6022  -1.6001  -1.5985  -1.5910
    -1.5856  -1.5847  -1.5837  -1.5835  -1.5797  -1.5753  -1.5744  -1.5629
    -1.5604  -1.5582  -1.5572  -1.5543  -1.5539  -1.5491  -1.5465  -1.5462
    -1.5430  -1.5390  -1.5363  -1.5353  -1.5238  -1.5216  -1.5122  -1.5023
    -1.5018  -1.4840  -1.4776  -1.4592  -1.4586  -1.4512  -1.4461  -1.4453
    -1.4308  -1.4259  -1.4198  -1.4167  -1.4164  -1.4094  -1.4087  -1.4035
    -1.4028  -1.3662  -0.6912  -0.6902  -0.3714  -0.3702  -0.0520  -0.0507
     0.2099   0.2114

          k = 0.0308 0.0308 0.2157 ( 64122 PWs)   bands (ev):

   -87.9666 -87.9596 -87.9451 -87.9451 -87.9451 -87.9451 -87.9451 -87.9451
   -87.9451 -87.9451 -87.9394 -87.9394 -87.9394 -87.9376 -87.9376 -87.9376
   -54.0492 -54.0492 -54.0492 -54.0425 -54.0425 -54.0425 -54.0294 -54.0294
   -54.0294 -54.0294 -54.0294 -54.0294 -54.0294 -54.0293 -54.0289 -54.0289
   -54.0289 -54.0289 -54.0289 -54.0289 -54.0289 -54.0288 -54.0288 -54.0288
   -54.0288 -54.0288 -54.0288 -54.0288 -54.0288 -54.0288 -54.0253 -54.0253
   -54.0253 -54.0246 -54.0246 -54.0246 -54.0230 -54.0230 -54.0230 -54.0230
   -54.0230 -54.0230 -54.0207 -54.0207 -54.0207 -54.0207 -54.0207 -54.0207
    -2.0807  -2.0712  -2.0605  -2.0414  -2.0163  -2.0154  -2.0146  -2.0129
    -2.0073  -2.0061  -2.0055  -2.0047  -1.9892  -1.9863  -1.9854  -1.9807
    -1.9804  -1.9728  -1.9704  -1.9680  -1.9623  -1.9612  -1.9609  -1.9606
    -1.9592  -1.9555  -1.9523  -1.9507  -1.9400  -1.9396  -1.9389  -1.9384
    -1.9095  -1.6087  -1.6080  -1.6060  -1.5987  -1.5971  -1.5945  -1.5935
    -1.5903  -1.5887  -1.5777  -1.5770  -1.5758  -1.5743  -1.5725  -1.5691
    -1.5666  -1.5650  -1.5636  -1.5625  -1.5617  -1.5578  -1.5564  -1.5552
    -1.5522  -1.5495  -1.5453  -1.5420  -1.5415  -1.5374  -1.5355  -1.5199
    -1.4811  -1.4798  -1.4689  -1.4626  -1.4449  -1.4436  -1.4429  -1.4394
    -1.4387  -1.4363  -1.4328  -1.4322  -1.4321  -1.4232  -1.4185  -1.4181
    -1.4107  -1.4102  -0.5748  -0.5738  -0.2607  -0.2595  -0.2494  -0.2483
     0.0413   0.0427

          k = 0.0308 0.0308-0.2774 ( 64126 PWs)   bands (ev):

   -87.9666 -87.9596 -87.9451 -87.9451 -87.9451 -87.9451 -87.9451 -87.9451
   -87.9451 -87.9451 -87.9394 -87.9394 -87.9394 -87.9376 -87.9376 -87.9376
   -54.0492 -54.0492 -54.0492 -54.0425 -54.0425 -54.0425 -54.0294 -54.0294
   -54.0294 -54.0294 -54.0294 -54.0294 -54.0293 -54.0293 -54.0289 -54.0289
   -54.0289 -54.0289 -54.0289 -54.0289 -54.0289 -54.0289 -54.0288 -54.0288
   -54.0288 -54.0288 -54.0288 -54.0288 -54.0288 -54.0288 -54.0253 -54.0253
   -54.0253 -54.0246 -54.0246 -54.0246 -54.0230 -54.0230 -54.0230 -54.0230
   -54.0230 -54.0230 -54.0208 -54.0207 -54.0207 -54.0207 -54.0207 -54.0207
    -2.0718  -2.0711  -2.0574  -2.0564  -2.0158  -2.0148  -2.0142  -2.0134
    -2.0064  -2.0058  -2.0054  -2.0046  -1.9776  -1.9754  -1.9735  -1.9734
    -1.9711  -1.9701  -1.9695  -1.9693  -1.9638  -1.9635  -1.9632  -1.9627
    -1.9593  -1.9593  -1.9592  -1.9589  -1.9399  -1.9397  -1.9389  -1.9384
    -1.7851  -1.7847  -1.6052  -1.6040  -1.6018  -1.6003  -1.5874  -1.5864
    -1.5827  -1.5823  -1.5785  -1.5778  -1.5765  -1.5761  -1.5708  -1.5706
    -1.5663  -1.5662  -1.5659  -1.5655  -1.5632  -1.5627  -1.5547  -1.5533
    -1.5523  -1.5512  -1.5511  -1.5509  -1.5497  -1.5495  -1.5325  -1.5324
    -1.4604  -1.4593  -1.4585  -1.4573  -1.4540  -1.4534  -1.4482  -1.4472
    -1.4329  -1.4317  -1.4300  -1.4297  -1.4293  -1.4285  -1.4207  -1.4202
    -1.4200  -1.4200  -0.4263  -0.4260  -0.4251  -0.4250  -0.1208  -0.1204
    -0.1195  -0.1193

          k = 0.0308 0.0925 0.0925 ( 64005 PWs)   bands (ev):

   -87.9666 -87.9596 -87.9451 -87.9451 -87.9451 -87.9451 -87.9451 -87.9450
   -87.9450 -87.9450 -87.9394 -87.9394 -87.9394 -87.9376 -87.9376 -87.9376
   -54.0492 -54.0492 -54.0492 -54.0425 -54.0425 -54.0425 -54.0294 -54.0294
   -54.0294 -54.0294 -54.0293 -54.0293 -54.0293 -54.0292 -54.0289 -54.0289
   -54.0289 -54.0288 -54.0288 -54.0288 -54.0288 -54.0288 -54.0288 -54.0288
   -54.0288 -54.0288 -54.0288 -54.0287 -54.0287 -54.0286 -54.0253 -54.0252
   -54.0252 -54.0246 -54.0245 -54.0245 -54.0230 -54.0230 -54.0230 -54.0229
   -54.0229 -54.0229 -54.0207 -54.0207 -54.0207 -54.0206 -54.0206 -54.0206
    -2.1089  -2.0896  -2.0876  -2.0346  -2.0322  -2.0188  -2.0158  -2.0099
    -2.0090  -2.0077  -2.0061  -2.0059  -2.0052  -2.0038  -2.0022  -1.9969
    -1.9932  -1.9900  -1.9791  -1.9726  -1.9697  -1.9524  -1.9484  -1.9453
    -1.9449  -1.9441  -1.9435  -1.9429  -1.9416  -1.9407  -1.9401  -1.9392
    -1.9382  -1.6129  -1.6113  -1.6070  -1.6069  -1.6063  -1.6010  -1.5915
    -1.5909  -1.5858  -1.5852  -1.5803  -1.5798  -1.5770  -1.5745  -1.5638
    -1.5592  -1.5572  -1.5568  -1.5504  -1.5486  -1.5484  -1.5440  -1.5412
    -1.5371  -1.5347  -1.5208  -1.5175  -1.5163  -1.5153  -1.5110  -1.5069
    -1.4976  -1.4958  -1.4893  -1.4847  -1.4711  -1.4583  -1.4513  -1.4470
    -1.4300  -1.4211  -1.4140  -1.4102  -1.4084  -1.4083  -1.4058  -1.4049
    -1.3978  -1.0637  -1.0626  -0.7306  -0.4089  -0.0965  -0.0953  -0.0823
     0.1779   0.1793

          k = 0.0308 0.0925 0.1541 ( 64063 PWs)   bands (ev):

   -87.9666 -87.9596 -87.9451 -87.9451 -87.9451 -87.9451 -87.9451 -87.9451
   -87.9451 -87.9451 -87.9394 -87.9394 -87.9394 -87.9376 -87.9376 -87.9376
   -54.0492 -54.0492 -54.0492 -54.0425 -54.0425 -54.0425 -54.0294 -54.0294
   -54.0294 -54.0294 -54.0294 -54.0294 -54.0293 -54.0292 -54.0289 -54.0289
   -54.0289 -54.0289 -54.0289 -54.0289 -54.0288 -54.0288 -54.0288 -54.0288
   -54.0288 -54.0288 -54.0288 -54.0288 -54.0287 -54.0287 -54.0253 -54.0253
   -54.0252 -54.0246 -54.0246 -54.0245 -54.0230 -54.0230 -54.0230 -54.0230
   -54.0230 -54.0229 -54.0207 -54.0207 -54.0207 -54.0207 -54.0207 -54.0207
    -2.0844  -2.0797  -2.0460  -2.0378  -2.0302  -2.0229  -2.0183  -2.0148
    -2.0090  -2.0044  -2.0039  -2.0032  -2.0002  -1.9984  -1.9958  -1.9949
    -1.9867  -1.9825  -1.9750  -1.9675  -1.9632  -1.9611  -1.9525  -1.9521
    -1.9503  -1.9492  -1.9455  -1.9440  -1.9427  -1.9415  -1.9408  -1.9397
    -1.9378  -1.6123  -1.6098  -1.6053  -1.6038  -1.6021  -1.5995  -1.5926
    -1.5909  -1.5894  -1.5804  -1.5786  -1.5723  -1.5704  -1.5677  -1.5652
    -1.5647  -1.5637  -1.5619  -1.5589  -1.5566  -1.5564  -1.5506  -1.5471
    -1.5427  -1.5407  -1.5312  -1.5261  -1.5140  -1.5087  -1.5018  -1.5016
    -1.4998  -1.4976  -1.4817  -1.4716  -1.4624  -1.4495  -1.4411  -1.4395
    -1.4344  -1.4292  -1.4233  -1.4188  -1.4179  -1.4163  -1.4129  -1.4093
    -1.3999  -1.3160  -0.9789  -0.6514  -0.3337  -0.3125  -0.0252  -0.0208
     0.2320   0.2378

[...]
   -50.5112 -50.5112 -50.5111 -50.5111 -50.5111 -50.5111 -50.5107 -50.5107
   -50.5107 -50.5107 -50.5107 -50.5107 -50.5106 -50.5106 -50.5095 -50.5095
   -50.5094 -50.5091 -50.5091 -50.5091 -50.5081 -50.5081 -50.5081 -50.5080
   -50.5080 -50.5080 -50.5075 -50.5075 -50.5075 -50.5075 -50.5075 -50.5075
    -1.5320  -0.8620  -0.8620  -0.8540  -0.2629  -0.2629  -0.2554   0.2798
     0.5271   0.5271   0.5301   0.5792   0.5792   0.5839   0.6817   0.8703
     0.8703   0.8749   0.8749   0.8750   0.9151   0.9151   0.9160   0.9325
     0.9325   0.9342   0.9498   0.9498   0.9511   0.9511   0.9608   0.9608
     0.9609   0.9805   0.9805   0.9825   1.0505   1.0505   1.0506   1.0507
     1.0543   1.0562   1.0569   1.0569   1.1444   1.1463   1.1463   1.1494
     1.1497   1.1497   1.1863   1.1863   1.2691   1.2705   1.2705   1.2957
     1.2957   1.2971   1.4378   1.4378   1.4431   1.5746   1.5746   1.5767
     1.5902   1.5902   1.5910   1.6477   1.6477   1.6489   1.7431   1.7431
     1.7454   1.7516   1.7676   1.7691   1.7691   1.7745   1.7745   1.8228
     1.8228   1.8268   1.8268   1.8285   1.8290   1.8290   1.8417   1.8417
     1.8444   1.8458

          k = 0.1541 0.1541 0.2157 ( 64061 PWs)   bands (ev):

   -84.3648 -84.3618 -84.3556 -84.3556 -84.3555 -84.3555 -84.3555 -84.3555
   -84.3555 -84.3555 -84.3527 -84.3527 -84.3527 -84.3520 -84.3519 -84.3519
   -50.5185 -50.5185 -50.5185 -50.5162 -50.5162 -50.5162 -50.5113 -50.5113
   -50.5113 -50.5112 -50.5112 -50.5112 -50.5112 -50.5112 -50.5112 -50.5112
   -50.5112 -50.5111 -50.5111 -50.5111 -50.5111 -50.5110 -50.5107 -50.5107
   -50.5107 -50.5107 -50.5107 -50.5107 -50.5106 -50.5106 -50.5095 -50.5095
   -50.5094 -50.5091 -50.5091 -50.5090 -50.5081 -50.5081 -50.5080 -50.5080
   -50.5080 -50.5080 -50.5075 -50.5075 -50.5075 -50.5075 -50.5074 -50.5074
    -1.4182  -1.0807  -0.7566  -0.7512  -0.4523  -0.4472  -0.1614   0.1160
     0.5748   0.5751   0.5774   0.5940   0.5966   0.6612   0.8008   0.8691
     0.8724   0.8852   0.8853   0.8879   0.9174   0.9177   0.9207   0.9311
     0.9402   0.9422   0.9429   0.9441   0.9458   0.9501   0.9546   0.9552
     0.9555   0.9641   0.9653   0.9893   1.0022   1.0122   1.0130   1.0724
     1.0816   1.0823   1.0833   1.0900   1.1153   1.1202   1.1415   1.1417
     1.1516   1.1746   1.1757   1.1833   1.2366   1.2376   1.3114   1.3526
     1.3535   1.3567   1.3968   1.4420   1.4690   1.5213   1.5222   1.5386
     1.5953   1.5967   1.6188   1.6326   1.6339   1.6923   1.7099   1.7529
     1.7540   1.7545   1.7682   1.7694   1.7698   1.7826   1.7954   1.8094
     1.8137   1.8295   1.8325   1.8347   1.8347   1.8355   1.8397   1.8406
     1.8425   1.8430

          k = 0.1541 0.1541-0.2774 ( 64102 PWs)   bands (ev):

   -84.3648 -84.3619 -84.3556 -84.3556 -84.3556 -84.3556 -84.3556 -84.3556
   -84.3555 -84.3555 -84.3527 -84.3527 -84.3527 -84.3520 -84.3520 -84.3520
   -50.5185 -50.5185 -50.5185 -50.5162 -50.5162 -50.5162 -50.5113 -50.5113
   -50.5113 -50.5113 -50.5112 -50.5112 -50.5112 -50.5112 -50.5112 -50.5112
   -50.5112 -50.5112 -50.5111 -50.5111 -50.5111 -50.5111 -50.5107 -50.5107
   -50.5107 -50.5107 -50.5107 -50.5107 -50.5106 -50.5106 -50.5095 -50.5095
   -50.5095 -50.5091 -50.5091 -50.5091 -50.5081 -50.5081 -50.5081 -50.5081
   -50.5080 -50.5080 -50.5075 -50.5075 -50.5075 -50.5075 -50.5075 -50.5075
    -1.2681  -1.2668  -0.6194  -0.6183  -0.6143  -0.6128  -0.0348  -0.0336
     0.5948   0.5952   0.5968   0.5975   0.6235   0.6240   0.8699   0.8702
     0.9000   0.9000   0.9001   0.9001   0.9137   0.9138   0.9282   0.9283
     0.9309   0.9310   0.9338   0.9339   0.9514   0.9516   0.9562   0.9563
     0.9571   0.9573   0.9750   0.9750   0.9758   0.9758   1.0358   1.0358
     1.0957   1.0958   1.1155   1.1156   1.1158   1.1158   1.1166   1.1167
     1.1620   1.1620   1.2052   1.2053   1.2062   1.2063   1.3535   1.3536
     1.4186   1.4186   1.4273   1.4275   1.4283   1.4286   1.5029   1.5030
     1.6165   1.6166   1.6179   1.6179   1.6586   1.6590   1.7273   1.7274
     1.7622   1.7623   1.7636   1.7636   1.7916   1.7916   1.7979   1.7981
     1.8188   1.8191   1.8368   1.8369   1.8370   1.8370   1.8404   1.8406
     1.8414   1.8415

          k = 0.1541 0.2157 0.2157 ( 64105 PWs)   bands (ev):

   -84.3648 -84.3619 -84.3556 -84.3556 -84.3556 -84.3556 -84.3556 -84.3556
   -84.3555 -84.3555 -84.3527 -84.3527 -84.3527 -84.3520 -84.3520 -84.3520
   -50.5185 -50.5185 -50.5185 -50.5162 -50.5162 -50.5162 -50.5113 -50.5113
   -50.5113 -50.5113 -50.5112 -50.5112 -50.5112 -50.5112 -50.5112 -50.5112
   -50.5112 -50.5112 -50.5112 -50.5111 -50.5111 -50.5111 -50.5108 -50.5107
   -50.5107 -50.5107 -50.5107 -50.5107 -50.5106 -50.5106 -50.5095 -50.5095
   -50.5095 -50.5091 -50.5091 -50.5091 -50.5081 -50.5081 -50.5081 -50.5080
   -50.5080 -50.5080 -50.5075 -50.5075 -50.5075 -50.5075 -50.5075 -50.5075
    -1.3055  -0.9745  -0.9691  -0.6533  -0.6491  -0.3506  -0.3455  -0.0590
     0.6111   0.6121   0.6147   0.6612   0.6700   0.7729   0.7740   0.8778
     0.8829   0.8830   0.8901   0.8922   0.9107   0.9172   0.9189   0.9319
     0.9344   0.9355   0.9381   0.9459   0.9489   0.9495   0.9498   0.9513
     0.9523   0.9545   0.9716   0.9733   0.9962   1.0239   1.0446   1.0484
     1.0493   1.0841   1.0848   1.0962   1.1252   1.1309   1.1321   1.1475
     1.1488   1.1560   1.1753   1.2066   1.2069   1.2738   1.2748   1.3534
     1.4158   1.4237   1.4243   1.4726   1.4886   1.5585   1.5598   1.5715
     1.5716   1.5725   1.5759   1.6180   1.6635   1.6643   1.6852   1.7214
     1.7642   1.7756   1.7775   1.7784   1.7815   1.7821   1.8077   1.8079
     1.8088   1.8271   1.8312   1.8372   1.8374   1.8375   1.8379   1.8391
     1.8398   1.8400

          k = 0.1541 0.2157-0.2774 ( 64112 PWs)   bands (ev):

   -84.3648 -84.3619 -84.3556 -84.3556 -84.3556 -84.3556 -84.3556 -84.3556
   -84.3555 -84.3555 -84.3527 -84.3527 -84.3527 -84.3520 -84.3520 -84.3520
   -50.5185 -50.5185 -50.5185 -50.5162 -50.5162 -50.5162 -50.5113 -50.5113
   -50.5113 -50.5113 -50.5112 -50.5112 -50.5112 -50.5112 -50.5112 -50.5112
   -50.5112 -50.5112 -50.5111 -50.5111 -50.5111 -50.5111 -50.5108 -50.5108
   -50.5107 -50.5107 -50.5107 -50.5107 -50.5106 -50.5106 -50.5095 -50.5095
   -50.5094 -50.5092 -50.5091 -50.5090 -50.5081 -50.5081 -50.5081 -50.5080
   -50.5080 -50.5080 -50.5075 -50.5075 -50.5075 -50.5075 -50.5075 -50.5074
    -1.1569  -1.1556  -0.8292  -0.8279  -0.5133  -0.5120  -0.2169  -0.2156
     0.6223   0.6228   0.6428   0.6433   0.7317   0.7320   0.8805   0.8807
     0.8811   0.8811   0.8973   0.8974   0.9035   0.9037   0.9086   0.9087
     0.9232   0.9233   0.9320   0.9321   0.9461   0.9464   0.9492   0.9493
     0.9652   0.9653   0.9887   0.9887   1.0092   1.0092   1.0332   1.0332
     1.0632   1.0633   1.0870   1.0871   1.1216   1.1217   1.1507   1.1507
     1.1632   1.1632   1.1772   1.1773   1.2398   1.2398   1.3131   1.3132
     1.4715   1.4716   1.4897   1.4900   1.5001   1.5003   1.5218   1.5220
     1.5763   1.5763   1.6266   1.6269   1.6416   1.6417   1.6942   1.6942
     1.7745   1.7746   1.7807   1.7808   1.7952   1.7952   1.7960   1.7962
     1.8262   1.8266   1.8325   1.8326   1.8344   1.8346   1.8368   1.8370
     1.8390   1.8392

          k = 0.1541-0.2774-0.2774 ( 64096 PWs)   bands (ev):

   -84.3648 -84.3619 -84.3556 -84.3556 -84.3556 -84.3556 -84.3556 -84.3556
   -84.3556 -84.3556 -84.3527 -84.3527 -84.3527 -84.3520 -84.3520 -84.3520
   -50.5185 -50.5185 -50.5185 -50.5162 -50.5162 -50.5162 -50.5113 -50.5113
   -50.5112 -50.5112 -50.5112 -50.5112 -50.5112 -50.5112 -50.5112 -50.5112
   -50.5112 -50.5112 -50.5112 -50.5112 -50.5111 -50.5111 -50.5107 -50.5107
   -50.5107 -50.5107 -50.5107 -50.5107 -50.5106 -50.5106 -50.5095 -50.5095
   -50.5094 -50.5091 -50.5091 -50.5091 -50.5081 -50.5081 -50.5081 -50.5080
   -50.5080 -50.5080 -50.5075 -50.5075 -50.5075 -50.5075 -50.5075 -50.5074
    -1.0121  -1.0121  -1.0081  -1.0054  -0.3806  -0.3806  -0.3768  -0.3742
     0.6405   0.6405   0.6407   0.6416   0.8194   0.8194   0.8197   0.8199
     0.8917   0.8920   0.8924   0.8924   0.9104   0.9108   0.9128   0.9128
     0.9131   0.9131   0.9145   0.9145   0.9455   0.9459   0.9463   0.9463
     0.9957   0.9958   0.9974   0.9974   1.0264   1.0264   1.0270   1.0270
     1.0469   1.0469   1.0479   1.0479   1.1484   1.1486   1.1498   1.1498
     1.1641   1.1642   1.1655   1.1655   1.2751   1.2752   1.2761   1.2761
     1.5179   1.5179   1.5183   1.5184   1.5360   1.5362   1.5373   1.5373
     1.5576   1.5576   1.5577   1.5584   1.6674   1.6674   1.6682   1.6682
     1.7862   1.7862   1.7869   1.7872   1.7914   1.7915   1.7936   1.7936
     1.8315   1.8315   1.8325   1.8328   1.8345   1.8345   1.8353   1.8355
     1.8358   1.8365

          k = 0.2157 0.2157 0.2157 ( 64102 PWs)   bands (ev):

   -84.3648 -84.3619 -84.3556 -84.3556 -84.3556 -84.3556 -84.3556 -84.3555
   -84.3555 -84.3555 -84.3527 -84.3527 -84.3527 -84.3520 -84.3520 -84.3520
   -50.5185 -50.5185 -50.5185 -50.5162 -50.5162 -50.5162 -50.5113 -50.5113
   -50.5113 -50.5113 -50.5113 -50.5112 -50.5112 -50.5112 -50.5112 -50.5112
   -50.5112 -50.5112 -50.5111 -50.5111 -50.5111 -50.5111 -50.5108 -50.5107
   -50.5107 -50.5107 -50.5107 -50.5107 -50.5106 -50.5106 -50.5095 -50.5095
   -50.5095 -50.5091 -50.5091 -50.5091 -50.5081 -50.5081 -50.5081 -50.5081
   -50.5080 -50.5080 -50.5075 -50.5075 -50.5075 -50.5075 -50.5075 -50.5075
    -1.1937  -0.8664  -0.8664  -0.8583  -0.5512  -0.5512  -0.5433  -0.2467
     0.6857   0.6857   0.6864   0.6870   0.7584   0.7584   0.7594   0.8881
     0.8881   0.8901   0.8901   0.8902   0.9049   0.9119   0.9119   0.9136
     0.9279   0.9279   0.9297   0.9314   0.9314   0.9337   0.9337   0.9338
     0.9856   0.9856   0.9874   1.0079   1.0079   1.0565   1.0567   1.0567
     1.0960   1.0960   1.0969   1.1017   1.1020   1.1020   1.1218   1.1341
     1.1341   1.1763   1.1782   1.1782   1.2399   1.2415   1.2415   1.3140
     1.4861   1.4861   1.4866   1.5092   1.5092   1.5820   1.5820   1.5840
     1.6060   1.6063   1.6063   1.6200   1.6200   1.6217   1.6934   1.6934
     1.7842   1.7842   1.7866   1.7899   1.7913   1.7913   1.8137   1.8166
     1.8166   1.8187   1.8187   1.8323   1.8323   1.8342   1.8349   1.8358
     1.8358   1.8573

          k = 0.2157 0.2157-0.2774 ( 64066 PWs)   bands (ev):

   -84.3648 -84.3618 -84.3556 -84.3556 -84.3556 -84.3556 -84.3555 -84.3555
   -84.3555 -84.3555 -84.3527 -84.3527 -84.3527 -84.3520 -84.3520 -84.3519
   -50.5185 -50.5185 -50.5184 -50.5162 -50.5162 -50.5162 -50.5113 -50.5113
   -50.5112 -50.5112 -50.5112 -50.5112 -50.5112 -50.5112 -50.5112 -50.5112
   -50.5112 -50.5112 -50.5111 -50.5111 -50.5110 -50.5110 -50.5107 -50.5107
   -50.5107 -50.5107 -50.5107 -50.5107 -50.5106 -50.5106 -50.5095 -50.5095
   -50.5094 -50.5091 -50.5091 -50.5090 -50.5081 -50.5081 -50.5081 -50.5080
   -50.5080 -50.5080 -50.5075 -50.5075 -50.5075 -50.5075 -50.5074 -50.5074
    -1.0466  -1.0453  -0.7251  -0.7239  -0.7199  -0.7184  -0.4125  -0.4111
     0.6932   0.6935   0.7310   0.7312   0.7314   0.7317   0.8461   0.8461
     0.8883   0.8886   0.9013   0.9014   0.9014   0.9016   0.9057   0.9058
     0.9198   0.9198   0.9270   0.9272   0.9278   0.9280   0.9317   0.9319
     1.0008   1.0009   1.0243   1.0243   1.0255   1.0255   1.0517   1.0517
     1.0937   1.0937   1.1000   1.1001   1.1001   1.1002   1.1267   1.1268
     1.1492   1.1493   1.2082   1.2083   1.2093   1.2094   1.2768   1.2768
     1.5172   1.5173   1.5462   1.5463   1.5524   1.5524   1.5526   1.5526
     1.6045   1.6046   1.6059   1.6059   1.6506   1.6506   1.6599   1.6600
     1.7908   1.7909   1.7921   1.7922   1.8026   1.8026   1.8047   1.8049
     1.8260   1.8262   1.8266   1.8267   1.8313   1.8314   1.8328   1.8329
     1.8398   1.8404

          k = 0.2157-0.2774-0.2774 ( 64052 PWs)   bands (ev):

   -84.3648 -84.3618 -84.3556 -84.3556 -84.3556 -84.3556 -84.3555 -84.3555
   -84.3555 -84.3555 -84.3527 -84.3527 -84.3527 -84.3520 -84.3520 -84.3520
   -50.5185 -50.5185 -50.5185 -50.5162 -50.5162 -50.5162 -50.5113 -50.5113
   -50.5112 -50.5112 -50.5112 -50.5112 -50.5112 -50.5112 -50.5112 -50.5112
   -50.5111 -50.5111 -50.5111 -50.5111 -50.5111 -50.5111 -50.5107 -50.5107
   -50.5107 -50.5107 -50.5107 -50.5107 -50.5106 -50.5106 -50.5095 -50.5095
   -50.5094 -50.5091 -50.5091 -50.5090 -50.5081 -50.5081 -50.5081 -50.5080
   -50.5080 -50.5080 -50.5075 -50.5075 -50.5075 -50.5074 -50.5074 -50.5074
    -0.9032  -0.9032  -0.8992  -0.8966  -0.5846  -0.5846  -0.5806  -0.5779
     0.7197   0.7200   0.7200   0.7202   0.7993   0.7993   0.7993   0.7994
     0.8973   0.8976   0.8982   0.8982   0.9085   0.9089   0.9106   0.9107
     0.9113   0.9113   0.9116   0.9116   0.9261   0.9265   0.9269   0.9269
     1.0302   1.0302   1.0318   1.0318   1.0606   1.0606   1.0609   1.0609
     1.0639   1.0639   1.0640   1.0640   1.1162   1.1163   1.1177   1.1177
     1.1778   1.1780   1.1792   1.1792   1.2417   1.2419   1.2428   1.2428
     1.5594   1.5594   1.5599   1.5600   1.5670   1.5671   1.5684   1.5684
     1.6064   1.6067   1.6074   1.6074   1.6347   1.6347   1.6354   1.6355
     1.8013   1.8013   1.8018   1.8020   1.8023   1.8026   1.8044   1.8044
     1.8241   1.8241   1.8251   1.8254   1.8254   1.8256   1.8280   1.8280
     1.8615   1.8615

          k =-0.2774-0.2774-0.2774 ( 64024 PWs)   bands (ev):

   -84.3648 -84.3618 -84.3555 -84.3555 -84.3555 -84.3555 -84.3555 -84.3555
   -84.3555 -84.3555 -84.3527 -84.3527 -84.3527 -84.3519 -84.3519 -84.3519
   -50.5184 -50.5184 -50.5184 -50.5162 -50.5162 -50.5162 -50.5113 -50.5113
   -50.5113 -50.5113 -50.5113 -50.5113 -50.5113 -50.5113 -50.5113 -50.5113
   -50.5110 -50.5110 -50.5110 -50.5110 -50.5110 -50.5110 -50.5107 -50.5107
   -50.5107 -50.5107 -50.5107 -50.5107 -50.5105 -50.5105 -50.5095 -50.5095
   -50.5093 -50.5091 -50.5091 -50.5089 -50.5081 -50.5081 -50.5081 -50.5079
   -50.5079 -50.5079 -50.5075 -50.5075 -50.5075 -50.5074 -50.5074 -50.5074
    -0.7606  -0.7606  -0.7606  -0.7594  -0.7594  -0.7594  -0.7514  -0.7472
     0.7676   0.7681   0.7681   0.7681   0.7681   0.7682   0.7682   0.7682
     0.9078   0.9078   0.9082   0.9082   0.9100   0.9100   0.9100   0.9100
     0.9100   0.9100   0.9108   0.9108   0.9108   0.9112   0.9112   0.9112
     1.0701   1.0701   1.0702   1.0702   1.0713   1.0713   1.0713   1.0713
     1.0713   1.0713   1.0726   1.0726   1.0726   1.0726   1.0726   1.0726
     1.2081   1.2084   1.2105   1.2105   1.2105   1.2106   1.2106   1.2106
     1.5980   1.5980   1.5980   1.5982   1.5982   1.5982   1.5983   1.5983
     1.5984   1.5984   1.6002   1.6002   1.6002   1.6003   1.6003   1.6003
     1.8137   1.8137   1.8138   1.8138   1.8138   1.8139   1.8139   1.8139
     1.8141   1.8141   1.8165   1.8165   1.8165   1.8167   1.8167   1.8167
     1.9051   1.9051

     the Fermi energy is     1.1178 ev

!    total energy              =   -5263.16220108 Ry

     total all-electron energy =    -40723.906730 Ry
     estimated scf accuracy    <       0.00000007 Ry
     smearing contrib. (-TS)   =      -0.23564609 Ry
     internal energy E=F+TS    =   -5262.92655499 Ry

     The total energy is F=E-TS. E is the sum of the following terms:
     one-electron contribution =   -3768.23917872 Ry
     hartree contribution      =    1880.20817885 Ry
     xc contribution           =    -440.14902014 Ry
     ewald contribution        =   -1610.50834497 Ry
     one-center paw contrib.   =   -1324.23819000 Ry

     total magnetization       =    52.33 Bohr mag/cell
     absolute magnetization    =    55.58 Bohr mag/cell

     convergence has been achieved in  88 iterations

     negative rho (up, down):  0.000E+00 1.690E-03

     Forces acting on atoms (cartesian axes, Ry/au):

     atom    1 type  1   force =     0.00000000    0.00000000    0.00000000
     atom    2 type  2   force =    -0.00008872   -0.00008872   -0.00008872
     atom    3 type  1   force =     0.00000000    0.00000000    0.00000000
     atom    4 type  2   force =    -0.00008872   -0.00008872    0.00008872
     atom    5 type  1   force =     0.00000000    0.00000000    0.00000000
     atom    6 type  2   force =    -0.00008872    0.00008872   -0.00008872
     atom    7 type  1   force =     0.00000000    0.00000000    0.00000000
     atom    8 type  2   force =    -0.00008872    0.00008872    0.00008872
     atom    9 type  1   force =     0.00000000    0.00000000    0.00000000
     atom   10 type  2   force =     0.00008872   -0.00008872   -0.00008872
     atom   11 type  1   force =     0.00000000    0.00000000    0.00000000
     atom   12 type  2   force =     0.00008872   -0.00008872    0.00008872
     atom   13 type  1   force =     0.00000000    0.00000000    0.00000000
     atom   14 type  2   force =     0.00008872    0.00008872   -0.00008872
     atom   15 type  1   force =     0.00000000    0.00000000    0.00000000
     atom   16 type  2   force =     0.00008872    0.00008872    0.00008872

     Total force =     0.000435     Total SCF correction =     0.000104
     SCF correction compared to forces is large: reduce conv_thr to get better values


     Computing stress (Cartesian axis) and pressure


     negative rho (up, down):  0.000E+00 1.690E-03
          total   stress  (Ry/bohr**3)                   (kbar)     P=      -57.46
  -0.00039064   0.00000000   0.00000000          -57.46        0.00        0.00
   0.00000000  -0.00039064   0.00000000            0.00      -57.46        0.00
   0.00000000   0.00000000  -0.00039064            0.00        0.00      -57.46


     Writing output data file /scratch/XzBfwbJNNJDtFxaT.save/
 
     init_run     :     13.39s CPU     13.90s WALL (       1 calls)
     electrons    :   3951.05s CPU   3999.35s WALL (       1 calls)
     forces       :      4.64s CPU      4.73s WALL (       1 calls)
     stress       :     33.78s CPU     34.06s WALL (       1 calls)

     Called by init_run:
     wfcinit      :     11.87s CPU     12.24s WALL (       1 calls)
     potinit      :      0.24s CPU      0.28s WALL (       1 calls)
     hinit0       :      0.60s CPU      0.61s WALL (       1 calls)

     Called by electrons:
     c_bands      :   3482.88s CPU   3518.97s WALL (      88 calls)
     sum_band     :    441.54s CPU    450.54s WALL (      88 calls)
     v_of_rho     :      4.63s CPU      4.87s WALL (      89 calls)
     newd         :      8.74s CPU     11.30s WALL (      89 calls)
     PAW_pot      :     11.07s CPU     11.37s WALL (      89 calls)
     mix_rho      :      1.65s CPU      1.74s WALL (      88 calls)

     Called by c_bands:
     init_us_2    :     26.19s CPU     26.57s WALL (   12530 calls)
     cegterg      :   3388.21s CPU   3422.49s WALL (    6258 calls)

     Called by *egterg:
     cdiaghg      :    405.85s CPU    408.32s WALL (   44212 calls)
     h_psi        :   1889.93s CPU   1913.60s WALL (   44282 calls)
     s_psi        :    129.07s CPU    130.14s WALL (   44282 calls)
     g_psi        :      6.62s CPU      6.74s WALL (   37954 calls)

     Called by h_psi:
     h_psi:calbec :    189.28s CPU    190.89s WALL (   44282 calls)
     vloc_psi     :   1560.44s CPU   1581.31s WALL (   44282 calls)
     add_vuspsi   :    125.29s CPU    126.36s WALL (   44282 calls)

     General routines
     calbec       :    255.32s CPU    257.44s WALL (   50792 calls)
     fft          :      3.73s CPU      3.80s WALL (    2263 calls)
     ffts         :      0.36s CPU      0.37s WALL (     354 calls)
     fftw         :   1812.96s CPU   1836.72s WALL ( 5743960 calls)
     interpolate  :      0.48s CPU      0.49s WALL (     178 calls)
 
     Parallel routines
     fft_scatt_xy :    149.07s CPU    151.03s WALL ( 5746577 calls)
     fft_scatt_yz :   1312.18s CPU   1329.85s WALL ( 5746577 calls)
 
     PWSCF        :      1h 6m CPU      1h 7m WALL

 
   This run was terminated on:  13:48:40  20Mar2022            

=------------------------------------------------------------------------------=
   JOB DONE.
=------------------------------------------------------------------------------=
