
     Program PWSCF v.6.7MaX starts on 17Jan2022 at 13:54:16 

     This program is part of the open-source Quantum ESPRESSO suite
     for quantum simulation of materials; please cite
         "P. Giannozzi et al., J. Phys.:Condens. Matter 21 395502 (2009);
         "P. Giannozzi et al., J. Phys.:Condens. Matter 29 465901 (2017);
          URL http://www.quantum-espresso.org", 
     in publications or presentations arising from this work. More details at
     http://www.quantum-espresso.org/quote

     Parallel version (MPI & OpenMP), running on      72 processor cores
     Number of MPI processes:                72
     Threads/MPI process:                     1

     MPI processes distributed on     1 nodes
     R & G space division:  proc/nbgrp/npool/nimage =      72
     Reading input from bcc_6.in
Warning: card &CELL ignored
Warning: card CELL_DYNAMICS = 'BFGS', ignored
Warning: card CELL_FACTOR = 2.0, ignored
Warning: card PRESS = 0.0, ignored
Warning: card / ignored

     Current dimensions of program PWSCF are:
     Max number of different atomic species (ntypx) = 10
     Max number of k-points (npk) =  40000
     Max angular momentum in pseudopotentials (lmaxx) =  3
     file Fe.pbe-spn-kjpaw_psl.1.0.0.UPF: wavefunction(s)  3P 3D renormalized
     file Fe.pbe-spn-kjpaw_psl.1.0.0.UPF: wavefunction(s)  3P 3D renormalized

     Subspace diagonalization in iterative solution of the eigenvalue problem:
     one sub-group per band group will be used
     ELPA distributed-memory algorithm (size of sub-group:  8*  8 procs)

     Found symmetry operation: I + (  0.0000  0.0000 -0.5000)
     This is a supercell, fractional translations are disabled
     Message from routine setup:
     using ibrav=0 with symmetry is DISCOURAGED, use correct ibrav instead
 
     Parallelization info
     --------------------
     sticks:   dense  smooth     PW     G-vecs:    dense   smooth      PW
     Min          58      38     10                 2846     1526     222
     Max          59      39     11                 2851     1531     229
     Sum        4197    2769    777               205021   110003   16279
 


     bravais-lattice index     =            0
     lattice parameter (alat)  =      10.2690  a.u.
     unit-cell volume          =    1360.1616 (a.u.)^3
     number of atoms/cell      =           16
     number of atomic types    =            2
     number of electrons       =       256.00
     number of Kohn-Sham states=          154
     kinetic-energy cutoff     =      71.0000  Ry
     charge density cutoff     =     430.0000  Ry
     scf convergence threshold =      1.0E-07
     mixing beta               =       0.1000
     number of iterations used =           10  local-TF  mixing
     Exchange-correlation= SLA  PW   PBX  PBC
                           (   1   4   3   4   0   0   0)

     celldm(1)=  10.269041  celldm(2)=   0.000000  celldm(3)=   0.000000
     celldm(4)=   0.000000  celldm(5)=   0.000000  celldm(6)=   0.000000

     crystal axes: (cart. coord. in units of alat)
               a(1) = (   1.078947   0.000000   0.000000 )  
               a(2) = (   0.000000   1.078947   0.000000 )  
               a(3) = (   0.000000   0.000000   1.078947 )  

     reciprocal axes: (cart. coord. in units 2 pi/alat)
               b(1) = (  0.926829  0.000000  0.000000 )  
               b(2) = (  0.000000  0.926829  0.000000 )  
               b(3) = (  0.000000  0.000000  0.926829 )  


     PseudoPot. # 1 for Fe read from file:
     /rds/homes/b/bxp912/pp/Fe.pbe-spn-kjpaw_psl.1.0.0.UPF
     MD5 check sum: 42f43b795421b414b0dc916aa790dbcb
     Pseudo is Projector augmented-wave + core cor, Zval = 16.0
     Generated using &quot;atomic&quot; code by A. Dal Corso  v.6.3
     Shape of augmentation charge: PSQ
     Using radial grid of 1191 points,  6 beta functions with: 
                l(1) =   0
                l(2) =   0
                l(3) =   1
                l(4) =   1
                l(5) =   2
                l(6) =   2
     Q(r) pseudized with 0 coefficients 


     PseudoPot. # 2 for Fe read from file:
     /rds/homes/b/bxp912/pp/Fe.pbe-spn-kjpaw_psl.1.0.0.UPF
     MD5 check sum: 42f43b795421b414b0dc916aa790dbcb
     Pseudo is Projector augmented-wave + core cor, Zval = 16.0
     Generated using &quot;atomic&quot; code by A. Dal Corso  v.6.3
     Shape of augmentation charge: PSQ
     Using radial grid of 1191 points,  6 beta functions with: 
                l(1) =   0
                l(2) =   0
                l(3) =   1
                l(4) =   1
                l(5) =   2
                l(6) =   2
     Q(r) pseudized with 0 coefficients 


     atomic species   valence    mass     pseudopotential
        Fe1           16.00    55.84500     Fe( 1.00)
        Fe2           16.00    55.84500     Fe( 1.00)

     Starting magnetic structure 
     atomic species   magnetization
        Fe1          0.100
        Fe2          0.100

     48 Sym. Ops., with inversion, found



   Cartesian axes

     site n.     atom                  positions (alat units)
         1           Fe1 tau(   1) = (   0.0000000   0.0000000   0.0000000  )
         2           Fe2 tau(   2) = (   0.2697368   0.2697368   0.2697368  )
         3           Fe1 tau(   3) = (   0.0000000   0.0000000   0.5394737  )
         4           Fe2 tau(   4) = (   0.2697368   0.2697368   0.8092105  )
         5           Fe1 tau(   5) = (   0.0000000   0.5394737   0.0000000  )
         6           Fe2 tau(   6) = (   0.2697368   0.8092105   0.2697368  )
         7           Fe1 tau(   7) = (   0.0000000   0.5394737   0.5394737  )
         8           Fe2 tau(   8) = (   0.2697368   0.8092105   0.8092105  )
         9           Fe1 tau(   9) = (   0.5394737   0.0000000   0.0000000  )
        10           Fe2 tau(  10) = (   0.8092105   0.2697368   0.2697368  )
        11           Fe1 tau(  11) = (   0.5394737   0.0000000   0.5394737  )
        12           Fe2 tau(  12) = (   0.8092105   0.2697368   0.8092105  )
        13           Fe1 tau(  13) = (   0.5394737   0.5394737   0.0000000  )
        14           Fe2 tau(  14) = (   0.8092105   0.8092105   0.2697368  )
        15           Fe1 tau(  15) = (   0.5394737   0.5394737   0.5394737  )
        16           Fe2 tau(  16) = (   0.8092105   0.8092105   0.8092105  )

     number of k points=    35  Marzari-Vanderbilt smearing, width (Ry)=  0.0400
                       cart. coord. in units 2pi/alat
        k(    1) = (   0.0514905   0.0514905   0.0514905), wk =   0.0109739
        k(    2) = (   0.0514905   0.0514905   0.1544715), wk =   0.0329218
        k(    3) = (   0.0514905   0.0514905   0.2574526), wk =   0.0329218
        k(    4) = (   0.0514905   0.0514905   0.3604336), wk =   0.0329218
        k(    5) = (   0.0514905   0.0514905  -0.4634146), wk =   0.0164609
        k(    6) = (   0.0514905   0.1544715   0.1544715), wk =   0.0329218
        k(    7) = (   0.0514905   0.1544715   0.2574526), wk =   0.0658436
        k(    8) = (   0.0514905   0.1544715   0.3604336), wk =   0.0658436
        k(    9) = (   0.0514905   0.1544715  -0.4634146), wk =   0.0329218
        k(   10) = (   0.0514905   0.2574526   0.2574526), wk =   0.0329218
        k(   11) = (   0.0514905   0.2574526   0.3604336), wk =   0.0658436
        k(   12) = (   0.0514905   0.2574526  -0.4634146), wk =   0.0329218
        k(   13) = (   0.0514905   0.3604336   0.3604336), wk =   0.0329218
        k(   14) = (   0.0514905   0.3604336  -0.4634146), wk =   0.0329218
        k(   15) = (   0.0514905  -0.4634146  -0.4634146), wk =   0.0082305
        k(   16) = (   0.1544715   0.1544715   0.1544715), wk =   0.0109739
        k(   17) = (   0.1544715   0.1544715   0.2574526), wk =   0.0329218
        k(   18) = (   0.1544715   0.1544715   0.3604336), wk =   0.0329218
        k(   19) = (   0.1544715   0.1544715  -0.4634146), wk =   0.0164609
        k(   20) = (   0.1544715   0.2574526   0.2574526), wk =   0.0329218
        k(   21) = (   0.1544715   0.2574526   0.3604336), wk =   0.0658436
        k(   22) = (   0.1544715   0.2574526  -0.4634146), wk =   0.0329218
        k(   23) = (   0.1544715   0.3604336   0.3604336), wk =   0.0329218
        k(   24) = (   0.1544715   0.3604336  -0.4634146), wk =   0.0329218
        k(   25) = (   0.1544715  -0.4634146  -0.4634146), wk =   0.0082305
        k(   26) = (   0.2574526   0.2574526   0.2574526), wk =   0.0109739
        k(   27) = (   0.2574526   0.2574526   0.3604336), wk =   0.0329218
        k(   28) = (   0.2574526   0.2574526  -0.4634146), wk =   0.0164609
        k(   29) = (   0.2574526   0.3604336   0.3604336), wk =   0.0329218
        k(   30) = (   0.2574526   0.3604336  -0.4634146), wk =   0.0329218
        k(   31) = (   0.2574526  -0.4634146  -0.4634146), wk =   0.0082305
        k(   32) = (   0.3604336   0.3604336   0.3604336), wk =   0.0109739
        k(   33) = (   0.3604336   0.3604336  -0.4634146), wk =   0.0164609
        k(   34) = (   0.3604336  -0.4634146  -0.4634146), wk =   0.0082305
        k(   35) = (  -0.4634146  -0.4634146  -0.4634146), wk =   0.0013717

     Dense  grid:   205021 G-vectors     FFT dimensions: (  75,  75,  75)

     Smooth grid:   110003 G-vectors     FFT dimensions: (  60,  60,  60)

     Estimated max dynamical RAM per process >      48.69 MB

     Estimated total dynamical RAM >       3.42 GB

     Check: negative core charge=   -0.000005
     Generating pointlists ...
     new r_m :   0.1927 (alat units)  1.9790 (a.u.) for type    1
     new r_m :   0.1927 (alat units)  1.9790 (a.u.) for type    2

     Initial potential from superposition of free atoms

     starting charge  255.99300, renormalised to  256.00000
     Starting wfcs are  160 randomized atomic wfcs
     Checking if some PAW data can be deallocated... 

     total cpu time spent up to now is        7.5 secs

     Self-consistent Calculation

     iteration #  1     ecut=    71.00 Ry     beta= 0.10
     Davidson diagonalization with overlap
     ethr =  1.00E-02,  avg # of iterations =  3.3

     Threshold (ethr) on eigenvalues was too large:
     Diagonalizing with lowered threshold

     Davidson diagonalization with overlap
     ethr =  8.43E-05,  avg # of iterations =  6.3

     total cpu time spent up to now is       39.4 secs

     total energy              =   -5267.82665230 Ry
     estimated scf accuracy    <       0.43938325 Ry

     total magnetization       =    30.03 Bohr mag/cell
     absolute magnetization    =    30.21 Bohr mag/cell

     iteration #  2     ecut=    71.00 Ry     beta= 0.10
     Davidson diagonalization with overlap
     ethr =  1.72E-04,  avg # of iterations =  1.0

     total cpu time spent up to now is       49.2 secs

     total energy              =   -5267.88776582 Ry
     estimated scf accuracy    <       0.35245925 Ry

     total magnetization       =    30.54 Bohr mag/cell
     absolute magnetization    =    30.78 Bohr mag/cell

     iteration #  3     ecut=    71.00 Ry     beta= 0.10
     Davidson diagonalization with overlap
     ethr =  1.38E-04,  avg # of iterations =  3.3

     total cpu time spent up to now is       62.8 secs

     total energy              =   -5267.95762305 Ry
     estimated scf accuracy    <       0.11863832 Ry

     total magnetization       =    33.49 Bohr mag/cell
     absolute magnetization    =    34.39 Bohr mag/cell

     iteration #  4     ecut=    71.00 Ry     beta= 0.10
     Davidson diagonalization with overlap
     ethr =  4.63E-05,  avg # of iterations =  1.4

     negative rho (up, down):  0.000E+00 8.166E-05

     total cpu time spent up to now is       73.2 secs

     total energy              =   -5268.04737019 Ry
     estimated scf accuracy    <       0.09807875 Ry

     total magnetization       =    33.07 Bohr mag/cell
     absolute magnetization    =    33.93 Bohr mag/cell

     iteration #  5     ecut=    71.00 Ry     beta= 0.10
     Davidson diagonalization with overlap
     ethr =  3.83E-05,  avg # of iterations =  5.2

     negative rho (up, down):  0.000E+00 8.151E-04

     total cpu time spent up to now is       92.2 secs

     total energy              =   -5268.06125894 Ry
     estimated scf accuracy    <       0.33682724 Ry

     total magnetization       =    35.25 Bohr mag/cell
     absolute magnetization    =    37.37 Bohr mag/cell

     iteration #  6     ecut=    71.00 Ry     beta= 0.10
     Davidson diagonalization with overlap
     ethr =  3.83E-05,  avg # of iterations =  4.2

     negative rho (up, down):  0.000E+00 3.644E-04

     total cpu time spent up to now is      106.8 secs

     total energy              =   -5268.09603106 Ry
     estimated scf accuracy    <       0.03007767 Ry

     total magnetization       =    36.41 Bohr mag/cell
     absolute magnetization    =    38.79 Bohr mag/cell

     iteration #  7     ecut=    71.00 Ry     beta= 0.10
     Davidson diagonalization with overlap
     ethr =  1.17E-05,  avg # of iterations =  2.6

     negative rho (up, down):  0.000E+00 6.223E-04

     total cpu time spent up to now is      118.2 secs

     total energy              =   -5268.10037895 Ry
     estimated scf accuracy    <       0.01723957 Ry

     total magnetization       =    36.31 Bohr mag/cell
     absolute magnetization    =    38.56 Bohr mag/cell

     iteration #  8     ecut=    71.00 Ry     beta= 0.10
     Davidson diagonalization with overlap
     ethr =  6.73E-06,  avg # of iterations =  1.9

     negative rho (up, down):  0.000E+00 7.034E-04

     total cpu time spent up to now is      129.3 secs

     total energy              =   -5268.09855747 Ry
     estimated scf accuracy    <       0.01372432 Ry

     total magnetization       =    37.15 Bohr mag/cell
     absolute magnetization    =    39.45 Bohr mag/cell

     iteration #  9     ecut=    71.00 Ry     beta= 0.10
     Davidson diagonalization with overlap
     ethr =  5.36E-06,  avg # of iterations =  3.0

     negative rho (up, down):  0.000E+00 8.387E-04

     total cpu time spent up to now is      142.4 secs

     total energy              =   -5268.10154643 Ry
     estimated scf accuracy    <       0.00164651 Ry

     total magnetization       =    37.55 Bohr mag/cell
     absolute magnetization    =    39.88 Bohr mag/cell

     iteration # 10     ecut=    71.00 Ry     beta= 0.10
     Davidson diagonalization with overlap
     ethr =  6.43E-07,  avg # of iterations =  2.8

     negative rho (up, down):  0.000E+00 1.797E-04

     total cpu time spent up to now is      154.5 secs

     total energy              =   -5268.09917704 Ry
     estimated scf accuracy    <       0.00133938 Ry

     total magnetization       =    37.84 Bohr mag/cell
     absolute magnetization    =    40.21 Bohr mag/cell

     iteration # 11     ecut=    71.00 Ry     beta= 0.10
     Davidson diagonalization with overlap
     ethr =  5.23E-07,  avg # of iterations =  4.7

     negative rho (up, down):  0.000E+00 5.335E-04

     total cpu time spent up to now is      173.0 secs

     total energy              =   -5268.09759506 Ry
     estimated scf accuracy    <       0.01214741 Ry

     total magnetization       =    37.18 Bohr mag/cell
     absolute magnetization    =    39.35 Bohr mag/cell

     iteration # 12     ecut=    71.00 Ry     beta= 0.10
     Davidson diagonalization with overlap
     ethr =  5.23E-07,  avg # of iterations =  5.3

     negative rho (up, down):  0.000E+00 5.888E-04

     total cpu time spent up to now is      191.4 secs

     total energy              =   -5268.10434239 Ry
     estimated scf accuracy    <       0.00037462 Ry

     total magnetization       =    38.69 Bohr mag/cell
     absolute magnetization    =    41.05 Bohr mag/cell

     iteration # 13     ecut=    71.00 Ry     beta= 0.10
     Davidson diagonalization with overlap
     ethr =  1.46E-07,  avg # of iterations =  2.7

     negative rho (up, down):  0.000E+00 7.496E-04

     total cpu time spent up to now is      203.9 secs

     total energy              =   -5268.10450090 Ry
     estimated scf accuracy    <       0.00008875 Ry

     total magnetization       =    38.93 Bohr mag/cell
     absolute magnetization    =    41.30 Bohr mag/cell

     iteration # 14     ecut=    71.00 Ry     beta= 0.10
     Davidson diagonalization with overlap
     ethr =  3.47E-08,  avg # of iterations =  4.5

     negative rho (up, down):  0.000E+00 7.961E-04

     total cpu time spent up to now is      221.5 secs

     total energy              =   -5268.10450690 Ry
     estimated scf accuracy    <       0.00021497 Ry

     total magnetization       =    39.10 Bohr mag/cell
     absolute magnetization    =    41.48 Bohr mag/cell

     iteration # 15     ecut=    71.00 Ry     beta= 0.10
     Davidson diagonalization with overlap
     ethr =  3.47E-08,  avg # of iterations =  5.1

     negative rho (up, down):  0.000E+00 8.612E-04

     total cpu time spent up to now is      240.8 secs

     total energy              =   -5268.10456070 Ry
     estimated scf accuracy    <       0.00011663 Ry

     total magnetization       =    39.03 Bohr mag/cell
     absolute magnetization    =    41.39 Bohr mag/cell

     iteration # 16     ecut=    71.00 Ry     beta= 0.10
     Davidson diagonalization with overlap
     ethr =  3.47E-08,  avg # of iterations =  2.5

     negative rho (up, down):  0.000E+00 8.511E-04

     total cpu time spent up to now is      253.3 secs

     total energy              =   -5268.10460082 Ry
     estimated scf accuracy    <       0.00000137 Ry

     total magnetization       =    39.14 Bohr mag/cell
     absolute magnetization    =    41.51 Bohr mag/cell

     iteration # 17     ecut=    71.00 Ry     beta= 0.10
     Davidson diagonalization with overlap
     ethr =  5.36E-10,  avg # of iterations =  4.9

     negative rho (up, down):  0.000E+00 8.505E-04

     total cpu time spent up to now is      272.3 secs

     total energy              =   -5268.10460197 Ry
     estimated scf accuracy    <       0.00000267 Ry

     total magnetization       =    39.13 Bohr mag/cell
     absolute magnetization    =    41.49 Bohr mag/cell

     iteration # 18     ecut=    71.00 Ry     beta= 0.10
     Davidson diagonalization with overlap
     ethr =  5.36E-10,  avg # of iterations =  5.4

     negative rho (up, down):  0.000E+00 8.587E-04

     total cpu time spent up to now is      292.0 secs

     total energy              =   -5268.10460229 Ry
     estimated scf accuracy    <       0.00000439 Ry

     total magnetization       =    39.13 Bohr mag/cell
     absolute magnetization    =    41.50 Bohr mag/cell

     iteration # 19     ecut=    71.00 Ry     beta= 0.10
     Davidson diagonalization with overlap
     ethr =  5.36E-10,  avg # of iterations =  4.0

     negative rho (up, down):  0.000E+00 8.609E-04
 
     Magnetic moment per site:
     atom:    1    charge:   14.4744    magn:    2.5115    constr:    0.0000
     atom:    2    charge:   14.4743    magn:    2.5117    constr:    0.0000
     atom:    3    charge:   14.4741    magn:    2.5117    constr:    0.0000
     atom:    4    charge:   14.4743    magn:    2.5117    constr:    0.0000
     atom:    5    charge:   14.4741    magn:    2.5117    constr:    0.0000
     atom:    6    charge:   14.4743    magn:    2.5117    constr:    0.0000
     atom:    7    charge:   14.4742    magn:    2.5117    constr:    0.0000
     atom:    8    charge:   14.4743    magn:    2.5117    constr:    0.0000
     atom:    9    charge:   14.4741    magn:    2.5117    constr:    0.0000
     atom:   10    charge:   14.4743    magn:    2.5117    constr:    0.0000
     atom:   11    charge:   14.4742    magn:    2.5117    constr:    0.0000
     atom:   12    charge:   14.4743    magn:    2.5117    constr:    0.0000
     atom:   13    charge:   14.4742    magn:    2.5117    constr:    0.0000
     atom:   14    charge:   14.4743    magn:    2.5117    constr:    0.0000
     atom:   15    charge:   14.4739    magn:    2.5116    constr:    0.0000
     atom:   16    charge:   14.4743    magn:    2.5117    constr:    0.0000

     total cpu time spent up to now is      308.0 secs

     End of self-consistent calculation

 ------ SPIN UP ------------


          k = 0.0515 0.0515 0.0515 ( 13721 PWs)   bands (ev):

   -71.9833 -71.9403 -71.9403 -71.9403 -71.9337 -71.9337 -71.9337 -71.9330
   -71.9330 -71.9330 -71.9327 -71.9327 -71.9327 -71.9304 -71.9303 -71.8960
   -38.1324 -38.1324 -38.1324 -38.1312 -38.1312 -38.1311 -38.0576 -38.0576
   -38.0543 -38.0119 -38.0097 -38.0097 -38.0097 -38.0000 -38.0000 -37.9914
   -37.9914 -37.9914 -37.9751 -37.9751 -37.9623 -37.9593 -37.9593 -37.9593
   -37.9531 -37.9531 -37.9531 -37.9471 -37.9471 -37.9471 -37.9455 -37.9455
   -37.9455 -37.9411 -37.9411 -37.9411 -37.9351 -37.9351 -37.9351 -37.8523
   -37.8493 -37.8493 -37.8493 -37.8490 -37.8490 -37.8478 -37.8478 -37.8478
     8.1868  11.5398  11.5398  11.5398  11.6150  11.6150  11.6150  11.6342
    11.6342  11.6342  11.7538  11.7538  11.9474  11.9474  11.9475  12.9839
    12.9870  12.9871  12.9871  12.9975  12.9975  12.9976  13.0559  13.0559
    13.1763  13.1763  13.1850  13.1850  13.1850  13.2220  13.4580  13.4580
    13.4580  13.8990  13.8990  13.9328  14.1821  14.1821  14.1822  14.2477
    14.2478  14.2478  14.3244  14.3244  14.3244  14.3910  14.3910  14.3910
    14.8966  14.8967  14.8967  14.9384  14.9384  14.9825  14.9825  14.9825
    14.9845  14.9845  14.9845  14.9907  14.9907  14.9907  15.0774  15.0774
    15.0775  15.0975  15.0975  15.0975  15.1272  15.1272  15.1280  15.1280
    15.8455  15.8455  15.8455  15.9340  15.9864  15.9864  16.0068  16.0068
    16.0069  16.0926  16.0926  16.0926  16.3491  16.3491  16.3491  16.6563
    16.6563  16.6563

          k = 0.0515 0.0515 0.1545 ( 13703 PWs)   bands (ev):

   -71.9818 -71.9481 -71.9401 -71.9400 -71.9346 -71.9345 -71.9335 -71.9329
   -71.9326 -71.9326 -71.9325 -71.9325 -71.9306 -71.9304 -71.9254 -71.8971
   -38.1287 -38.1287 -38.1281 -38.1268 -38.1243 -38.1243 -38.0589 -38.0542
   -38.0491 -38.0303 -38.0261 -38.0261 -38.0250 -38.0245 -38.0086 -38.0086
   -37.9919 -37.9782 -37.9775 -37.9713 -37.9708 -37.9591 -37.9591 -37.9504
   -37.9499 -37.9489 -37.9488 -37.9479 -37.9442 -37.9442 -37.9435 -37.9413
   -37.9413 -37.9378 -37.9378 -37.9233 -37.9207 -37.9207 -37.9177 -37.8598
   -37.8535 -37.8535 -37.8531 -37.8522 -37.8519 -37.8503 -37.8492 -37.8492
     8.3050  11.0067  11.5868  11.5868  11.6246  11.6246  11.6832  11.6832
    11.6935  11.7115  11.8008  11.8013  11.9816  11.9816  12.1857  12.8951
    12.9136  12.9770  12.9771  12.9864  12.9963  13.0235  13.0235  13.0550
    13.0551  13.0846  13.1673  13.1673  13.3409  13.3434  13.4124  13.4124
    13.7157  13.8823  13.8973  13.9789  14.0244  14.0244  14.0686  14.1496
    14.1583  14.1583  14.3483  14.3484  14.4488  14.4488  14.4977  14.5708
    14.6951  14.6951  14.7193  14.8889  14.8889  14.8916  14.9472  14.9528
    14.9528  14.9579  14.9956  14.9994  15.0226  15.0226  15.0623  15.0623
    15.0992  15.1227  15.1245  15.1253  15.1278  15.2377  15.2377  15.2566
    15.4694  15.5307  15.6303  15.8181  15.8680  15.8680  15.8956  15.9238
    15.9238  15.9809  16.1145  16.1145  16.4084  16.4084  16.4786  16.4786
    17.0145  17.0145

          k = 0.0515 0.0515 0.2575 ( 13714 PWs)   bands (ev):

   -71.9788 -71.9556 -71.9395 -71.9394 -71.9355 -71.9355 -71.9332 -71.9325
   -71.9325 -71.9325 -71.9323 -71.9322 -71.9310 -71.9308 -71.9186 -71.8994
   -38.1199 -38.1199 -38.1193 -38.1182 -38.1124 -38.1124 -38.0587 -38.0511
   -38.0484 -38.0476 -38.0474 -38.0474 -38.0416 -38.0371 -38.0311 -38.0311
   -37.9950 -37.9884 -37.9853 -37.9763 -37.9582 -37.9582 -37.9548 -37.9525
   -37.9509 -37.9509 -37.9497 -37.9431 -37.9431 -37.9414 -37.9414 -37.9271
   -37.9236 -37.9195 -37.9195 -37.9065 -37.9032 -37.9032 -37.9013 -37.8713
   -37.8614 -37.8613 -37.8608 -37.8601 -37.8580 -37.8550 -37.8538 -37.8538
     8.5387  10.4204  11.6562  11.6562  11.6572  11.6572  11.7588  11.7588
    11.8445  11.8599  11.8898  11.8936  12.0170  12.0170  12.2645  12.6541
    12.7713  12.8134  12.9333  12.9590  12.9670  12.9772  13.1053  13.1053
    13.1572  13.1572  13.1881  13.1881  13.3966  13.3966  13.5485  13.5595
    13.8129  13.8129  13.8743  13.8971  13.9002  13.9339  13.9339  13.9839
    14.0482  14.1432  14.3234  14.3234  14.5040  14.5040  14.5263  14.5263
    14.5446  14.5446  14.5505  14.7016  14.7827  14.7997  14.8038  14.9013
    14.9013  14.9552  14.9701  14.9701  14.9959  15.0160  15.0363  15.1026
    15.1117  15.1134  15.1221  15.1274  15.2757  15.2757  15.2895  15.3377
    15.4284  15.4451  15.4451  15.6411  15.7291  15.8668  15.8668  15.9146
    15.9146  15.9304  16.0696  16.0696  16.3351  16.3351  16.5195  16.5195
    17.0442  17.0442

          k = 0.0515 0.0515 0.3604 ( 13740 PWs)   bands (ev):

   -71.9745 -71.9627 -71.9387 -71.9386 -71.9366 -71.9366 -71.9327 -71.9324
   -71.9323 -71.9322 -71.9322 -71.9321 -71.9316 -71.9312 -71.9124 -71.9027
   -38.1066 -38.1065 -38.1065 -38.1059 -38.0963 -38.0963 -38.0717 -38.0705
   -38.0691 -38.0691 -38.0564 -38.0546 -38.0546 -38.0463 -38.0380 -38.0313
   -38.0113 -38.0043 -37.9777 -37.9718 -37.9619 -37.9588 -37.9566 -37.9566
   -37.9530 -37.9530 -37.9423 -37.9423 -37.9416 -37.9415 -37.9278 -37.9062
   -37.9041 -37.9017 -37.9017 -37.8913 -37.8874 -37.8871 -37.8870 -37.8864
   -37.8723 -37.8723 -37.8722 -37.8718 -37.8668 -37.8630 -37.8618 -37.8618
     8.8813   9.8445  11.6962  11.6962  11.7118  11.7118  11.8519  11.8519
    12.0067  12.0083  12.0083  12.0297  12.0549  12.0661  12.2293  12.4157
    12.5607  12.5695  12.9173  12.9321  12.9385  12.9452  13.2285  13.2285
    13.2994  13.2994  13.3130  13.3130  13.4676  13.4676  13.6217  13.6217
    13.7097  13.7097  13.8174  13.8264  13.8763  13.9004  13.9263  13.9269
    13.9362  13.9362  14.1039  14.1040  14.1412  14.3011  14.3952  14.4904
    14.5281  14.6495  14.6495  14.6620  14.6620  14.6657  14.8325  14.8325
    14.9003  14.9003  14.9320  15.0185  15.0419  15.0459  15.0498  15.0939
    15.0952  15.1072  15.1175  15.1291  15.1684  15.2115  15.4202  15.4819
    15.4820  15.5112  15.5872  15.6483  15.6483  15.7850  15.7850  15.8438
    15.9703  15.9703  15.9871  15.9871  16.2044  16.2045  16.6670  16.6670
    16.9666  16.9666

          k = 0.0515 0.0515-0.4634 ( 13740 PWs)   bands (ev):

   -71.9691 -71.9691 -71.9377 -71.9377 -71.9376 -71.9376 -71.9322 -71.9322
   -71.9322 -71.9322 -71.9321 -71.9321 -71.9317 -71.9317 -71.9071 -71.9071
   -38.0901 -38.0900 -38.0900 -38.0900 -38.0892 -38.0892 -38.0892 -38.0892
   -38.0767 -38.0767 -38.0766 -38.0766 -38.0524 -38.0523 -38.0259 -38.0259
   -38.0187 -38.0187 -37.9700 -37.9699 -37.9656 -37.9655 -37.9549 -37.9549
   -37.9549 -37.9549 -37.9418 -37.9418 -37.9418 -37.9418 -37.9066 -37.9065
   -37.8874 -37.8874 -37.8868 -37.8868 -37.8858 -37.8858 -37.8857 -37.8857
   -37.8780 -37.8780 -37.8737 -37.8737 -37.8730 -37.8730 -37.8729 -37.8729
     9.3223   9.3223  11.7228  11.7228  11.7228  11.7228  11.9445  11.9445
    11.9445  11.9445  12.1297  12.1298  12.2054  12.2055  12.3055  12.3055
    12.3097  12.3098  12.9219  12.9220  12.9294  12.9294  13.3845  13.3845
    13.3845  13.3846  13.4557  13.4557  13.4558  13.4558  13.6124  13.6124
    13.6124  13.6124  13.7482  13.7482  13.7482  13.7483  13.8919  13.8920
    13.9111  13.9112  14.1415  14.1415  14.1445  14.1445  14.2574  14.2575
    14.4951  14.4952  14.7477  14.7477  14.7478  14.7478  14.7976  14.7976
    14.7976  14.7976  15.0697  15.0697  15.0706  15.0706  15.1123  15.1125
    15.1201  15.1201  15.1376  15.1377  15.1771  15.1772  15.2669  15.2670
    15.6563  15.6563  15.6564  15.6564  15.7274  15.7276  15.8269  15.8269
    15.8270  15.8270  16.0855  16.0855  16.0855  16.0855  16.8268  16.8268
    16.8268  16.8269

          k = 0.0515 0.1545 0.1545 ( 13715 PWs)   bands (ev):

   -71.9803 -71.9476 -71.9475 -71.9398 -71.9367 -71.9344 -71.9343 -71.9326
   -71.9324 -71.9324 -71.9310 -71.9308 -71.9305 -71.9255 -71.9255 -71.8982
   -38.1283 -38.1245 -38.1245 -38.1205 -38.1205 -38.1146 -38.0621 -38.0521
   -38.0422 -38.0409 -38.0405 -38.0404 -38.0361 -38.0322 -38.0195 -37.9971
   -37.9889 -37.9889 -37.9769 -37.9769 -37.9726 -37.9619 -37.9552 -37.9552
   -37.9539 -37.9521 -37.9521 -37.9466 -37.9466 -37.9434 -37.9407 -37.9397
   -37.9301 -37.9265 -37.9240 -37.9239 -37.9107 -37.9041 -37.9041 -37.8695
   -37.8613 -37.8567 -37.8567 -37.8545 -37.8530 -37.8530 -37.8488 -37.8479
     8.4222  11.0723  11.0723  11.5843  11.6391  11.7047  11.7047  11.7598
    11.7598  11.7643  11.8453  11.8504  12.0235  12.2175  12.2175  12.8144
    12.9027  12.9155  12.9156  13.0112  13.0112  13.0385  13.0393  13.0393
    13.0410  13.1325  13.1353  13.1398  13.3381  13.3529  13.3537  13.6279
    13.6279  13.8397  13.8888  13.9202  13.9202  13.9674  14.0551  14.0682
    14.2905  14.2906  14.3208  14.3208  14.3822  14.4046  14.4842  14.5868
    14.5868  14.6411  14.6411  14.8498  14.8498  14.8848  14.8874  14.8874
    14.8890  14.9195  14.9448  14.9650  14.9650  15.0146  15.0146  15.0836
    15.1164  15.1218  15.1236  15.1309  15.1714  15.3220  15.4098  15.4098
    15.4742  15.4743  15.5212  15.5272  15.5272  15.6630  15.7526  15.7526
    15.8275  15.9213  16.0000  16.1645  16.1795  16.4967  17.0764  17.0764
    17.1760  17.1760

          k = 0.0515 0.1545 0.2575 ( 13746 PWs)   bands (ev):

   -71.9774 -71.9549 -71.9465 -71.9392 -71.9389 -71.9353 -71.9340 -71.9324
   -71.9322 -71.9321 -71.9315 -71.9307 -71.9293 -71.9259 -71.9189 -71.9004
   -38.1222 -38.1163 -38.1161 -38.1130 -38.1095 -38.1001 -38.0648 -38.0603
   -38.0574 -38.0521 -38.0516 -38.0505 -38.0458 -38.0370 -38.0309 -38.0117
   -37.9942 -37.9923 -37.9748 -37.9727 -37.9713 -37.9673 -37.9627 -37.9589
   -37.9579 -37.9547 -37.9510 -37.9457 -37.9443 -37.9366 -37.9356 -37.9252
   -37.9223 -37.9145 -37.9119 -37.9076 -37.8975 -37.8889 -37.8883 -37.8840
   -37.8718 -37.8634 -37.8632 -37.8606 -37.8604 -37.8570 -37.8505 -37.8493
     8.6534  10.5031  11.1871  11.5512  11.7195  11.7380  11.8353  11.8585
    11.8674  11.9064  11.9309  11.9439  12.0735  12.2389  12.3007  12.6709
    12.7230  12.7918  12.9666  12.9829  12.9896  13.0124  13.0565  13.0864
    13.0987  13.1286  13.1311  13.2540  13.3099  13.4697  13.5043  13.5689
    13.7291  13.7739  13.8023  13.8223  13.8495  13.8807  13.9056  14.0669
    14.0871  14.1528  14.2753  14.3063  14.4537  14.4787  14.5049  14.5057
    14.5127  14.5687  14.6099  14.6421  14.6638  14.7162  14.7653  14.8154
    14.8223  14.9159  14.9675  14.9733  14.9891  15.0130  15.0137  15.1027
    15.1047  15.1096  15.1232  15.1383  15.2190  15.3038  15.3223  15.3720
    15.4434  15.4476  15.4574  15.5196  15.5228  15.5724  15.6070  15.6656
    15.7891  15.9886  15.9946  16.0341  16.1458  16.6586  16.8504  17.3443
    17.4728  17.7176

          k = 0.0515 0.1545 0.3604 ( 13735 PWs)   bands (ev):

   -71.9732 -71.9618 -71.9450 -71.9411 -71.9384 -71.9363 -71.9334 -71.9323
   -71.9321 -71.9321 -71.9318 -71.9310 -71.9280 -71.9264 -71.9130 -71.9036
   -38.1117 -38.1039 -38.1037 -38.1021 -38.0945 -38.0816 -38.0798 -38.0733
   -38.0703 -38.0701 -38.0653 -38.0590 -38.0568 -38.0365 -38.0359 -38.0184
   -38.0102 -37.9893 -37.9840 -37.9719 -37.9681 -37.9661 -37.9637 -37.9616
   -37.9571 -37.9567 -37.9450 -37.9449 -37.9446 -37.9322 -37.9268 -37.9178
   -37.9035 -37.9022 -37.8987 -37.8972 -37.8926 -37.8849 -37.8844 -37.8756
   -37.8738 -37.8726 -37.8724 -37.8719 -37.8687 -37.8636 -37.8557 -37.8541
     8.9921   9.9401  11.3194  11.5074  11.7789  11.7855  11.9285  11.9853
    12.0476  12.0726  12.0758  12.0783  12.1083  12.1999  12.2696  12.4442
    12.5650  12.5839  12.9437  12.9648  12.9800  12.9830  13.1228  13.1943
    13.2009  13.2112  13.2481  13.3273  13.4126  13.4992  13.6556  13.6880
    13.7035  13.7206  13.7328  13.7337  13.7797  13.7914  13.8476  13.8506
    13.8728  13.9142  14.0482  14.1887  14.2692  14.2751  14.3339  14.4112
    14.5533  14.6465  14.6553  14.6625  14.6704  14.7008  14.7333  14.7565
    14.8497  14.8959  14.9351  14.9797  15.0213  15.0279  15.0300  15.0819
    15.0874  15.1240  15.1470  15.1547  15.1923  15.2217  15.2723  15.3081
    15.3955  15.4103  15.4520  15.5209  15.5331  15.5678  15.7189  15.7574
    15.7953  15.8141  15.9342  16.0736  16.2029  16.6270  16.8684  17.3102
    17.5539  17.8870

          k = 0.0515 0.1545-0.4634 ( 13750 PWs)   bands (ev):

   -71.9680 -71.9680 -71.9432 -71.9432 -71.9374 -71.9374 -71.9328 -71.9328
   -71.9321 -71.9321 -71.9314 -71.9314 -71.9271 -71.9271 -71.9078 -71.9078
   -38.0974 -38.0973 -38.0886 -38.0886 -38.0884 -38.0884 -38.0880 -38.0879
   -38.0767 -38.0766 -38.0634 -38.0633 -38.0600 -38.0600 -38.0244 -38.0244
   -38.0046 -38.0045 -37.9751 -37.9750 -37.9682 -37.9682 -37.9629 -37.9628
   -37.9595 -37.9595 -37.9448 -37.9448 -37.9292 -37.9292 -37.9228 -37.9227
   -37.9006 -37.9005 -37.8864 -37.8864 -37.8845 -37.8845 -37.8839 -37.8838
   -37.8795 -37.8795 -37.8729 -37.8729 -37.8644 -37.8643 -37.8625 -37.8624
     9.4269   9.4270  11.4325  11.4325  11.8037  11.8037  12.0202  12.0202
    12.1043  12.1043  12.1715  12.1715  12.2436  12.2437  12.3254  12.3254
    12.3413  12.3413  12.9452  12.9453  12.9647  12.9648  13.3056  13.3057
    13.3185  13.3186  13.3392  13.3393  13.3776  13.3777  13.6280  13.6280
    13.6755  13.6755  13.7458  13.7458  13.7755  13.7755  13.8389  13.8389
    13.8656  13.8656  13.9979  13.9979  13.9999  13.9999  14.4029  14.4030
    14.5587  14.5588  14.6963  14.6963  14.7670  14.7671  14.7905  14.7906
    14.8188  14.8189  14.9745  14.9745  15.0558  15.0559  15.0562  15.0563
    15.0998  15.0998  15.1287  15.1288  15.1908  15.1909  15.2152  15.2153
    15.4034  15.4035  15.4823  15.4824  15.6343  15.6344  15.6777  15.6778
    15.8419  15.8420  15.9544  15.9545  16.4076  16.4076  17.0961  17.0962
    17.7580  17.7581

          k = 0.0515 0.2575 0.2575 ( 13754 PWs)   bands (ev):

   -71.9747 -71.9534 -71.9534 -71.9423 -71.9386 -71.9349 -71.9349 -71.9323
   -71.9321 -71.9319 -71.9319 -71.9307 -71.9266 -71.9197 -71.9196 -71.9024
   -38.1198 -38.1089 -38.1089 -38.1038 -38.1037 -38.0833 -38.0707 -38.0692
   -38.0692 -38.0656 -38.0610 -38.0591 -38.0476 -38.0401 -38.0176 -37.9927
   -37.9911 -37.9911 -37.9905 -37.9905 -37.9690 -37.9669 -37.9667 -37.9614
   -37.9614 -37.9537 -37.9537 -37.9502 -37.9502 -37.9472 -37.9289 -37.9108
   -37.9098 -37.9098 -37.9032 -37.9015 -37.9014 -37.8891 -37.8847 -37.8750
   -37.8750 -37.8673 -37.8673 -37.8656 -37.8631 -37.8631 -37.8485 -37.8478
     8.8795  10.6573  10.6573  11.4290  11.8209  11.8944  11.8944  11.9807
    11.9807  11.9826  12.0048  12.0441  12.1550  12.3253  12.3253  12.6730
    12.7272  12.7470  12.7470  13.0231  13.0541  13.0541  13.0702  13.0841
    13.0874  13.0874  13.1363  13.2246  13.3934  13.4288  13.4853  13.6423
    13.6423  13.7249  13.7249  13.7301  13.7656  13.7742  13.8251  13.8601
    14.1667  14.1667  14.2716  14.2716  14.2825  14.2825  14.2835  14.4899
    14.4900  14.4955  14.5686  14.6314  14.7215  14.7215  14.7500  14.8153
    14.9316  14.9317  14.9450  14.9450  14.9574  14.9713  14.9713  15.0066
    15.0595  15.0834  15.0952  15.1309  15.1563  15.2277  15.2924  15.2924
    15.3071  15.3071  15.3329  15.4549  15.5099  15.5246  15.5246  15.7527
    15.7528  15.7977  16.0255  16.1623  16.2458  16.8945  17.4113  17.4113
    18.0381  18.0381

          k = 0.0515 0.2575 0.3604 ( 13755 PWs)   bands (ev):

   -71.9707 -71.9599 -71.9513 -71.9456 -71.9379 -71.9359 -71.9343 -71.9328
   -71.9321 -71.9319 -71.9316 -71.9310 -71.9243 -71.9208 -71.9141 -71.9054
   -38.1124 -38.0987 -38.0986 -38.0955 -38.0913 -38.0860 -38.0755 -38.0746
   -38.0742 -38.0729 -38.0719 -38.0627 -38.0617 -38.0311 -38.0152 -38.0063
   -38.0029 -37.9876 -37.9866 -37.9743 -37.9708 -37.9702 -37.9680 -37.9677
   -37.9660 -37.9649 -37.9558 -37.9499 -37.9488 -37.9347 -37.9227 -37.9219
   -37.9131 -37.8999 -37.8969 -37.8957 -37.8918 -37.8908 -37.8806 -37.8735
   -37.8735 -37.8734 -37.8721 -37.8671 -37.8638 -37.8631 -37.8503 -37.8495
     9.2095  10.1238  10.8600  11.2727  11.9144  11.9357  12.0722  12.0997
    12.1055  12.1101  12.1776  12.1829  12.1967  12.2911  12.3033  12.5395
    12.5749  12.5848  12.9209  12.9945  13.0174  13.0307  13.0401  13.0895
    13.1371  13.1658  13.1969  13.2156  13.4640  13.4789  13.5501  13.5754
    13.6031  13.6321  13.6747  13.6811  13.7192  13.7249  13.7805  13.8372
    13.8530  13.9265  13.9970  14.0223  14.0347  14.1254  14.4293  14.4857
    14.5549  14.6634  14.6811  14.6851  14.6978  14.7191  14.7530  14.7575
    14.8842  14.8857  14.9005  14.9197  14.9772  14.9851  14.9906  14.9928
    15.0552  15.0677  15.1043  15.1434  15.1439  15.1556  15.1867  15.2078
    15.2596  15.3066  15.3454  15.3481  15.3518  15.4837  15.5399  15.6019
    15.8748  15.9167  16.0177  16.1278  16.5116  17.1044  17.1823  17.7856
    18.0005  18.6056

          k = 0.0515 0.2575-0.4634 ( 13788 PWs)   bands (ev):

   -71.9658 -71.9658 -71.9487 -71.9486 -71.9369 -71.9369 -71.9336 -71.9336
   -71.9320 -71.9320 -71.9313 -71.9313 -71.9224 -71.9223 -71.9093 -71.9093
   -38.1007 -38.1006 -38.0862 -38.0861 -38.0859 -38.0859 -38.0859 -38.0859
   -38.0768 -38.0768 -38.0761 -38.0760 -38.0396 -38.0396 -38.0198 -38.0198
   -37.9876 -37.9875 -37.9810 -37.9810 -37.9796 -37.9795 -37.9672 -37.9672
   -37.9617 -37.9616 -37.9497 -37.9497 -37.9444 -37.9443 -37.9175 -37.9175
   -37.9168 -37.9167 -37.8837 -37.8837 -37.8837 -37.8836 -37.8819 -37.8818
   -37.8815 -37.8814 -37.8731 -37.8731 -37.8556 -37.8555 -37.8548 -37.8547
     9.6309   9.6310  11.0770  11.0770  11.9531  11.9531  12.1583  12.1583
    12.2082  12.2082  12.2153  12.2153  12.3501  12.3501  12.3569  12.3569
    12.3942  12.3942  12.9906  12.9907  13.0111  13.0112  13.1720  13.1721
    13.1721  13.1721  13.1964  13.1965  13.3318  13.3319  13.6408  13.6409
    13.6828  13.6828  13.6997  13.6997  13.7732  13.7732  13.7855  13.7856
    13.7943  13.7943  13.8132  13.8132  13.8522  13.8522  14.5870  14.5871
    14.6553  14.6553  14.6750  14.6750  14.7245  14.7246  14.8003  14.8004
    14.8076  14.8077  14.8103  14.8103  15.0216  15.0217  15.0287  15.0288
    15.0622  15.0623  15.0886  15.0887  15.1642  15.1643  15.1684  15.1685
    15.2421  15.2422  15.3588  15.3589  15.3956  15.3957  15.5184  15.5185
    15.9655  15.9656  16.0446  16.0447  16.8025  16.8026  17.4887  17.4887
    18.6084  18.6086

          k = 0.0515 0.3604 0.3604 ( 13754 PWs)   bands (ev):

   -71.9672 -71.9572 -71.9572 -71.9499 -71.9371 -71.9352 -71.9352 -71.9336
   -71.9319 -71.9316 -71.9316 -71.9311 -71.9210 -71.9158 -71.9158 -71.9081
   -38.1083 -38.0916 -38.0916 -38.0884 -38.0883 -38.0870 -38.0870 -38.0821
   -38.0785 -38.0775 -38.0766 -38.0689 -38.0408 -38.0230 -38.0004 -38.0004
   -37.9924 -37.9924 -37.9866 -37.9865 -37.9841 -37.9734 -37.9734 -37.9727
   -37.9638 -37.9553 -37.9553 -37.9523 -37.9520 -37.9520 -37.9444 -37.9162
   -37.9142 -37.9006 -37.9006 -37.8883 -37.8851 -37.8844 -37.8806 -37.8769
   -37.8757 -37.8757 -37.8725 -37.8725 -37.8551 -37.8551 -37.8484 -37.8481
     9.5248  10.3794  10.3794  10.9902  12.0540  12.1458  12.1458  12.1774
    12.1929  12.2606  12.2606  12.2981  12.2981  12.3055  12.3353  12.5280
    12.5558  12.7165  12.7165  13.0204  13.0229  13.0341  13.0749  13.0749
    13.0816  13.0816  13.1172  13.2053  13.2705  13.4846  13.4846  13.4895
    13.5546  13.5860  13.6254  13.6657  13.7488  13.7488  13.7561  13.7561
    13.7586  13.7586  13.7624  13.8030  13.9513  14.2297  14.2297  14.6027
    14.6780  14.6948  14.6948  14.7185  14.7519  14.7824  14.7838  14.7838
    14.7906  14.8827  14.9267  14.9267  14.9332  14.9332  14.9717  14.9717
    14.9758  15.0159  15.0297  15.0339  15.1061  15.1061  15.1223  15.1682
    15.2257  15.2530  15.2530  15.3140  15.3829  15.3829  15.3990  15.4303
    16.0053  16.0054  16.0599  16.1350  16.8608  17.5478  17.6108  17.6108
    18.3148  18.3148

          k = 0.0515 0.3604-0.4634 ( 13754 PWs)   bands (ev):

   -71.9626 -71.9626 -71.9539 -71.9538 -71.9362 -71.9362 -71.9345 -71.9344
   -71.9317 -71.9317 -71.9313 -71.9313 -71.9181 -71.9181 -71.9116 -71.9116
   -38.1000 -38.1000 -38.0870 -38.0869 -38.0841 -38.0841 -38.0837 -38.0837
   -38.0825 -38.0825 -38.0776 -38.0776 -38.0172 -38.0171 -38.0127 -38.0127
   -37.9929 -37.9928 -37.9814 -37.9813 -37.9746 -37.9745 -37.9695 -37.9694
   -37.9683 -37.9682 -37.9603 -37.9602 -37.9543 -37.9543 -37.9336 -37.9336
   -37.9068 -37.9068 -37.8897 -37.8896 -37.8798 -37.8797 -37.8795 -37.8795
   -37.8794 -37.8793 -37.8741 -37.8740 -37.8501 -37.8500 -37.8499 -37.8498
     9.9226   9.9227  10.6802  10.6803  12.1396  12.1396  12.2497  12.2497
    12.2602  12.2602  12.3240  12.3240  12.3673  12.3673  12.4465  12.4465
    12.5176  12.5177  12.9473  12.9473  13.0292  13.0292  13.0310  13.0311
    13.0539  13.0539  13.0994  13.0994  13.3617  13.3618  13.5213  13.5213
    13.5858  13.5858  13.6129  13.6129  13.6288  13.6288  13.6389  13.6389
    13.7781  13.7781  13.8119  13.8119  13.9846  13.9847  14.4647  14.4648
    14.7079  14.7079  14.7467  14.7468  14.7883  14.7884  14.8108  14.8109
    14.8422  14.8423  14.8665  14.8666  14.9372  14.9372  14.9694  14.9695
    14.9868  14.9868  15.0184  15.0184  15.0499  15.0500  15.1901  15.1902
    15.2009  15.2010  15.2846  15.2847  15.2849  15.2850  15.4032  15.4033
    16.0548  16.0549  16.0939  16.0940  17.2300  17.2300  17.9330  17.9331
    18.1355  18.1357

          k = 0.0515-0.4634-0.4634 ( 13736 PWs)   bands (ev):

   -71.9586 -71.9586 -71.9585 -71.9585 -71.9353 -71.9353 -71.9353 -71.9353
   -71.9315 -71.9315 -71.9315 -71.9315 -71.9145 -71.9145 -71.9145 -71.9145
   -38.0953 -38.0952 -38.0952 -38.0952 -38.0831 -38.0831 -38.0831 -38.0830
   -38.0797 -38.0796 -38.0796 -38.0796 -38.0035 -38.0035 -38.0035 -38.0034
   -37.9931 -37.9930 -37.9930 -37.9930 -37.9797 -37.9796 -37.9796 -37.9796
   -37.9581 -37.9580 -37.9580 -37.9579 -37.9514 -37.9514 -37.9514 -37.9513
   -37.8973 -37.8973 -37.8973 -37.8973 -37.8786 -37.8786 -37.8786 -37.8785
   -37.8763 -37.8763 -37.8763 -37.8763 -37.8482 -37.8481 -37.8481 -37.8480
    10.2824  10.2824  10.2824  10.2824  12.2694  12.2694  12.2694  12.2694
    12.3000  12.3000  12.3001  12.3001  12.4408  12.4408  12.4408  12.4408
    12.7230  12.7230  12.7230  12.7231  13.0100  13.0100  13.0100  13.0100
    13.0485  13.0486  13.0486  13.0486  13.4263  13.4264  13.4264  13.4264
    13.5428  13.5428  13.5428  13.5428  13.5917  13.5918  13.5918  13.5918
    13.7771  13.7771  13.7771  13.7771  14.2140  14.2141  14.2141  14.2142
    14.8003  14.8003  14.8003  14.8004  14.8086  14.8087  14.8087  14.8088
    14.9051  14.9052  14.9052  14.9052  14.9305  14.9306  14.9306  14.9307
    14.9876  14.9877  14.9877  14.9877  15.0005  15.0006  15.0006  15.0006
    15.2380  15.2381  15.2381  15.2382  15.3313  15.3314  15.3314  15.3315
    16.0981  16.0983  16.0983  16.0983  17.6759  17.6760  17.6760  17.6761
    18.3998  18.3999

          k = 0.1545 0.1545 0.1545 ( 13736 PWs)   bands (ev):

   -71.9788 -71.9471 -71.9471 -71.9470 -71.9364 -71.9364 -71.9364 -71.9317
   -71.9307 -71.9307 -71.9307 -71.9301 -71.9257 -71.9257 -71.9256 -71.8993
   -38.1238 -38.1238 -38.1238 -38.1114 -38.1114 -38.1114 -38.0587 -38.0587
   -38.0529 -38.0492 -38.0492 -38.0491 -38.0314 -38.0216 -38.0216 -38.0004
   -38.0004 -38.0004 -37.9804 -37.9804 -37.9804 -37.9580 -37.9580 -37.9580
   -37.9488 -37.9488 -37.9429 -37.9429 -37.9429 -37.9414 -37.9414 -37.9414
   -37.9252 -37.9252 -37.9252 -37.9177 -37.8959 -37.8959 -37.8959 -37.8799
   -37.8633 -37.8633 -37.8633 -37.8518 -37.8518 -37.8518 -37.8518 -37.8518
     8.5383  11.1409  11.1409  11.1410  11.6686  11.6686  11.6686  11.8385
    11.8385  11.8385  11.8941  11.8941  12.2599  12.2599  12.2599  12.7474
    12.9039  12.9040  12.9040  12.9785  12.9785  13.0265  13.0266  13.0266
    13.1094  13.1094  13.1094  13.2694  13.2770  13.2770  13.5377  13.5378
    13.5378  13.8325  13.8325  13.8723  13.8723  13.8724  14.1401  14.1812
    14.1812  14.1812  14.3438  14.3438  14.3438  14.3561  14.3561  14.3561
    14.6366  14.6366  14.6366  14.8787  14.8787  14.8787  14.9073  14.9073
    14.9117  14.9117  14.9117  15.0226  15.0226  15.0226  15.0859  15.0859
    15.0859  15.1124  15.1124  15.1236  15.1236  15.1237  15.1317  15.1317
    15.4747  15.4755  15.4755  15.4756  15.5434  15.5434  15.5434  15.8961
    15.8961  15.8961  15.9093  15.9093  16.7018  16.7018  16.7018  17.2897
    17.2897  17.2897

          k = 0.1545 0.1545 0.2575 ( 13723 PWs)   bands (ev):

   -71.9760 -71.9542 -71.9460 -71.9460 -71.9386 -71.9386 -71.9359 -71.9325
   -71.9305 -71.9300 -71.9293 -71.9292 -71.9260 -71.9260 -71.9193 -71.9014
   -38.1180 -38.1180 -38.1148 -38.1055 -38.0981 -38.0981 -38.0639 -38.0638
   -38.0636 -38.0636 -38.0587 -38.0519 -38.0451 -38.0191 -38.0186 -38.0186
   -38.0105 -37.9982 -37.9810 -37.9809 -37.9795 -37.9653 -37.9639 -37.9639
   -37.9591 -37.9532 -37.9448 -37.9372 -37.9372 -37.9271 -37.9271 -37.9264
   -37.9264 -37.9262 -37.9079 -37.9049 -37.8952 -37.8844 -37.8843 -37.8825
   -37.8723 -37.8723 -37.8673 -37.8597 -37.8579 -37.8530 -37.8530 -37.8518
     8.7674  10.5874  11.2618  11.2619  11.6395  11.6395  11.8309  11.9405
    11.9405  11.9800  11.9804  11.9853  12.2999  12.2999  12.3497  12.6750
    12.6836  12.8710  12.9301  12.9301  12.9474  13.0049  13.0705  13.0834
    13.0834  13.1460  13.2161  13.2161  13.3442  13.4510  13.4569  13.4570
    13.6662  13.7442  13.7443  13.7787  13.7949  13.8193  13.9944  13.9944
    14.0318  14.0318  14.2508  14.2539  14.3281  14.3797  14.4857  14.4857
    14.5055  14.5055  14.5736  14.6755  14.6755  14.8291  14.8345  14.8546
    14.8546  14.8642  14.9498  14.9524  14.9894  14.9894  15.0103  15.0897
    15.0965  15.1089  15.1199  15.1513  15.1793  15.1793  15.1903  15.1904
    15.2457  15.3145  15.5871  15.5871  15.6000  15.6000  15.6080  15.6222
    15.7440  15.9386  15.9386  15.9396  16.4139  16.4139  17.2846  17.4906
    17.4907  18.1911

          k = 0.1545 0.1545 0.3604 ( 13759 PWs)   bands (ev):

   -71.9720 -71.9608 -71.9446 -71.9445 -71.9408 -71.9408 -71.9352 -71.9334
   -71.9303 -71.9300 -71.9281 -71.9281 -71.9265 -71.9265 -71.9135 -71.9045
   -38.1083 -38.1083 -38.1023 -38.0970 -38.0810 -38.0810 -38.0797 -38.0797
   -38.0752 -38.0669 -38.0669 -38.0646 -38.0421 -38.0397 -38.0397 -38.0151
   -38.0056 -37.9989 -37.9787 -37.9787 -37.9756 -37.9755 -37.9695 -37.9695
   -37.9573 -37.9542 -37.9488 -37.9336 -37.9336 -37.9282 -37.9282 -37.9141
   -37.9115 -37.9115 -37.9053 -37.8929 -37.8920 -37.8835 -37.8835 -37.8737
   -37.8731 -37.8731 -37.8717 -37.8710 -37.8668 -37.8572 -37.8571 -37.8553
     9.1024  10.0363  11.4019  11.4019  11.5980  11.5980  12.0583  12.0585
    12.0585  12.1041  12.1065  12.1721  12.2725  12.2725  12.3239  12.4600
    12.5725  12.6170  12.9423  12.9787  13.0293  13.0371  13.0624  13.0624
    13.1769  13.1769  13.3349  13.3349  13.3981  13.3981  13.5630  13.6554
    13.6618  13.6619  13.7197  13.7197  13.7383  13.7420  13.7464  13.7983
    13.7984  13.8009  14.0786  14.0786  14.0845  14.1924  14.3862  14.4788
    14.5192  14.6493  14.6493  14.6973  14.7094  14.7094  14.7309  14.7990
    14.7990  14.9125  14.9125  14.9968  15.0018  15.0082  15.0225  15.0511
    15.0746  15.0926  15.0946  15.1046  15.1763  15.1898  15.2517  15.2517
    15.2675  15.2675  15.3942  15.5289  15.7142  15.7142  15.7367  15.7367
    15.7513  15.9095  15.9095  15.9186  16.1676  16.1677  17.7392  17.7392
    17.8936  18.1705

          k = 0.1545 0.1545-0.4634 ( 13716 PWs)   bands (ev):

   -71.9669 -71.9669 -71.9427 -71.9427 -71.9427 -71.9427 -71.9344 -71.9344
   -71.9301 -71.9301 -71.9272 -71.9272 -71.9271 -71.9271 -71.9085 -71.9085
   -38.0952 -38.0952 -38.0951 -38.0951 -38.0868 -38.0868 -38.0860 -38.0860
   -38.0671 -38.0670 -38.0610 -38.0610 -38.0609 -38.0609 -38.0296 -38.0296
   -37.9909 -37.9909 -37.9869 -37.9868 -37.9746 -37.9746 -37.9746 -37.9745
   -37.9525 -37.9524 -37.9351 -37.9350 -37.9304 -37.9304 -37.9304 -37.9304
   -37.8966 -37.8966 -37.8966 -37.8965 -37.8869 -37.8869 -37.8822 -37.8822
   -37.8784 -37.8784 -37.8637 -37.8637 -37.8637 -37.8636 -37.8616 -37.8616
     9.5316   9.5316  11.5215  11.5215  11.5215  11.5215  12.1784  12.1784
    12.1784  12.1785  12.2279  12.2280  12.2682  12.2683  12.3303  12.3303
    12.3862  12.3862  12.9552  12.9553  13.0066  13.0067  13.2794  13.2794
    13.2794  13.2794  13.2947  13.2947  13.2947  13.2948  13.6355  13.6355
    13.6356  13.6356  13.7298  13.7298  13.7740  13.7740  13.7740  13.7741
    13.7765  13.7765  13.8507  13.8507  13.8754  13.8755  14.5349  14.5350
    14.6063  14.6064  14.7481  14.7482  14.7499  14.7499  14.7499  14.7499
    14.7977  14.7977  14.7977  14.7977  15.0482  15.0483  15.0514  15.0515
    15.0818  15.0818  15.0997  15.0998  15.2627  15.2628  15.2811  15.2811
    15.2812  15.2812  15.2906  15.2906  15.8287  15.8287  15.8288  15.8288
    15.8531  15.8532  15.9395  15.9395  15.9396  15.9396  17.9877  17.9877
    17.9878  17.9878

          k = 0.1545 0.2575 0.2575 ( 13726 PWs)   bands (ev):

   -71.9734 -71.9527 -71.9527 -71.9450 -71.9419 -71.9380 -71.9379 -71.9336
   -71.9296 -71.9292 -71.9292 -71.9266 -71.9263 -71.9200 -71.9200 -71.9033
   -38.1153 -38.1099 -38.1099 -38.0941 -38.0941 -38.0824 -38.0710 -38.0709
   -38.0703 -38.0701 -38.0670 -38.0504 -38.0499 -38.0310 -38.0164 -38.0051
   -37.9985 -37.9985 -37.9983 -37.9983 -37.9860 -37.9728 -37.9728 -37.9728
   -37.9456 -37.9429 -37.9429 -37.9396 -37.9396 -37.9294 -37.9282 -37.9177
   -37.9148 -37.9119 -37.9097 -37.9097 -37.8957 -37.8831 -37.8784 -37.8736
   -37.8736 -37.8730 -37.8729 -37.8615 -37.8604 -37.8604 -37.8517 -37.8515
     8.9917  10.7449  10.7449  11.3953  11.5234  11.8098  11.8098  12.0545
    12.0573  12.0786  12.0786  12.0815  12.3844  12.3945  12.3945  12.6578
    12.7300  12.7300  12.8269  12.8994  12.9897  13.0561  13.0561  13.1211
    13.1533  13.1534  13.1712  13.2466  13.3369  13.3537  13.4224  13.5552
    13.5552  13.6811  13.6901  13.6901  13.7156  13.7496  13.7809  13.8605
    13.9567  13.9567  14.1109  14.1110  14.2304  14.2304  14.2941  14.3920
    14.5154  14.5154  14.5588  14.7470  14.8019  14.8298  14.8298  14.8400
    14.9109  14.9110  14.9333  14.9608  14.9745  14.9745  14.9976  15.0554
    15.0555  15.0615  15.0786  15.1045  15.1200  15.1271  15.1271  15.1723
    15.2309  15.3141  15.3142  15.5827  15.6596  15.6838  15.6838  15.7195
    15.7195  15.7764  15.9344  15.9981  16.1093  16.9179  16.9179  17.7421
    18.5083  18.5083

          k = 0.1545 0.2575 0.3604 ( 13747 PWs)   bands (ev):

   -71.9696 -71.9590 -71.9506 -71.9451 -71.9436 -71.9400 -71.9371 -71.9349
   -71.9293 -71.9292 -71.9282 -71.9267 -71.9244 -71.9211 -71.9146 -71.9062
   -38.1083 -38.1016 -38.0981 -38.0890 -38.0847 -38.0800 -38.0800 -38.0765
   -38.0744 -38.0717 -38.0662 -38.0636 -38.0466 -38.0413 -38.0199 -38.0148
   -38.0085 -37.9948 -37.9903 -37.9871 -37.9845 -37.9814 -37.9797 -37.9764
   -37.9590 -37.9452 -37.9425 -37.9357 -37.9319 -37.9301 -37.9265 -37.9229
   -37.9127 -37.9026 -37.9014 -37.8962 -37.8942 -37.8875 -37.8816 -37.8763
   -37.8720 -37.8714 -37.8698 -37.8640 -37.8638 -37.8628 -37.8532 -37.8530
     9.3187  10.2214  10.9522  11.3702  11.5533  11.7718  12.0485  12.1621
    12.1722  12.1960  12.2139  12.2635  12.3667  12.3744  12.3995  12.5405
    12.6009  12.6215  12.8955  12.9692  12.9806  13.0231  13.0833  13.0870
    13.1355  13.1964  13.2207  13.2866  13.3783  13.4100  13.4318  13.5312
    13.5357  13.5969  13.6079  13.6536  13.6549  13.6859  13.6918  13.7198
    13.7497  13.8398  13.8797  13.8940  13.9154  13.9714  14.2770  14.5487
    14.5889  14.6641  14.6774  14.7393  14.7708  14.7778  14.7963  14.7977
    14.8711  14.8985  14.8994  14.9039  14.9765  14.9781  14.9891  15.0245
    15.0508  15.0870  15.0930  15.1049  15.1112  15.1476  15.1567  15.1802
    15.2242  15.2386  15.4103  15.4669  15.4693  15.6127  15.6929  15.8279
    15.8341  15.8567  15.9378  15.9912  16.0233  16.5973  17.4532  18.0488
    18.5802  18.6239

          k = 0.1545 0.2575-0.4634 ( 13728 PWs)   bands (ev):

   -71.9647 -71.9647 -71.9480 -71.9480 -71.9419 -71.9419 -71.9361 -71.9360
   -71.9292 -71.9292 -71.9273 -71.9273 -71.9225 -71.9225 -71.9100 -71.9100
   -38.0976 -38.0976 -38.0911 -38.0910 -38.0832 -38.0832 -38.0829 -38.0829
   -38.0748 -38.0747 -38.0635 -38.0635 -38.0420 -38.0419 -38.0293 -38.0293
   -37.9969 -37.9968 -37.9889 -37.9889 -37.9846 -37.9845 -37.9751 -37.9751
   -37.9538 -37.9537 -37.9447 -37.9446 -37.9326 -37.9325 -37.9172 -37.9172
   -37.9107 -37.9106 -37.8913 -37.8913 -37.8853 -37.8852 -37.8810 -37.8809
   -37.8806 -37.8806 -37.8665 -37.8665 -37.8572 -37.8571 -37.8568 -37.8568
     9.7355   9.7355  11.1733  11.1733  11.6890  11.6891  12.2798  12.2798
    12.2824  12.2824  12.3157  12.3157  12.3326  12.3326  12.3683  12.3683
    12.4587  12.4587  12.9936  12.9937  13.0487  13.0487  13.1415  13.1415
    13.1433  13.1433  13.2225  13.2226  13.3040  13.3041  13.6165  13.6166
    13.6168  13.6169  13.6218  13.6218  13.6517  13.6517  13.6909  13.6910
    13.6914  13.6914  13.7164  13.7165  13.7437  13.7437  14.4919  14.4919
    14.6819  14.6820  14.7233  14.7234  14.7699  14.7699  14.7977  14.7977
    14.8006  14.8007  14.8350  14.8351  15.0185  15.0185  15.0427  15.0427
    15.0492  15.0492  15.1065  15.1066  15.1357  15.1358  15.2190  15.2191
    15.2441  15.2441  15.3183  15.3184  15.6214  15.6215  15.6598  15.6599
    15.9028  15.9029  15.9318  15.9319  16.3014  16.3014  18.0073  18.0075
    18.3629  18.3631

          k = 0.1545 0.3604 0.3604 ( 13767 PWs)   bands (ev):

   -71.9661 -71.9564 -71.9564 -71.9493 -71.9423 -71.9390 -71.9390 -71.9364
   -71.9288 -71.9282 -71.9282 -71.9271 -71.9212 -71.9163 -71.9162 -71.9088
   -38.1042 -38.0922 -38.0921 -38.0859 -38.0859 -38.0821 -38.0787 -38.0787
   -38.0784 -38.0773 -38.0715 -38.0562 -38.0431 -38.0344 -38.0101 -38.0101
   -38.0092 -37.9984 -37.9984 -37.9934 -37.9925 -37.9912 -37.9912 -37.9747
   -37.9530 -37.9422 -37.9422 -37.9417 -37.9380 -37.9380 -37.9320 -37.9136
   -37.9107 -37.8988 -37.8988 -37.8941 -37.8925 -37.8835 -37.8805 -37.8804
   -37.8769 -37.8711 -37.8710 -37.8709 -37.8573 -37.8573 -37.8518 -37.8518
     9.6321  10.4788  10.4788  11.0912  11.7408  12.0117  12.0117  12.2369
    12.2654  12.3628  12.3705  12.3706  12.3753  12.3753  12.5109  12.5170
    12.6179  12.7179  12.7179  12.9183  13.0231  13.0610  13.0871  13.0871
    13.1078  13.1078  13.2018  13.2024  13.2515  13.3086  13.4577  13.4577
    13.4908  13.5278  13.5663  13.6298  13.6298  13.6322  13.6374  13.6469
    13.6469  13.6593  13.6594  13.7104  13.8068  14.0397  14.0397  14.4792
    14.7085  14.7086  14.7290  14.7510  14.7841  14.8056  14.8736  14.8797
    14.9261  14.9261  14.9360  14.9361  14.9533  14.9533  14.9637  15.0122
    15.0302  15.0674  15.0674  15.0747  15.1155  15.1480  15.1480  15.1602
    15.1602  15.2126  15.2724  15.3055  15.5007  15.5007  15.5420  15.6038
    15.9189  15.9190  15.9662  16.0149  16.3486  17.0597  17.0597  18.0459
    18.4217  19.1636

          k = 0.1545 0.3604-0.4634 ( 13756 PWs)   bands (ev):

   -71.9616 -71.9616 -71.9531 -71.9531 -71.9408 -71.9408 -71.9377 -71.9377
   -71.9284 -71.9284 -71.9276 -71.9276 -71.9185 -71.9185 -71.9122 -71.9122
   -38.0963 -38.0963 -38.0863 -38.0863 -38.0836 -38.0836 -38.0813 -38.0813
   -38.0777 -38.0777 -38.0674 -38.0674 -38.0235 -38.0235 -38.0211 -38.0210
   -38.0023 -38.0023 -38.0022 -38.0022 -37.9946 -37.9946 -37.9756 -37.9756
   -37.9585 -37.9584 -37.9397 -37.9396 -37.9347 -37.9347 -37.9259 -37.9259
   -37.9054 -37.9054 -37.8867 -37.8866 -37.8864 -37.8864 -37.8813 -37.8813
   -37.8810 -37.8810 -37.8708 -37.8707 -37.8532 -37.8532 -37.8531 -37.8530
    10.0269  10.0269  10.7813  10.7813  11.9100  11.9101  12.2836  12.2836
    12.3152  12.3152  12.3327  12.3327  12.4837  12.4838  12.5362  12.5363
    12.5452  12.5452  12.9489  12.9489  13.0128  13.0128  13.0389  13.0390
    13.0467  13.0468  13.1474  13.1474  13.3400  13.3401  13.4346  13.4346
    13.4995  13.4996  13.5088  13.5088  13.5481  13.5481  13.5716  13.5716
    13.6789  13.6790  13.6939  13.6939  13.8231  13.8231  14.2393  14.2393
    14.7664  14.7665  14.8141  14.8141  14.8418  14.8418  14.8437  14.8438
    14.9228  14.9229  14.9271  14.9271  14.9671  14.9672  15.0113  15.0113
    15.0263  15.0263  15.0445  15.0446  15.1147  15.1148  15.1294  15.1295
    15.1830  15.1831  15.3600  15.3601  15.3692  15.3693  15.5131  15.5132
    15.9634  15.9635  15.9877  15.9878  16.6948  16.6948  17.5425  17.5426
    18.8116  18.8118

          k = 0.1545-0.4634-0.4634 ( 13756 PWs)   bands (ev):

   -71.9577 -71.9577 -71.9577 -71.9577 -71.9393 -71.9393 -71.9393 -71.9393
   -71.9279 -71.9279 -71.9279 -71.9279 -71.9150 -71.9150 -71.9150 -71.9150
   -38.0914 -38.0913 -38.0913 -38.0912 -38.0825 -38.0825 -38.0825 -38.0824
   -38.0722 -38.0721 -38.0721 -38.0721 -38.0141 -38.0141 -38.0141 -38.0141
   -38.0015 -38.0014 -38.0014 -38.0014 -37.9987 -37.9986 -37.9986 -37.9986
   -37.9418 -37.9418 -37.9418 -37.9417 -37.9368 -37.9367 -37.9367 -37.9367
   -37.8951 -37.8951 -37.8951 -37.8951 -37.8828 -37.8828 -37.8828 -37.8827
   -37.8759 -37.8759 -37.8759 -37.8758 -37.8520 -37.8519 -37.8519 -37.8518
    10.3857  10.3857  10.3857  10.3857  12.1334  12.1334  12.1334  12.1334
    12.3383  12.3383  12.3383  12.3384  12.5877  12.5878  12.5878  12.5878
    12.7374  12.7375  12.7375  12.7375  12.9722  12.9722  12.9722  12.9722
    13.0917  13.0917  13.0917  13.0917  13.4052  13.4053  13.4053  13.4054
    13.4060  13.4060  13.4060  13.4061  13.5265  13.5265  13.5265  13.5265
    13.6684  13.6684  13.6684  13.6685  14.0106  14.0107  14.0107  14.0108
    14.8196  14.8197  14.8197  14.8198  14.9038  14.9039  14.9039  14.9040
    14.9670  14.9671  14.9671  14.9671  14.9895  14.9896  14.9896  14.9896
    14.9966  14.9966  14.9966  14.9967  15.1428  15.1429  15.1429  15.1429
    15.1553  15.1554  15.1554  15.1555  15.4150  15.4151  15.4151  15.4152
    15.9968  15.9969  15.9969  15.9970  17.1086  17.1087  17.1087  17.1088
    19.2875  19.2877

          k = 0.2575 0.2575 0.2575 ( 13715 PWs)   bands (ev):

   -71.9709 -71.9513 -71.9513 -71.9513 -71.9411 -71.9411 -71.9411 -71.9353
   -71.9286 -71.9268 -71.9268 -71.9267 -71.9207 -71.9207 -71.9206 -71.9051
   -38.1068 -38.1068 -38.1068 -38.0811 -38.0811 -38.0811 -38.0753 -38.0753
   -38.0752 -38.0734 -38.0601 -38.0601 -38.0390 -38.0390 -38.0119 -38.0119
   -38.0119 -38.0045 -38.0045 -38.0045 -37.9903 -37.9837 -37.9837 -37.9837
   -37.9304 -37.9304 -37.9304 -37.9292 -37.9292 -37.9292 -37.9283 -37.9237
   -37.9237 -37.9101 -37.9100 -37.9100 -37.8894 -37.8814 -37.8814 -37.8814
   -37.8694 -37.8694 -37.8694 -37.8595 -37.8594 -37.8594 -37.8581 -37.8581
     9.2122  10.9093  10.9093  10.9093  11.7064  11.7064  11.7064  12.1547
    12.1547  12.1899  12.1899  12.1899  12.4991  12.4991  12.4991  12.6667
    12.7230  12.7231  12.7231  12.9577  12.9814  12.9814  13.0930  13.0931
    13.0931  13.2443  13.2443  13.2443  13.2796  13.2796  13.4555  13.4556
    13.4556  13.6046  13.6046  13.6047  13.6874  13.6874  13.6986  13.6986
    13.6986  13.9150  13.9150  13.9150  13.9969  13.9969  13.9970  14.5474
    14.5950  14.5951  14.5951  14.7341  14.8861  14.8861  14.8866  14.8866
    14.8866  14.9092  14.9093  14.9093  14.9571  14.9571  14.9571  15.0649
    15.0649  15.0649  15.0766  15.0766  15.1468  15.1468  15.1468  15.1667
    15.1667  15.4344  15.4344  15.4344  15.6973  15.6973  15.6973  15.7673
    15.7673  15.7673  15.7701  15.7701  16.5368  16.5369  16.5369  18.5716
    18.7693  18.7693

          k = 0.2575 0.2575 0.3604 ( 13740 PWs)   bands (ev):

   -71.9672 -71.9573 -71.9494 -71.9493 -71.9441 -71.9441 -71.9399 -71.9370
   -71.9279 -71.9270 -71.9247 -71.9247 -71.9217 -71.9216 -71.9156 -71.9078
   -38.1006 -38.1005 -38.0947 -38.0827 -38.0827 -38.0792 -38.0763 -38.0755
   -38.0682 -38.0650 -38.0649 -38.0603 -38.0499 -38.0287 -38.0287 -38.0262
   -38.0217 -38.0054 -38.0054 -37.9974 -37.9938 -37.9938 -37.9913 -37.9752
   -37.9479 -37.9441 -37.9310 -37.9280 -37.9227 -37.9227 -37.9154 -37.9154
   -37.9126 -37.9126 -37.9035 -37.8938 -37.8914 -37.8913 -37.8847 -37.8807
   -37.8710 -37.8674 -37.8656 -37.8656 -37.8629 -37.8602 -37.8602 -37.8567
     9.5327  10.4091  11.1265  11.1265  11.5591  11.5591  11.9660  12.2608
    12.2808  12.3088  12.3088  12.3699  12.4971  12.5088  12.5088  12.5518
    12.6280  12.6573  12.8445  12.8445  12.9947  13.0578  13.1315  13.1465
    13.1619  13.1620  13.1703  13.2937  13.2938  13.3579  13.3579  13.3990
    13.4843  13.4843  13.5344  13.5394  13.5395  13.5636  13.6113  13.6200
    13.6474  13.6913  13.7272  13.7272  13.7365  13.7365  14.0351  14.4691
    14.6617  14.7041  14.7041  14.7250  14.8203  14.8828  14.8829  14.9041
    14.9041  14.9229  14.9229  14.9487  14.9788  14.9813  15.0453  15.0636
    15.0688  15.0748  15.0789  15.0789  15.1085  15.1316  15.1473  15.1473
    15.1748  15.2462  15.5464  15.5596  15.6658  15.6658  15.7177  15.7177
    15.7830  15.7862  15.7862  15.8263  16.2203  16.2203  17.0077  18.0192
    19.0860  19.0861

          k = 0.2575 0.2575-0.4634 ( 13736 PWs)   bands (ev):

   -71.9627 -71.9627 -71.9469 -71.9469 -71.9469 -71.9469 -71.9386 -71.9385
   -71.9274 -71.9274 -71.9230 -71.9230 -71.9230 -71.9230 -71.9113 -71.9113
   -38.0918 -38.0917 -38.0917 -38.0917 -38.0790 -38.0790 -38.0774 -38.0774
   -38.0741 -38.0740 -38.0470 -38.0470 -38.0470 -38.0470 -38.0370 -38.0370
   -38.0121 -38.0120 -38.0013 -38.0013 -38.0013 -38.0013 -37.9694 -37.9693
   -37.9597 -37.9597 -37.9305 -37.9304 -37.9167 -37.9167 -37.9166 -37.9166
   -37.9027 -37.9027 -37.9027 -37.9027 -37.8858 -37.8858 -37.8818 -37.8818
   -37.8793 -37.8793 -37.8622 -37.8622 -37.8621 -37.8621 -37.8585 -37.8585
     9.9391   9.9391  11.3578  11.3578  11.3578  11.3578  12.2827  12.2827
    12.3952  12.3952  12.4082  12.4082  12.4229  12.4230  12.4230  12.4230
    12.5525  12.5525  13.0224  13.0224  13.0797  13.0798  13.0798  13.0798
    13.0859  13.0859  13.2554  13.2554  13.2554  13.2555  13.4112  13.4112
    13.5168  13.5169  13.5636  13.5636  13.5636  13.5636  13.5668  13.5668
    13.5734  13.5735  13.5735  13.5735  13.5968  13.5969  14.2273  14.2274
    14.7421  14.7422  14.8141  14.8141  14.8141  14.8141  14.9007  14.9008
    14.9008  14.9008  14.9157  14.9158  15.0110  15.0110  15.0259  15.0259
    15.0673  15.0673  15.0722  15.0723  15.1163  15.1163  15.1164  15.1164
    15.3312  15.3312  15.3704  15.3705  15.7602  15.7603  15.7603  15.7603
    15.8287  15.8287  15.9338  15.9339  15.9339  15.9339  17.5019  17.5020
    19.3837  19.3838

          k = 0.2575 0.3604 0.3604 ( 13750 PWs)   bands (ev):

   -71.9639 -71.9548 -71.9548 -71.9481 -71.9475 -71.9428 -71.9427 -71.9390
   -71.9268 -71.9252 -71.9252 -71.9226 -71.9217 -71.9172 -71.9171 -71.9102
   -38.0962 -38.0892 -38.0892 -38.0822 -38.0817 -38.0817 -38.0731 -38.0711
   -38.0672 -38.0672 -38.0629 -38.0479 -38.0473 -38.0404 -38.0310 -38.0223
   -38.0222 -38.0129 -38.0091 -38.0090 -38.0079 -38.0079 -38.0064 -37.9673
   -37.9598 -37.9294 -37.9294 -37.9222 -37.9222 -37.9204 -37.9131 -37.9116
   -37.9049 -37.9027 -37.8969 -37.8965 -37.8965 -37.8869 -37.8869 -37.8834
   -37.8718 -37.8705 -37.8705 -37.8675 -37.8612 -37.8612 -37.8592 -37.8582
     9.8418  10.6703  10.6703  11.2873  11.3601  11.8254  11.8254  12.3481
    12.4037  12.4163  12.4550  12.4907  12.4907  12.5097  12.5097  12.6634
    12.7155  12.7165  12.7165  12.8069  13.0435  13.0954  13.1160  13.1189
    13.1189  13.1575  13.1575  13.1953  13.2169  13.2787  13.3307  13.4116
    13.4116  13.4326  13.4334  13.4334  13.4524  13.4881  13.4882  13.5159
    13.5159  13.5293  13.5717  13.5875  13.5944  13.8044  13.8044  14.2044
    14.7531  14.7531  14.7767  14.8458  14.8966  14.9263  14.9314  14.9328
    14.9328  14.9400  14.9993  14.9993  15.0033  15.0158  15.0305  15.0674
    15.0674  15.0681  15.0746  15.0747  15.0901  15.0901  15.1270  15.1478
    15.2885  15.3844  15.3845  15.4736  15.5782  15.5782  15.6264  15.7854
    15.7854  15.8002  15.8223  15.9143  15.9652  16.6288  16.6288  17.5215
    19.4614  20.0846

          k = 0.2575 0.3604-0.4634 ( 13748 PWs)   bands (ev):

   -71.9597 -71.9597 -71.9516 -71.9516 -71.9453 -71.9453 -71.9410 -71.9410
   -71.9259 -71.9259 -71.9237 -71.9237 -71.9192 -71.9192 -71.9133 -71.9133
   -38.0891 -38.0890 -38.0844 -38.0844 -38.0775 -38.0774 -38.0758 -38.0758
   -38.0700 -38.0700 -38.0539 -38.0538 -38.0369 -38.0369 -38.0282 -38.0281
   -38.0216 -38.0216 -38.0165 -38.0164 -38.0137 -38.0137 -37.9882 -37.9882
   -37.9443 -37.9442 -37.9209 -37.9208 -37.9163 -37.9162 -37.9156 -37.9155
   -37.9026 -37.9026 -37.8952 -37.8951 -37.8842 -37.8841 -37.8834 -37.8833
   -37.8827 -37.8827 -37.8693 -37.8692 -37.8597 -37.8596 -37.8587 -37.8587
    10.2297  10.2297  10.9767  10.9767  11.6115  11.6116  12.1428  12.1428
    12.4384  12.4384  12.4716  12.4717  12.5719  12.5719  12.6104  12.6105
    12.6674  12.6674  12.9491  12.9491  12.9830  12.9830  13.0595  13.0596
    13.0767  13.0768  13.1978  13.1979  13.2666  13.2666  13.3006  13.3007
    13.3747  13.3747  13.3980  13.3980  13.4519  13.4520  13.4601  13.4602
    13.5203  13.5204  13.5415  13.5416  13.6048  13.6048  13.9721  13.9722
    14.8088  14.8089  14.8405  14.8406  14.8591  14.8592  14.9736  14.9737
    14.9936  14.9936  15.0108  15.0108  15.0189  15.0189  15.0383  15.0383
    15.0710  15.0711  15.0952  15.0953  15.1006  15.1007  15.1438  15.1439
    15.2843  15.2844  15.4047  15.4048  15.5896  15.5897  15.6406  15.6407
    15.8103  15.8104  15.8135  15.8136  16.2864  16.2864  17.0628  17.0628
    19.8375  19.8378

          k = 0.2575-0.4634-0.4634 ( 13712 PWs)   bands (ev):

   -71.9560 -71.9560 -71.9560 -71.9559 -71.9433 -71.9433 -71.9433 -71.9433
   -71.9247 -71.9247 -71.9246 -71.9246 -71.9159 -71.9159 -71.9159 -71.9159
   -38.0835 -38.0834 -38.0834 -38.0833 -38.0778 -38.0778 -38.0778 -38.0777
   -38.0620 -38.0619 -38.0619 -38.0619 -38.0288 -38.0288 -38.0288 -38.0288
   -38.0221 -38.0220 -38.0220 -38.0220 -38.0082 -38.0081 -38.0081 -38.0081
   -37.9291 -37.9291 -37.9291 -37.9290 -37.9168 -37.9168 -37.9168 -37.9167
   -37.8909 -37.8909 -37.8909 -37.8909 -37.8886 -37.8886 -37.8886 -37.8885
   -37.8772 -37.8771 -37.8771 -37.8771 -37.8588 -37.8587 -37.8587 -37.8586
    10.5863  10.5863  10.5863  10.5863  11.8960  11.8960  11.8960  11.8960
    12.4696  12.4696  12.4696  12.4696  12.7516  12.7516  12.7516  12.7516
    12.7647  12.7648  12.7648  12.7648  12.9325  12.9325  12.9325  12.9325
    13.1409  13.1410  13.1410  13.1410  13.2706  13.2707  13.2707  13.2707
    13.3667  13.3668  13.3668  13.3668  13.3759  13.3759  13.3759  13.3759
    13.5135  13.5135  13.5135  13.5136  13.7537  13.7537  13.7537  13.7538
    14.8519  14.8519  14.8519  14.8520  14.9172  14.9173  14.9173  14.9173
    14.9887  14.9888  14.9888  14.9888  15.0849  15.0850  15.0850  15.0851
    15.0894  15.0895  15.0895  15.0896  15.1518  15.1518  15.1518  15.1519
    15.3830  15.3831  15.3831  15.3831  15.4652  15.4652  15.4652  15.4654
    15.8236  15.8237  15.8237  15.8238  16.6626  16.6626  16.6626  16.6626
    20.3166  20.3168

          k = 0.3604 0.3604 0.3604 ( 13757 PWs)   bands (ev):

   -71.9609 -71.9525 -71.9525 -71.9524 -71.9464 -71.9464 -71.9463 -71.9417
   -71.9251 -71.9225 -71.9225 -71.9225 -71.9185 -71.9185 -71.9185 -71.9123
   -38.0842 -38.0842 -38.0842 -38.0784 -38.0784 -38.0783 -38.0674 -38.0607
   -38.0607 -38.0532 -38.0532 -38.0532 -38.0513 -38.0513 -38.0310 -38.0310
   -38.0310 -38.0227 -38.0227 -38.0227 -38.0220 -38.0220 -38.0219 -37.9850
   -37.9447 -37.9168 -37.9168 -37.9168 -37.9091 -37.9091 -37.9091 -37.9012
   -37.9012 -37.8957 -37.8957 -37.8957 -37.8951 -37.8951 -37.8951 -37.8854
   -37.8702 -37.8702 -37.8702 -37.8681 -37.8681 -37.8657 -37.8657 -37.8656
    10.1434  10.9376  10.9376  10.9376  11.5644  11.5644  11.5644  12.2298
    12.4926  12.4926  12.5933  12.5933  12.5933  12.6943  12.6943  12.6943
    12.7136  12.7136  12.7136  12.8314  13.0783  13.0783  13.1305  13.1305
    13.1718  13.1718  13.1718  13.1821  13.1822  13.1822  13.2562  13.2562
    13.2562  13.3501  13.3502  13.3502  13.3762  13.3762  13.3763  13.3881
    13.3881  13.3881  13.4779  13.4779  13.5780  13.5780  13.5780  13.9380
    14.8177  14.8177  14.8177  14.9054  14.9054  14.9306  14.9306  14.9306
    15.0214  15.0214  15.0295  15.0296  15.0296  15.0493  15.0493  15.0493
    15.0737  15.0737  15.0737  15.1501  15.1750  15.1750  15.1750  15.2609
    15.2609  15.5936  15.5936  15.6110  15.6111  15.6111  15.6589  15.6589
    15.6589  15.6684  15.6684  15.6685  16.2723  16.2723  16.2723  17.0683
    20.6290  20.6290

          k = 0.3604 0.3604-0.4634 ( 13762 PWs)   bands (ev):

   -71.9570 -71.9570 -71.9496 -71.9496 -71.9496 -71.9496 -71.9441 -71.9441
   -71.9237 -71.9237 -71.9204 -71.9203 -71.9203 -71.9203 -71.9151 -71.9151
   -38.0792 -38.0792 -38.0792 -38.0792 -38.0711 -38.0710 -38.0693 -38.0693
   -38.0601 -38.0601 -38.0470 -38.0470 -38.0380 -38.0379 -38.0379 -38.0379
   -38.0374 -38.0373 -38.0309 -38.0309 -38.0309 -38.0309 -38.0037 -38.0037
   -37.9302 -37.9302 -37.9056 -37.9056 -37.9056 -37.9056 -37.9053 -37.9053
   -37.8998 -37.8998 -37.8997 -37.8997 -37.8893 -37.8893 -37.8842 -37.8841
   -37.8807 -37.8807 -37.8690 -37.8690 -37.8690 -37.8690 -37.8659 -37.8658
    10.5184  10.5184  11.2511  11.2511  11.2511  11.2511  11.8965  11.8965
    12.5873  12.5873  12.6358  12.6359  12.6653  12.6653  12.6653  12.6653
    12.7990  12.7990  12.9390  12.9390  12.9390  12.9391  13.0896  13.0897
    13.1233  13.1234  13.1604  13.1604  13.1907  13.1908  13.2507  13.2507
    13.2508  13.2508  13.3474  13.3475  13.3475  13.3475  13.3873  13.3874
    13.3874  13.3874  13.4060  13.4061  13.4171  13.4172  13.7127  13.7127
    14.8630  14.8631  14.8853  14.8853  14.8853  14.8853  14.9746  14.9746
    14.9749  14.9749  15.0266  15.0267  15.0295  15.0296  15.0296  15.0296
    15.1537  15.1537  15.1537  15.1538  15.1875  15.1876  15.3772  15.3773
    15.3934  15.3935  15.4172  15.4173  15.6213  15.6213  15.6214  15.6214
    15.6588  15.6589  15.9547  15.9547  15.9547  15.9547  16.6572  16.6572
    20.9466  20.9468

          k = 0.3604-0.4634-0.4634 ( 13744 PWs)   bands (ev):

   -71.9536 -71.9536 -71.9536 -71.9535 -71.9470 -71.9470 -71.9470 -71.9470
   -71.9218 -71.9218 -71.9218 -71.9218 -71.9175 -71.9175 -71.9174 -71.9174
   -38.0725 -38.0724 -38.0724 -38.0724 -38.0696 -38.0696 -38.0696 -38.0695
   -38.0488 -38.0488 -38.0488 -38.0488 -38.0443 -38.0443 -38.0443 -38.0442
   -38.0412 -38.0411 -38.0411 -38.0411 -38.0209 -38.0208 -38.0208 -38.0208
   -37.9173 -37.9172 -37.9172 -37.9172 -37.8984 -37.8984 -37.8984 -37.8983
   -37.8967 -37.8966 -37.8966 -37.8966 -37.8865 -37.8865 -37.8865 -37.8864
   -37.8792 -37.8791 -37.8791 -37.8791 -37.8692 -37.8691 -37.8691 -37.8691
    10.8707  10.8707  10.8707  10.8707  11.5751  11.5752  11.5752  11.5752
    12.6488  12.6489  12.6489  12.6489  12.8017  12.8017  12.8017  12.8017
    12.8894  12.8894  12.8894  12.8894  12.9042  12.9042  12.9042  12.9042
    13.1969  13.1969  13.1969  13.1970  13.2110  13.2110  13.2110  13.2111
    13.2169  13.2169  13.2169  13.2170  13.3147  13.3148  13.3148  13.3148
    13.3646  13.3647  13.3647  13.3647  13.4948  13.4949  13.4949  13.4949
    14.9002  14.9002  14.9002  14.9003  14.9374  14.9374  14.9374  14.9375
    14.9757  14.9758  14.9758  14.9758  15.0205  15.0205  15.0205  15.0206
    15.2319  15.2320  15.2320  15.2320  15.3056  15.3056  15.3056  15.3057
    15.4660  15.4661  15.4661  15.4662  15.6173  15.6174  15.6174  15.6175
    15.6632  15.6633  15.6633  15.6633  16.2936  16.2936  16.2936  16.2936
    21.4367  21.4371

          k =-0.4634-0.4634-0.4634 ( 13776 PWs)   bands (ev):

   -71.9506 -71.9506 -71.9506 -71.9506 -71.9506 -71.9506 -71.9505 -71.9505
   -71.9194 -71.9194 -71.9194 -71.9194 -71.9194 -71.9194 -71.9194 -71.9194
   -38.0582 -38.0582 -38.0582 -38.0581 -38.0581 -38.0581 -38.0581 -38.0581
   -38.0581 -38.0581 -38.0581 -38.0580 -38.0580 -38.0580 -38.0580 -38.0580
   -38.0350 -38.0350 -38.0350 -38.0350 -38.0349 -38.0349 -38.0349 -38.0349
   -37.9062 -37.9061 -37.9061 -37.9061 -37.9061 -37.9061 -37.9061 -37.9060
   -37.8826 -37.8826 -37.8826 -37.8826 -37.8826 -37.8826 -37.8826 -37.8826
   -37.8826 -37.8826 -37.8826 -37.8825 -37.8825 -37.8825 -37.8825 -37.8825
    11.2140  11.2140  11.2140  11.2140  11.2140  11.2140  11.2140  11.2141
    12.8446  12.8446  12.8446  12.8446  12.8446  12.8446  12.8447  12.8447
    12.8447  12.8447  12.8447  12.8447  12.8447  12.8447  12.8447  12.8447
    13.2560  13.2560  13.2561  13.2561  13.2561  13.2561  13.2561  13.2561
    13.2561  13.2561  13.2561  13.2562  13.2562  13.2562  13.2562  13.2562
    13.2677  13.2678  13.2678  13.2678  13.2678  13.2678  13.2678  13.2679
    14.9580  14.9580  14.9580  14.9580  14.9580  14.9580  14.9580  14.9580
    14.9580  14.9580  14.9580  14.9581  14.9581  14.9581  14.9582  14.9582
    15.4125  15.4125  15.4127  15.4127  15.4127  15.4127  15.4127  15.4127
    15.4127  15.4127  15.4127  15.4128  15.4128  15.4128  15.4128  15.4128
    15.9661  15.9662  15.9662  15.9662  15.9662  15.9662  15.9662  15.9662
    22.5150  22.5153

 ------ SPIN DOWN ----------


          k = 0.0515 0.0515 0.0515 ( 13721 PWs)   bands (ev):

   -69.0419 -68.9942 -68.9942 -68.9942 -68.9868 -68.9868 -68.9868 -68.9860
   -68.9860 -68.9860 -68.9859 -68.9858 -68.9858 -68.9830 -68.9829 -68.9456
   -35.2819 -35.2819 -35.2818 -35.2806 -35.2805 -35.2805 -35.1951 -35.1951
   -35.1914 -35.1457 -35.1437 -35.1436 -35.1436 -35.1324 -35.1324 -35.1232
   -35.1232 -35.1232 -35.1042 -35.1042 -35.0898 -35.0850 -35.0850 -35.0849
   -35.0782 -35.0782 -35.0782 -35.0710 -35.0710 -35.0710 -35.0692 -35.0692
   -35.0692 -35.0646 -35.0646 -35.0646 -35.0581 -35.0580 -35.0580 -34.9655
   -34.9626 -34.9625 -34.9625 -34.9618 -34.9618 -34.9608 -34.9608 -34.9608
     8.3330  11.9994  11.9994  11.9995  12.6482  12.6482  12.6482  12.9998
    12.9998  12.9998  13.0476  13.0476  13.0476  13.7524  13.7524  14.6105
    14.6678  14.6678  14.7230  14.7279  14.7279  14.9422  14.9422  14.9422
    14.9529  14.9529  14.9529  15.5571  15.5571  15.5571  15.8854  15.8854
    15.8854  16.0725  16.0725  16.1118  16.2796  16.2797  16.2797  16.4046
    16.4046  16.4046  16.4322  16.4322  16.4322  16.5173  16.5173  16.5173
    16.5226  16.5226  16.5227  16.5333  16.5333  16.5333  17.2039  17.2039
    17.2039  17.4115  17.4115  17.4115  17.7745  17.7745  17.7745  17.7954
    17.7954  17.7954  17.9323  17.9323  18.1638  18.1638  18.1638  18.2012
    18.2012  18.2018  18.2018  18.2642  18.2642  18.2642  18.3917  18.4618
    18.4618  18.5794  18.5794  18.5794  18.7618  18.7619  18.7619  18.7963
    18.7963  18.7963

          k = 0.0515 0.0515 0.1545 ( 13703 PWs)   bands (ev):

   -69.0403 -69.0028 -68.9939 -68.9939 -68.9877 -68.9877 -68.9866 -68.9858
   -68.9858 -68.9857 -68.9854 -68.9854 -68.9832 -68.9830 -68.9778 -68.9468
   -35.2777 -35.2777 -35.2770 -35.2757 -35.2728 -35.2728 -35.1967 -35.1913
   -35.1856 -35.1664 -35.1619 -35.1619 -35.1607 -35.1600 -35.1423 -35.1423
   -35.1231 -35.1076 -35.1053 -35.1007 -35.0980 -35.0847 -35.0847 -35.0764
   -35.0742 -35.0730 -35.0730 -35.0720 -35.0686 -35.0678 -35.0677 -35.0648
   -35.0648 -35.0613 -35.0613 -35.0446 -35.0421 -35.0421 -35.0386 -34.9740
   -34.9672 -34.9672 -34.9668 -34.9654 -34.9654 -34.9633 -34.9624 -34.9624
     8.4520  11.3154  12.0727  12.0727  12.7100  12.7100  12.9409  12.9409
    13.0870  13.0877  13.0877  13.1333  13.1994  13.7856  13.8107  14.5272
    14.5667  14.6483  14.6832  14.8056  14.8338  14.9189  14.9282  14.9845
    14.9845  15.0166  15.0166  15.2130  15.4661  15.4661  15.7249  15.7249
    16.0496  16.0657  16.0800  16.1086  16.1086  16.1629  16.1653  16.2522
    16.2522  16.2599  16.2599  16.2904  16.2904  16.3236  16.3260  16.4602
    16.6119  16.6119  16.6236  16.6562  16.6562  16.7091  17.0006  17.3876
    17.3876  17.5911  17.5911  17.6174  17.7094  17.7094  17.7667  17.7667
    17.7968  17.8148  17.8677  17.9582  18.1662  18.1699  18.1720  18.1983
    18.2001  18.2167  18.2268  18.2268  18.2345  18.3338  18.4385  18.4565
    18.4614  18.4614  18.5787  18.5787  18.6866  18.6866  18.8062  18.8062
    18.8215  18.8215

          k = 0.0515 0.0515 0.2575 ( 13714 PWs)   bands (ev):

   -69.0369 -69.0111 -68.9933 -68.9932 -68.9888 -68.9888 -68.9862 -68.9856
   -68.9856 -68.9855 -68.9852 -68.9852 -68.9836 -68.9834 -68.9703 -68.9494
   -35.2678 -35.2677 -35.2671 -35.2659 -35.2594 -35.2594 -35.1968 -35.1900
   -35.1869 -35.1858 -35.1858 -35.1840 -35.1772 -35.1740 -35.1676 -35.1676
   -35.1249 -35.1177 -35.1154 -35.1053 -35.0837 -35.0836 -35.0800 -35.0774
   -35.0762 -35.0753 -35.0753 -35.0665 -35.0665 -35.0649 -35.0649 -35.0501
   -35.0462 -35.0409 -35.0409 -35.0260 -35.0227 -35.0227 -35.0203 -34.9871
   -34.9760 -34.9760 -34.9754 -34.9747 -34.9718 -34.9685 -34.9675 -34.9675
     8.6875  10.6465  12.2087  12.2088  12.8190  12.8190  12.8578  12.8578
    13.1131  13.1131  13.2549  13.2982  13.5975  13.8403  13.9260  14.3467
    14.3476  14.6624  14.6729  14.8753  14.8827  14.8829  14.9603  14.9874
    15.0778  15.0778  15.1308  15.1308  15.3650  15.3650  15.5742  15.5742
    15.8721  15.8721  15.9182  15.9182  15.9622  15.9622  16.0011  16.0011
    16.0236  16.0319  16.0335  16.0559  16.0820  16.0877  16.2400  16.7323
    16.8081  16.8525  16.8588  16.8588  16.8718  16.8718  16.9440  17.6027
    17.6027  17.6381  17.6381  17.6848  17.6848  17.7406  17.8150  17.8332
    17.8332  17.8395  17.8540  17.9979  18.0073  18.1067  18.1136  18.1175
    18.1708  18.1915  18.1937  18.1964  18.3252  18.3252  18.3327  18.3969
    18.5392  18.5392  18.5756  18.5756  18.5801  18.5801  18.8549  18.8550
    18.8615  18.8615

          k = 0.0515 0.0515 0.3604 ( 13740 PWs)   bands (ev):

   -69.0322 -69.0190 -68.9924 -68.9923 -68.9900 -68.9900 -68.9856 -68.9854
   -68.9854 -68.9852 -68.9852 -68.9850 -68.9843 -68.9839 -68.9636 -68.9529
   -35.2526 -35.2526 -35.2526 -35.2520 -35.2412 -35.2412 -35.2132 -35.2120
   -35.2102 -35.2102 -35.1944 -35.1940 -35.1940 -35.1839 -35.1731 -35.1658
   -35.1432 -35.1355 -35.1066 -35.0999 -35.0883 -35.0848 -35.0819 -35.0819
   -35.0777 -35.0777 -35.0657 -35.0657 -35.0650 -35.0650 -35.0514 -35.0265
   -35.0241 -35.0211 -35.0211 -35.0089 -35.0054 -35.0047 -35.0046 -35.0036
   -34.9882 -34.9882 -34.9882 -34.9879 -34.9816 -34.9774 -34.9765 -34.9764
     9.0346  10.0283  12.3857  12.3857  12.7358  12.7358  12.9453  12.9453
    13.1067  13.1067  13.4898  13.5282  13.8232  13.8929  14.0688  14.0877
    14.0958  14.5807  14.7017  14.7060  14.8186  14.8237  15.1646  15.1899
    15.2178  15.2178  15.2894  15.2895  15.3245  15.3245  15.4885  15.4885
    15.6135  15.6135  15.6391  15.6391  15.6903  15.6903  15.7078  15.7256
    15.7450  15.7450  16.0211  16.0421  16.0471  16.0574  16.3444  16.6315
    17.0371  17.0758  17.0758  17.1174  17.1282  17.1282  17.2169  17.4582
    17.4583  17.5476  17.5476  17.5550  17.7120  17.8218  17.8942  17.8942
    17.8983  17.9096  17.9979  18.0436  18.0492  18.0741  18.0749  18.0749
    18.1769  18.1837  18.1884  18.1905  18.2400  18.2955  18.3062  18.3062
    18.4532  18.4532  18.5212  18.5212  18.5659  18.5659  18.9064  18.9064
    18.9217  18.9217

          k = 0.0515 0.0515-0.4634 ( 13740 PWs)   bands (ev):

   -69.0262 -69.0262 -68.9912 -68.9912 -68.9912 -68.9912 -68.9853 -68.9852
   -68.9852 -68.9852 -68.9850 -68.9850 -68.9845 -68.9845 -68.9577 -68.9577
   -35.2341 -35.2341 -35.2340 -35.2340 -35.2329 -35.2329 -35.2329 -35.2329
   -35.2190 -35.2190 -35.2190 -35.2189 -35.1903 -35.1903 -35.1595 -35.1595
   -35.1516 -35.1516 -35.0976 -35.0975 -35.0926 -35.0926 -35.0799 -35.0799
   -35.0799 -35.0799 -35.0652 -35.0652 -35.0652 -35.0652 -35.0273 -35.0272
   -35.0054 -35.0054 -35.0047 -35.0047 -35.0032 -35.0032 -35.0032 -35.0032
   -34.9941 -34.9941 -34.9894 -34.9894 -34.9889 -34.9889 -34.9889 -34.9889
     9.4854   9.4855  12.5723  12.5723  12.5723  12.5723  13.0505  13.0505
    13.0506  13.0506  13.7708  13.7708  13.8015  13.8015  13.9041  13.9041
    14.3159  14.3159  14.7574  14.7574  14.7609  14.7609  15.3839  15.3839
[...]
   -35.1458 -35.1360 -35.1360 -35.1360 -35.1197 -35.1127 -35.1127 -35.1127
   -35.0528 -35.0528 -35.0528 -35.0515 -35.0515 -35.0515 -35.0514 -35.0461
   -35.0461 -35.0301 -35.0301 -35.0301 -35.0073 -34.9983 -34.9982 -34.9982
   -34.9848 -34.9848 -34.9848 -34.9738 -34.9738 -34.9738 -34.9720 -34.9720
     9.3719  11.2082  11.2082  11.2082  12.5135  12.5135  12.5135  13.7535
    13.7535  13.7535  13.8155  13.9003  13.9003  13.9003  14.1332  14.1332
    14.3770  14.7717  14.7717  14.8011  14.8011  14.8011  14.8788  14.8788
    15.0461  15.0461  15.0461  15.1915  15.1916  15.1916  15.3658  15.3658
    15.3658  15.4415  15.4415  15.4415  15.5327  15.5327  15.5327  15.5990
    15.5990  15.5990  15.8009  15.8009  15.9646  15.9646  15.9646  16.7824
    16.8500  17.2316  17.2316  17.2316  17.2961  17.2961  17.2961  17.5229
    17.5229  17.5229  17.6038  17.6038  17.6038  17.7835  17.7835  17.7836
    17.8425  17.8425  18.0294  18.0294  18.0853  18.0853  18.1057  18.1057
    18.1057  18.1597  18.1597  18.1597  18.1734  18.1734  18.2457  18.2457
    18.2457  18.3318  18.3318  18.3318  18.6968  18.6968  18.6968  20.3442
    20.3686  20.3686

          k = 0.2575 0.2575 0.3604 ( 13740 PWs)   bands (ev):

   -69.0239 -69.0130 -69.0042 -69.0041 -68.9983 -68.9983 -68.9937 -68.9904
   -68.9804 -68.9794 -68.9770 -68.9770 -68.9736 -68.9736 -68.9670 -68.9584
   -35.2454 -35.2454 -35.2389 -35.2251 -35.2250 -35.2218 -35.2175 -35.2175
   -35.2078 -35.2058 -35.2057 -35.2001 -35.1870 -35.1647 -35.1647 -35.1614
   -35.1553 -35.1371 -35.1371 -35.1284 -35.1241 -35.1240 -35.1225 -35.1028
   -35.0736 -35.0681 -35.0538 -35.0508 -35.0442 -35.0441 -35.0361 -35.0361
   -35.0329 -35.0329 -35.0233 -35.0119 -35.0093 -35.0093 -35.0018 -34.9973
   -34.9868 -34.9824 -34.9806 -34.9805 -34.9775 -34.9747 -34.9746 -34.9705
     9.7019  10.6363  11.4735  11.4735  12.1560  12.1560  12.7844  13.4757
    13.9070  13.9070  13.9540  13.9944  13.9944  14.1413  14.2066  14.2606
    14.3395  14.6049  14.8087  14.8087  14.8317  14.8387  14.8627  14.9785
    14.9892  15.0458  15.1166  15.1166  15.1317  15.1317  15.2233  15.2475
    15.3559  15.3559  15.3867  15.3867  15.3935  15.3935  15.4861  15.4861
    15.5942  15.6126  15.7021  15.7380  15.7380  15.7476  16.0743  16.5318
    16.9723  17.3136  17.3136  17.3904  17.4207  17.4409  17.4410  17.4485
    17.4491  17.4491  17.6589  17.7230  17.7230  17.7348  17.8472  17.8539
    17.8539  17.9172  17.9236  17.9283  18.0087  18.0506  18.0941  18.0941
    18.0959  18.1054  18.1293  18.1929  18.2033  18.2033  18.2229  18.2229
    18.2286  18.2524  18.3190  18.3190  18.4455  18.4455  19.0754  19.9072
    20.6380  20.6380

          k = 0.2575 0.2575-0.4634 ( 13736 PWs)   bands (ev):

   -69.0189 -69.0189 -69.0014 -69.0014 -69.0014 -69.0014 -68.9922 -68.9921
   -68.9799 -68.9799 -68.9751 -68.9751 -68.9751 -68.9750 -68.9623 -68.9623
   -35.2353 -35.2353 -35.2353 -35.2353 -35.2212 -35.2212 -35.2197 -35.2197
   -35.2147 -35.2147 -35.1855 -35.1855 -35.1855 -35.1854 -35.1725 -35.1725
   -35.1452 -35.1452 -35.1325 -35.1325 -35.1325 -35.1325 -35.0978 -35.0978
   -35.0855 -35.0855 -35.0533 -35.0533 -35.0375 -35.0375 -35.0375 -35.0374
   -35.0219 -35.0219 -35.0219 -35.0219 -35.0035 -35.0034 -34.9986 -34.9985
   -34.9957 -34.9957 -34.9768 -34.9767 -34.9767 -34.9767 -34.9725 -34.9725
    10.1279  10.1279  11.7984  11.7984  11.7984  11.7984  13.1155  13.1156
    14.0014  14.0014  14.0014  14.0014  14.1716  14.1716  14.2297  14.2297
    14.4208  14.4208  14.9036  14.9037  14.9114  14.9114  14.9159  14.9159
    14.9159  14.9159  15.0218  15.0218  15.1164  15.1164  15.2478  15.2478
    15.2478  15.2478  15.4113  15.4113  15.4113  15.4114  15.5317  15.5317
    15.5317  15.5318  15.6300  15.6301  15.6840  15.6840  16.2628  16.2628
    17.1766  17.1767  17.3740  17.3740  17.3740  17.3740  17.6001  17.6002
    17.6013  17.6013  17.6013  17.6013  17.6563  17.6564  17.7971  17.7972
    17.9254  17.9255  18.0258  18.0259  18.0557  18.0557  18.0557  18.0557
    18.1016  18.1016  18.1025  18.1025  18.2504  18.2504  18.2505  18.2505
    18.2660  18.2661  18.2686  18.2686  18.2687  18.2687  19.4846  19.4846
    20.8570  20.8570

          k = 0.2575 0.3604 0.3604 ( 13750 PWs)   bands (ev):

   -69.0202 -69.0102 -69.0102 -69.0027 -69.0021 -68.9968 -68.9968 -68.9927
   -68.9791 -68.9774 -68.9774 -68.9747 -68.9737 -68.9687 -68.9687 -68.9611
   -35.2403 -35.2327 -35.2326 -35.2245 -35.2237 -35.2236 -35.2147 -35.2112
   -35.2082 -35.2082 -35.2029 -35.1858 -35.1848 -35.1779 -35.1667 -35.1560
   -35.1560 -35.1458 -35.1426 -35.1426 -35.1402 -35.1402 -35.1382 -35.0954
   -35.0856 -35.0517 -35.0517 -35.0439 -35.0439 -35.0422 -35.0336 -35.0318
   -35.0242 -35.0219 -35.0158 -35.0150 -35.0150 -35.0042 -35.0042 -35.0003
   -34.9873 -34.9862 -34.9862 -34.9827 -34.9756 -34.9756 -34.9735 -34.9722
    10.0234  10.9268  10.9268  11.7112  11.7417  12.4292  12.4292  13.1273
    14.1032  14.1032  14.1062  14.1339  14.2394  14.2394  14.3165  14.3433
    14.4065  14.6474  14.6474  14.7711  14.8146  14.8899  14.9211  14.9719
    14.9934  14.9934  14.9957  15.0560  15.0561  15.2042  15.2050  15.2050
    15.2131  15.2131  15.2723  15.3543  15.4005  15.4240  15.4451  15.4451
    15.5207  15.5207  15.5325  15.6022  15.6636  15.8059  15.8060  16.2153
    17.1837  17.4156  17.4486  17.4486  17.4498  17.5668  17.5687  17.5687
    17.6017  17.6017  17.6418  17.6418  17.7389  17.7583  17.7949  17.7949
    17.8304  17.8704  17.9140  17.9641  18.0244  18.0491  18.0493  18.0777
    18.0899  18.0899  18.0912  18.0912  18.1466  18.1692  18.1717  18.1717
    18.2279  18.2445  18.2446  18.2824  18.3245  18.7808  18.7808  19.5185
    20.9770  21.4387

          k = 0.2575 0.3604-0.4634 ( 13748 PWs)   bands (ev):

   -69.0156 -69.0156 -69.0067 -69.0067 -68.9996 -68.9996 -68.9949 -68.9949
   -68.9782 -68.9782 -68.9759 -68.9759 -68.9709 -68.9709 -68.9645 -68.9645
   -35.2321 -35.2321 -35.2271 -35.2270 -35.2186 -35.2186 -35.2175 -35.2175
   -35.2113 -35.2113 -35.1931 -35.1931 -35.1725 -35.1724 -35.1642 -35.1642
   -35.1560 -35.1559 -35.1495 -35.1495 -35.1467 -35.1467 -35.1191 -35.1190
   -35.0683 -35.0682 -35.0426 -35.0426 -35.0372 -35.0372 -35.0363 -35.0362
   -35.0217 -35.0217 -35.0134 -35.0134 -35.0011 -35.0011 -35.0006 -35.0006
   -34.9995 -34.9995 -34.9847 -34.9847 -34.9740 -34.9739 -34.9728 -34.9728
    10.4366  10.4366  11.2921  11.2922  12.0697  12.0697  12.7634  12.7634
    14.1851  14.1851  14.2302  14.2302  14.3053  14.3054  14.3373  14.3373
    14.4880  14.4880  14.7818  14.7818  14.8272  14.8272  14.8613  14.8613
    14.9711  14.9711  15.0396  15.0396  15.0907  15.0907  15.1558  15.1558
    15.2544  15.2544  15.3092  15.3093  15.3522  15.3522  15.4470  15.4471
    15.5100  15.5100  15.5837  15.5837  15.5892  15.5893  15.9612  15.9612
    17.4086  17.4086  17.4260  17.4260  17.5396  17.5396  17.6329  17.6329
    17.6810  17.6810  17.6840  17.6841  17.6910  17.6911  17.7523  17.7524
    17.8806  17.8807  17.8998  17.8999  17.9869  17.9869  18.0559  18.0560
    18.0705  18.0706  18.0841  18.0841  18.0941  18.0942  18.1450  18.1450
    18.2533  18.2534  18.2929  18.2929  18.5025  18.5025  19.1440  19.1440
    21.2853  21.2853

          k = 0.2575-0.4634-0.4634 ( 13712 PWs)   bands (ev):

   -69.0115 -69.0115 -69.0114 -69.0114 -68.9974 -68.9974 -68.9974 -68.9974
   -68.9769 -68.9769 -68.9768 -68.9768 -68.9673 -68.9673 -68.9673 -68.9673
   -35.2255 -35.2255 -35.2255 -35.2254 -35.2196 -35.2196 -35.2196 -35.2196
   -35.2022 -35.2022 -35.2022 -35.2022 -35.1635 -35.1634 -35.1634 -35.1634
   -35.1563 -35.1563 -35.1563 -35.1562 -35.1416 -35.1416 -35.1416 -35.1416
   -35.0513 -35.0513 -35.0513 -35.0513 -35.0380 -35.0380 -35.0380 -35.0379
   -35.0087 -35.0087 -35.0087 -35.0087 -35.0060 -35.0060 -35.0060 -35.0060
   -34.9936 -34.9936 -34.9936 -34.9936 -34.9728 -34.9728 -34.9728 -34.9728
    10.8304  10.8304  10.8304  10.8305  12.4014  12.4014  12.4014  12.4015
    14.3305  14.3305  14.3305  14.3305  14.3444  14.3444  14.3444  14.3444
    14.6250  14.6251  14.6251  14.6251  14.7750  14.7750  14.7750  14.7750
    15.0563  15.0563  15.0563  15.0563  15.1252  15.1252  15.1252  15.1252
    15.1986  15.1986  15.1986  15.1986  15.3955  15.3955  15.3955  15.3956
    15.5109  15.5109  15.5109  15.5109  15.7238  15.7238  15.7238  15.7239
    17.5252  17.5253  17.5253  17.5253  17.6533  17.6533  17.6533  17.6534
    17.6712  17.6713  17.6713  17.6713  17.7241  17.7242  17.7242  17.7242
    17.7915  17.7916  17.7916  17.7917  17.9843  17.9844  17.9844  17.9844
    18.0767  18.0768  18.0768  18.0769  18.0893  18.0894  18.0894  18.0895
    18.2834  18.2834  18.2834  18.2835  18.8162  18.8163  18.8163  18.8163
    21.7114  21.7114

          k = 0.3604 0.3604 0.3604 ( 13757 PWs)   bands (ev):

   -69.0169 -69.0076 -69.0075 -69.0075 -69.0008 -69.0008 -69.0008 -68.9957
   -68.9773 -68.9746 -68.9745 -68.9745 -68.9703 -68.9702 -68.9702 -68.9635
   -35.2268 -35.2268 -35.2268 -35.2199 -35.2199 -35.2199 -35.2083 -35.1995
   -35.1995 -35.1924 -35.1924 -35.1924 -35.1896 -35.1896 -35.1660 -35.1660
   -35.1660 -35.1580 -35.1580 -35.1580 -35.1561 -35.1560 -35.1560 -35.1154
   -35.0687 -35.0375 -35.0375 -35.0375 -35.0292 -35.0292 -35.0292 -35.0206
   -35.0206 -35.0142 -35.0142 -35.0142 -35.0133 -35.0133 -35.0133 -35.0024
   -34.9859 -34.9859 -34.9858 -34.9832 -34.9832 -34.9806 -34.9806 -34.9806
    10.3381  11.2162  11.2162  11.2162  11.9933  11.9933  11.9933  12.7332
    14.3047  14.3047  14.3047  14.3936  14.3936  14.3936  14.4299  14.4299
    14.5873  14.6520  14.6520  14.6520  14.8534  14.8534  14.9384  14.9384
    14.9384  14.9641  14.9641  15.1305  15.1305  15.1305  15.1719  15.1720
    15.1720  15.2239  15.2239  15.2239  15.3623  15.3623  15.3623  15.3680
    15.3680  15.3680  15.5293  15.5293  15.5293  15.5322  15.5322  15.8888
    17.4125  17.5850  17.5850  17.5850  17.6080  17.6080  17.6080  17.6689
    17.6689  17.6689  17.8133  17.8133  17.8133  17.8488  17.8488  17.8978
    17.8978  17.8978  17.9190  17.9190  17.9950  17.9950  17.9958  17.9958
    18.0378  18.0378  18.0378  18.0690  18.0690  18.0690  18.1416  18.1416
    18.1416  18.1495  18.1495  18.1495  18.4796  18.4796  18.4796  19.1578
    21.9376  21.9376

          k = 0.3604 0.3604-0.4634 ( 13762 PWs)   bands (ev):

   -69.0125 -69.0125 -69.0045 -69.0044 -69.0044 -69.0044 -68.9983 -68.9983
   -68.9758 -68.9758 -68.9723 -68.9722 -68.9722 -68.9722 -68.9665 -68.9665
   -35.2210 -35.2210 -35.2210 -35.2209 -35.2114 -35.2114 -35.2099 -35.2099
   -35.2001 -35.2001 -35.1841 -35.1841 -35.1752 -35.1751 -35.1751 -35.1751
   -35.1737 -35.1736 -35.1661 -35.1661 -35.1661 -35.1661 -35.1365 -35.1365
   -35.0525 -35.0525 -35.0251 -35.0251 -35.0250 -35.0250 -35.0250 -35.0250
   -35.0188 -35.0187 -35.0187 -35.0187 -35.0068 -35.0068 -35.0015 -35.0015
   -34.9973 -34.9973 -34.9844 -34.9844 -34.9844 -34.9844 -34.9808 -34.9807
    10.7410  10.7410  11.5790  11.5790  11.5791  11.5791  12.3429  12.3429
    14.4272  14.4272  14.4272  14.4272  14.4871  14.4871  14.5196  14.5196
    14.5355  14.5355  14.7594  14.7594  14.7594  14.7594  14.8970  14.8970
    14.9340  14.9340  15.0473  15.0474  15.0707  15.0707  15.2315  15.2315
    15.2315  15.2316  15.2852  15.2852  15.2853  15.2853  15.3045  15.3046
    15.3046  15.3046  15.4294  15.4294  15.4504  15.4504  15.6389  15.6389
    17.6221  17.6221  17.6221  17.6221  17.6567  17.6568  17.7641  17.7641
    17.7642  17.7642  17.7655  17.7655  17.7725  17.7725  17.7796  17.7796
    17.9026  17.9027  17.9517  17.9517  18.0111  18.0112  18.0200  18.0200
    18.0222  18.0222  18.0223  18.0223  18.0972  18.0973  18.1217  18.1217
    18.1217  18.1217  18.1993  18.1993  18.1993  18.1994  18.8134  18.8135
    22.2116  22.2116

          k = 0.3604-0.4634-0.4634 ( 13744 PWs)   bands (ev):

   -69.0088 -69.0088 -69.0087 -69.0087 -69.0015 -69.0015 -69.0015 -69.0015
   -68.9738 -68.9738 -68.9738 -68.9738 -68.9691 -68.9691 -68.9691 -68.9691
   -35.2131 -35.2131 -35.2131 -35.2131 -35.2101 -35.2101 -35.2101 -35.2101
   -35.1874 -35.1873 -35.1873 -35.1873 -35.1812 -35.1811 -35.1811 -35.1811
   -35.1778 -35.1778 -35.1778 -35.1778 -35.1558 -35.1558 -35.1558 -35.1558
   -35.0380 -35.0380 -35.0380 -35.0380 -35.0173 -35.0173 -35.0173 -35.0173
   -35.0150 -35.0149 -35.0149 -35.0149 -35.0038 -35.0038 -35.0038 -35.0038
   -34.9958 -34.9958 -34.9958 -34.9958 -34.9845 -34.9845 -34.9845 -34.9845
    11.1279  11.1279  11.1279  11.1280  11.9373  11.9373  11.9373  11.9374
    14.5260  14.5260  14.5260  14.5260  14.6151  14.6151  14.6151  14.6151
    14.6584  14.6585  14.6585  14.6585  14.7358  14.7358  14.7358  14.7358
    15.0661  15.0662  15.0662  15.0662  15.1425  15.1425  15.1425  15.1425
    15.1515  15.1516  15.1516  15.1516  15.3196  15.3196  15.3196  15.3197
    15.3583  15.3583  15.3583  15.3583  15.3901  15.3901  15.3901  15.3902
    17.7352  17.7352  17.7352  17.7353  17.7580  17.7580  17.7580  17.7581
    17.8087  17.8087  17.8087  17.8088  17.8530  17.8531  17.8531  17.8532
    17.9206  17.9207  17.9207  17.9207  17.9518  17.9519  17.9519  17.9519
    18.0068  18.0069  18.0069  18.0069  18.0074  18.0075  18.0075  18.0075
    18.0783  18.0783  18.0783  18.0784  18.5000  18.5001  18.5001  18.5001
    22.6758  22.6759

          k =-0.4634-0.4634-0.4634 ( 13776 PWs)   bands (ev):

   -69.0055 -69.0055 -69.0055 -69.0055 -69.0055 -69.0054 -69.0054 -69.0054
   -68.9712 -68.9712 -68.9712 -68.9712 -68.9712 -68.9711 -68.9711 -68.9711
   -35.1970 -35.1970 -35.1970 -35.1969 -35.1969 -35.1969 -35.1969 -35.1969
   -35.1969 -35.1969 -35.1969 -35.1969 -35.1969 -35.1969 -35.1969 -35.1969
   -35.1718 -35.1718 -35.1718 -35.1717 -35.1717 -35.1717 -35.1717 -35.1717
   -35.0256 -35.0256 -35.0256 -35.0256 -35.0255 -35.0255 -35.0255 -35.0255
   -34.9996 -34.9996 -34.9996 -34.9996 -34.9996 -34.9996 -34.9996 -34.9996
   -34.9996 -34.9996 -34.9996 -34.9995 -34.9995 -34.9995 -34.9995 -34.9995
    11.5036  11.5036  11.5036  11.5036  11.5037  11.5037  11.5037  11.5037
    14.6964  14.6964  14.6964  14.6965  14.6965  14.6965  14.6965  14.6965
    14.6965  14.6965  14.6965  14.6965  14.6965  14.6965  14.6965  14.6965
    15.1000  15.1000  15.1000  15.1000  15.1000  15.1000  15.1000  15.1001
    15.2324  15.2324  15.2324  15.2324  15.2324  15.2324  15.2324  15.2324
    15.2324  15.2324  15.2324  15.2324  15.2324  15.2324  15.2325  15.2325
    17.8966  17.8966  17.8966  17.8966  17.8966  17.8966  17.8966  17.8966
    17.8966  17.8966  17.8966  17.8967  17.8967  17.8967  17.8968  17.8968
    17.9075  17.9075  17.9076  17.9076  17.9076  17.9076  17.9076  17.9076
    17.9076  17.9076  17.9076  17.9076  17.9076  17.9076  17.9077  17.9077
    18.2045  18.2046  18.2046  18.2046  18.2046  18.2046  18.2046  18.2047
    23.6498  23.6498

     the Fermi energy is    16.0679 ev

!    total energy              =   -5268.10460584 Ry

     total all-electron energy =    -40728.849135 Ry
     estimated scf accuracy    <       0.00000008 Ry
     smearing contrib. (-TS)   =       0.14149365 Ry
     internal energy E=F+TS    =   -5268.24609949 Ry

     The total energy is F=E-TS. E is the sum of the following terms:
     one-electron contribution =   -1905.03590340 Ry
     hartree contribution      =    1095.62205896 Ry
     xc contribution           =    -443.50249276 Ry
     ewald contribution        =   -2690.72735685 Ry
     one-center paw contrib.   =   -1324.60240544 Ry

     total magnetization       =    39.15 Bohr mag/cell
     absolute magnetization    =    41.51 Bohr mag/cell

     convergence has been achieved in  19 iterations

     negative rho (up, down):  0.000E+00 8.609E-04

     Forces acting on atoms (cartesian axes, Ry/au):

     atom    1 type  1   force =     0.00000000    0.00000000    0.00000000
     atom    2 type  2   force =     0.00011924    0.00011924    0.00011924
     atom    3 type  1   force =     0.00000000    0.00000000    0.00000000
     atom    4 type  2   force =     0.00011924    0.00011924   -0.00011924
     atom    5 type  1   force =     0.00000000    0.00000000    0.00000000
     atom    6 type  2   force =     0.00011924   -0.00011924    0.00011924
     atom    7 type  1   force =     0.00000000    0.00000000    0.00000000
     atom    8 type  2   force =     0.00011924   -0.00011924   -0.00011924
     atom    9 type  1   force =     0.00000000    0.00000000    0.00000000
     atom   10 type  2   force =    -0.00011924    0.00011924    0.00011924
     atom   11 type  1   force =     0.00000000    0.00000000    0.00000000
     atom   12 type  2   force =    -0.00011924    0.00011924   -0.00011924
     atom   13 type  1   force =     0.00000000    0.00000000    0.00000000
     atom   14 type  2   force =    -0.00011924   -0.00011924    0.00011924
     atom   15 type  1   force =     0.00000000    0.00000000    0.00000000
     atom   16 type  2   force =    -0.00011924   -0.00011924   -0.00011924

     Total force =     0.000584     Total SCF correction =     0.000475
     SCF correction compared to forces is large: reduce conv_thr to get better values


     Computing stress (Cartesian axis) and pressure


     negative rho (up, down):  0.000E+00 8.609E-04
          total   stress  (Ry/bohr**3)                   (kbar)     P=     -179.73
  -0.00122181   0.00000000   0.00000000         -179.73        0.00        0.00
   0.00000000  -0.00122181   0.00000000            0.00     -179.73        0.00
   0.00000000   0.00000000  -0.00122181            0.00        0.00     -179.73


     Writing output data file /scratch/NEgKAsBmnVQLRnWC.save/
 
     init_run     :      4.65s CPU      4.83s WALL (       1 calls)
     electrons    :    294.50s CPU    300.56s WALL (       1 calls)
     forces       :      2.05s CPU      2.08s WALL (       1 calls)
     stress       :      3.60s CPU      3.64s WALL (       1 calls)

     Called by init_run:
     wfcinit      :      4.07s CPU      4.19s WALL (       1 calls)
     potinit      :      0.17s CPU      0.19s WALL (       1 calls)
     hinit0       :      0.25s CPU      0.26s WALL (       1 calls)

     Called by electrons:
     c_bands      :    263.57s CPU    268.26s WALL (      20 calls)
     sum_band     :     27.74s CPU     28.72s WALL (      20 calls)
     v_of_rho     :      0.29s CPU      0.32s WALL (      20 calls)
     newd         :      0.41s CPU      0.53s WALL (      20 calls)
     PAW_pot      :      2.30s CPU      2.52s WALL (      20 calls)
     mix_rho      :      0.26s CPU      0.29s WALL (      20 calls)

     Called by c_bands:
     init_us_2    :      1.20s CPU      1.26s WALL (    3010 calls)
     cegterg      :    258.68s CPU    263.25s WALL (    1400 calls)

     Called by *egterg:
     cdiaghg      :     61.82s CPU     62.15s WALL (    6518 calls)
     h_psi        :    127.19s CPU    130.97s WALL (    6658 calls)
     s_psi        :      6.64s CPU      6.74s WALL (    6658 calls)
     g_psi        :      0.27s CPU      0.27s WALL (    5188 calls)

     Called by h_psi:
     h_psi:calbec :     19.17s CPU     19.38s WALL (    6658 calls)
     vloc_psi     :     99.89s CPU    103.36s WALL (    6658 calls)
     add_vuspsi   :      7.60s CPU      7.71s WALL (    6658 calls)

     General routines
     calbec       :     27.44s CPU     27.73s WALL (    8408 calls)
     fft          :      0.32s CPU      0.33s WALL (     540 calls)
     ffts         :      0.13s CPU      0.14s WALL (     456 calls)
     fftw         :    114.09s CPU    117.99s WALL ( 1388238 calls)
     interpolate  :      0.03s CPU      0.04s WALL (      40 calls)
 
     Parallel routines
     fft_scatt_xy :      7.64s CPU      7.93s WALL ( 1389234 calls)
     fft_scatt_yz :     93.77s CPU     97.05s WALL ( 1389234 calls)
 
     PWSCF        :   5m12.95s CPU   5m20.19s WALL

 
   This run was terminated on:  13:59:36  17Jan2022            

=------------------------------------------------------------------------------=
   JOB DONE.
=------------------------------------------------------------------------------=
