
     Program PWSCF v.6.7MaX starts on 17Jan2022 at 13:59:41 

     This program is part of the open-source Quantum ESPRESSO suite
     for quantum simulation of materials; please cite
         "P. Giannozzi et al., J. Phys.:Condens. Matter 21 395502 (2009);
         "P. Giannozzi et al., J. Phys.:Condens. Matter 29 465901 (2017);
          URL http://www.quantum-espresso.org", 
     in publications or presentations arising from this work. More details at
     http://www.quantum-espresso.org/quote

     Parallel version (MPI & OpenMP), running on      72 processor cores
     Number of MPI processes:                72
     Threads/MPI process:                     1

     MPI processes distributed on     1 nodes
     R & G space division:  proc/nbgrp/npool/nimage =      72
     Reading input from bcc_7.in
Warning: card &CELL ignored
Warning: card CELL_DYNAMICS = 'BFGS', ignored
Warning: card CELL_FACTOR = 2.0, ignored
Warning: card PRESS = 0.0, ignored
Warning: card / ignored

     Current dimensions of program PWSCF are:
     Max number of different atomic species (ntypx) = 10
     Max number of k-points (npk) =  40000
     Max angular momentum in pseudopotentials (lmaxx) =  3
     file Fe.pbe-spn-kjpaw_psl.1.0.0.UPF: wavefunction(s)  3P 3D renormalized
     file Fe.pbe-spn-kjpaw_psl.1.0.0.UPF: wavefunction(s)  3P 3D renormalized

     Subspace diagonalization in iterative solution of the eigenvalue problem:
     one sub-group per band group will be used
     ELPA distributed-memory algorithm (size of sub-group:  8*  8 procs)

     Found symmetry operation: I + (  0.0000  0.0000 -0.5000)
     This is a supercell, fractional translations are disabled
     Message from routine setup:
     using ibrav=0 with symmetry is DISCOURAGED, use correct ibrav instead
 
     Parallelization info
     --------------------
     sticks:   dense  smooth     PW     G-vecs:    dense   smooth      PW
     Min          65      43     12                 3395     1823     266
     Max          66      44     13                 3402     1830     270
     Sum        4709    3125    869               244593   131491   19309
 


     bravais-lattice index     =            0
     lattice parameter (alat)  =      10.2690  a.u.
     unit-cell volume          =    1624.4513 (a.u.)^3
     number of atoms/cell      =           16
     number of atomic types    =            2
     number of electrons       =       256.00
     number of Kohn-Sham states=          154
     kinetic-energy cutoff     =      71.0000  Ry
     charge density cutoff     =     430.0000  Ry
     scf convergence threshold =      1.0E-07
     mixing beta               =       0.1000
     number of iterations used =           10  local-TF  mixing
     Exchange-correlation= SLA  PW   PBX  PBC
                           (   1   4   3   4   0   0   0)

     celldm(1)=  10.269041  celldm(2)=   0.000000  celldm(3)=   0.000000
     celldm(4)=   0.000000  celldm(5)=   0.000000  celldm(6)=   0.000000

     crystal axes: (cart. coord. in units of alat)
               a(1) = (   1.144737   0.000000   0.000000 )  
               a(2) = (   0.000000   1.144737   0.000000 )  
               a(3) = (   0.000000   0.000000   1.144737 )  

     reciprocal axes: (cart. coord. in units 2 pi/alat)
               b(1) = (  0.873563  0.000000  0.000000 )  
               b(2) = (  0.000000  0.873563  0.000000 )  
               b(3) = (  0.000000  0.000000  0.873563 )  


     PseudoPot. # 1 for Fe read from file:
     /rds/homes/b/bxp912/pp/Fe.pbe-spn-kjpaw_psl.1.0.0.UPF
     MD5 check sum: 42f43b795421b414b0dc916aa790dbcb
     Pseudo is Projector augmented-wave + core cor, Zval = 16.0
     Generated using &quot;atomic&quot; code by A. Dal Corso  v.6.3
     Shape of augmentation charge: PSQ
     Using radial grid of 1191 points,  6 beta functions with: 
                l(1) =   0
                l(2) =   0
                l(3) =   1
                l(4) =   1
                l(5) =   2
                l(6) =   2
     Q(r) pseudized with 0 coefficients 


     PseudoPot. # 2 for Fe read from file:
     /rds/homes/b/bxp912/pp/Fe.pbe-spn-kjpaw_psl.1.0.0.UPF
     MD5 check sum: 42f43b795421b414b0dc916aa790dbcb
     Pseudo is Projector augmented-wave + core cor, Zval = 16.0
     Generated using &quot;atomic&quot; code by A. Dal Corso  v.6.3
     Shape of augmentation charge: PSQ
     Using radial grid of 1191 points,  6 beta functions with: 
                l(1) =   0
                l(2) =   0
                l(3) =   1
                l(4) =   1
                l(5) =   2
                l(6) =   2
     Q(r) pseudized with 0 coefficients 


     atomic species   valence    mass     pseudopotential
        Fe1           16.00    55.84500     Fe( 1.00)
        Fe2           16.00    55.84500     Fe( 1.00)

     Starting magnetic structure 
     atomic species   magnetization
        Fe1          0.100
        Fe2          0.100

     48 Sym. Ops., with inversion, found



   Cartesian axes

     site n.     atom                  positions (alat units)
         1           Fe1 tau(   1) = (   0.0000000   0.0000000   0.0000000  )
         2           Fe2 tau(   2) = (   0.2861842   0.2861842   0.2861842  )
         3           Fe1 tau(   3) = (   0.0000000   0.0000000   0.5723684  )
         4           Fe2 tau(   4) = (   0.2861842   0.2861842   0.8585526  )
         5           Fe1 tau(   5) = (   0.0000000   0.5723684   0.0000000  )
         6           Fe2 tau(   6) = (   0.2861842   0.8585526   0.2861842  )
         7           Fe1 tau(   7) = (   0.0000000   0.5723684   0.5723684  )
         8           Fe2 tau(   8) = (   0.2861842   0.8585526   0.8585526  )
         9           Fe1 tau(   9) = (   0.5723684   0.0000000   0.0000000  )
        10           Fe2 tau(  10) = (   0.8585526   0.2861842   0.2861842  )
        11           Fe1 tau(  11) = (   0.5723684   0.0000000   0.5723684  )
        12           Fe2 tau(  12) = (   0.8585526   0.2861842   0.8585526  )
        13           Fe1 tau(  13) = (   0.5723684   0.5723684   0.0000000  )
        14           Fe2 tau(  14) = (   0.8585526   0.8585526   0.2861842  )
        15           Fe1 tau(  15) = (   0.5723684   0.5723684   0.5723684  )
        16           Fe2 tau(  16) = (   0.8585526   0.8585526   0.8585526  )

     number of k points=    35  Marzari-Vanderbilt smearing, width (Ry)=  0.0400
                       cart. coord. in units 2pi/alat
        k(    1) = (   0.0485313   0.0485313   0.0485313), wk =   0.0109739
        k(    2) = (   0.0485313   0.0485313   0.1455939), wk =   0.0329218
        k(    3) = (   0.0485313   0.0485313   0.2426564), wk =   0.0329218
        k(    4) = (   0.0485313   0.0485313   0.3397190), wk =   0.0329218
        k(    5) = (   0.0485313   0.0485313  -0.4367816), wk =   0.0164609
        k(    6) = (   0.0485313   0.1455939   0.1455939), wk =   0.0329218
        k(    7) = (   0.0485313   0.1455939   0.2426564), wk =   0.0658436
        k(    8) = (   0.0485313   0.1455939   0.3397190), wk =   0.0658436
        k(    9) = (   0.0485313   0.1455939  -0.4367816), wk =   0.0329218
        k(   10) = (   0.0485313   0.2426564   0.2426564), wk =   0.0329218
        k(   11) = (   0.0485313   0.2426564   0.3397190), wk =   0.0658436
        k(   12) = (   0.0485313   0.2426564  -0.4367816), wk =   0.0329218
        k(   13) = (   0.0485313   0.3397190   0.3397190), wk =   0.0329218
        k(   14) = (   0.0485313   0.3397190  -0.4367816), wk =   0.0329218
        k(   15) = (   0.0485313  -0.4367816  -0.4367816), wk =   0.0082305
        k(   16) = (   0.1455939   0.1455939   0.1455939), wk =   0.0109739
        k(   17) = (   0.1455939   0.1455939   0.2426564), wk =   0.0329218
        k(   18) = (   0.1455939   0.1455939   0.3397190), wk =   0.0329218
        k(   19) = (   0.1455939   0.1455939  -0.4367816), wk =   0.0164609
        k(   20) = (   0.1455939   0.2426564   0.2426564), wk =   0.0329218
        k(   21) = (   0.1455939   0.2426564   0.3397190), wk =   0.0658436
        k(   22) = (   0.1455939   0.2426564  -0.4367816), wk =   0.0329218
        k(   23) = (   0.1455939   0.3397190   0.3397190), wk =   0.0329218
        k(   24) = (   0.1455939   0.3397190  -0.4367816), wk =   0.0329218
        k(   25) = (   0.1455939  -0.4367816  -0.4367816), wk =   0.0082305
        k(   26) = (   0.2426564   0.2426564   0.2426564), wk =   0.0109739
        k(   27) = (   0.2426564   0.2426564   0.3397190), wk =   0.0329218
        k(   28) = (   0.2426564   0.2426564  -0.4367816), wk =   0.0164609
        k(   29) = (   0.2426564   0.3397190   0.3397190), wk =   0.0329218
        k(   30) = (   0.2426564   0.3397190  -0.4367816), wk =   0.0329218
        k(   31) = (   0.2426564  -0.4367816  -0.4367816), wk =   0.0082305
        k(   32) = (   0.3397190   0.3397190   0.3397190), wk =   0.0109739
        k(   33) = (   0.3397190   0.3397190  -0.4367816), wk =   0.0164609
        k(   34) = (   0.3397190  -0.4367816  -0.4367816), wk =   0.0082305
        k(   35) = (  -0.4367816  -0.4367816  -0.4367816), wk =   0.0013717

     Dense  grid:   244593 G-vectors     FFT dimensions: (  80,  80,  80)

     Smooth grid:   131491 G-vectors     FFT dimensions: (  64,  64,  64)

     Estimated max dynamical RAM per process >      57.44 MB

     Estimated total dynamical RAM >       4.04 GB

     Check: negative core charge=   -0.000005
     Generating pointlists ...
     new r_m :   0.2045 (alat units)  2.0997 (a.u.) for type    1
     new r_m :   0.2045 (alat units)  2.0997 (a.u.) for type    2

     Initial potential from superposition of free atoms

     starting charge  255.99300, renormalised to  256.00000
     Starting wfcs are  160 randomized atomic wfcs
     Checking if some PAW data can be deallocated... 

     total cpu time spent up to now is        9.0 secs

     Self-consistent Calculation

     iteration #  1     ecut=    71.00 Ry     beta= 0.10
     Davidson diagonalization with overlap
     ethr =  1.00E-02,  avg # of iterations =  3.5

     Threshold (ethr) on eigenvalues was too large:
     Diagonalizing with lowered threshold

     Davidson diagonalization with overlap
     ethr =  1.28E-04,  avg # of iterations =  5.6

     total cpu time spent up to now is       52.5 secs

     total energy              =   -5267.24634152 Ry
     estimated scf accuracy    <       0.30642240 Ry

     total magnetization       =    33.73 Bohr mag/cell
     absolute magnetization    =    33.99 Bohr mag/cell

     iteration #  2     ecut=    71.00 Ry     beta= 0.10
     Davidson diagonalization with overlap
     ethr =  1.20E-04,  avg # of iterations =  1.0

     total cpu time spent up to now is       67.3 secs

     total energy              =   -5267.43942304 Ry
     estimated scf accuracy    <       0.28757427 Ry

     total magnetization       =    34.69 Bohr mag/cell
     absolute magnetization    =    35.01 Bohr mag/cell

     iteration #  3     ecut=    71.00 Ry     beta= 0.10
     Davidson diagonalization with overlap
     ethr =  1.12E-04,  avg # of iterations =  2.9

     total cpu time spent up to now is       84.7 secs

     total energy              =   -5267.49524409 Ry
     estimated scf accuracy    <       0.21738353 Ry

     total magnetization       =    39.98 Bohr mag/cell
     absolute magnetization    =    40.68 Bohr mag/cell

     iteration #  4     ecut=    71.00 Ry     beta= 0.10
     Davidson diagonalization with overlap
     ethr =  8.49E-05,  avg # of iterations =  1.0

     negative rho (up, down):  0.000E+00 5.980E-03

     total cpu time spent up to now is       99.3 secs

     total energy              =   -5267.54486990 Ry
     estimated scf accuracy    <       0.20954927 Ry

     total magnetization       =    39.93 Bohr mag/cell
     absolute magnetization    =    40.69 Bohr mag/cell

     iteration #  5     ecut=    71.00 Ry     beta= 0.10
     Davidson diagonalization with overlap
     ethr =  8.19E-05,  avg # of iterations =  4.2

     negative rho (up, down):  0.000E+00 4.922E-03

     total cpu time spent up to now is      120.8 secs

     total energy              =   -5267.68975830 Ry
     estimated scf accuracy    <       0.22451232 Ry

     total magnetization       =    45.60 Bohr mag/cell
     absolute magnetization    =    48.29 Bohr mag/cell

     iteration #  6     ecut=    71.00 Ry     beta= 0.10
     Davidson diagonalization with overlap
     ethr =  8.19E-05,  avg # of iterations =  3.9

     negative rho (up, down):  0.000E+00 4.775E-03

     total cpu time spent up to now is      140.3 secs

     total energy              =   -5267.73849004 Ry
     estimated scf accuracy    <       0.03552029 Ry

     total magnetization       =    44.53 Bohr mag/cell
     absolute magnetization    =    46.63 Bohr mag/cell

     iteration #  7     ecut=    71.00 Ry     beta= 0.10
     Davidson diagonalization with overlap
     ethr =  1.39E-05,  avg # of iterations =  3.1

     negative rho (up, down):  0.000E+00 4.617E-03

     total cpu time spent up to now is      157.7 secs

     total energy              =   -5267.75680574 Ry
     estimated scf accuracy    <       0.04224645 Ry

     total magnetization       =    44.52 Bohr mag/cell
     absolute magnetization    =    46.70 Bohr mag/cell

     iteration #  8     ecut=    71.00 Ry     beta= 0.10
     Davidson diagonalization with overlap
     ethr =  1.39E-05,  avg # of iterations =  3.7

     negative rho (up, down):  0.000E+00 5.189E-03

     total cpu time spent up to now is      179.4 secs

     total energy              =   -5267.77108132 Ry
     estimated scf accuracy    <       0.04873674 Ry

     total magnetization       =    45.42 Bohr mag/cell
     absolute magnetization    =    48.23 Bohr mag/cell

     iteration #  9     ecut=    71.00 Ry     beta= 0.10
     Davidson diagonalization with overlap
     ethr =  1.39E-05,  avg # of iterations =  2.5

     negative rho (up, down):  0.000E+00 5.014E-03

     total cpu time spent up to now is      197.2 secs

     total energy              =   -5267.76441736 Ry
     estimated scf accuracy    <       0.00884294 Ry

     total magnetization       =    45.32 Bohr mag/cell
     absolute magnetization    =    48.47 Bohr mag/cell

     iteration # 10     ecut=    71.00 Ry     beta= 0.10
     Davidson diagonalization with overlap
     ethr =  3.45E-06,  avg # of iterations =  5.2

     negative rho (up, down):  0.000E+00 5.009E-03

     total cpu time spent up to now is      223.1 secs

     total energy              =   -5267.77412844 Ry
     estimated scf accuracy    <       0.02519802 Ry

     total magnetization       =    45.00 Bohr mag/cell
     absolute magnetization    =    47.83 Bohr mag/cell

     iteration # 11     ecut=    71.00 Ry     beta= 0.10
     Davidson diagonalization with overlap
     ethr =  3.45E-06,  avg # of iterations =  1.1

     negative rho (up, down):  0.000E+00 5.534E-03

     total cpu time spent up to now is      237.7 secs

     total energy              =   -5267.77266290 Ry
     estimated scf accuracy    <       0.01631632 Ry

     total magnetization       =    45.05 Bohr mag/cell
     absolute magnetization    =    47.93 Bohr mag/cell

     iteration # 12     ecut=    71.00 Ry     beta= 0.10
     Davidson diagonalization with overlap
     ethr =  3.45E-06,  avg # of iterations =  3.0

     negative rho (up, down):  0.000E+00 5.636E-03

     total cpu time spent up to now is      256.5 secs

     total energy              =   -5267.77551301 Ry
     estimated scf accuracy    <       0.00015895 Ry

     total magnetization       =    45.19 Bohr mag/cell
     absolute magnetization    =    48.39 Bohr mag/cell

     iteration # 13     ecut=    71.00 Ry     beta= 0.10
     Davidson diagonalization with overlap
     ethr =  6.21E-08,  avg # of iterations =  4.8

     negative rho (up, down):  0.000E+00 5.564E-03

     total cpu time spent up to now is      281.5 secs

     total energy              =   -5267.77552392 Ry
     estimated scf accuracy    <       0.00040860 Ry

     total magnetization       =    45.17 Bohr mag/cell
     absolute magnetization    =    48.44 Bohr mag/cell

     iteration # 14     ecut=    71.00 Ry     beta= 0.10
     Davidson diagonalization with overlap
     ethr =  6.21E-08,  avg # of iterations =  3.2

     negative rho (up, down):  0.000E+00 5.666E-03

     total cpu time spent up to now is      301.1 secs

     total energy              =   -5267.77547656 Ry
     estimated scf accuracy    <       0.00003881 Ry

     total magnetization       =    45.18 Bohr mag/cell
     absolute magnetization    =    48.41 Bohr mag/cell

     iteration # 15     ecut=    71.00 Ry     beta= 0.10
     Davidson diagonalization with overlap
     ethr =  1.52E-08,  avg # of iterations =  5.4

     negative rho (up, down):  0.000E+00 5.585E-03

     total cpu time spent up to now is      324.9 secs

     total energy              =   -5267.77555679 Ry
     estimated scf accuracy    <       0.00013247 Ry

     total magnetization       =    45.19 Bohr mag/cell
     absolute magnetization    =    48.49 Bohr mag/cell

     iteration # 16     ecut=    71.00 Ry     beta= 0.10
     Davidson diagonalization with overlap
     ethr =  1.52E-08,  avg # of iterations =  4.7

     negative rho (up, down):  0.000E+00 5.606E-03

     total cpu time spent up to now is      347.6 secs

     total energy              =   -5267.77557999 Ry
     estimated scf accuracy    <       0.00004532 Ry

     total magnetization       =    45.18 Bohr mag/cell
     absolute magnetization    =    48.44 Bohr mag/cell

     iteration # 17     ecut=    71.00 Ry     beta= 0.10
     Davidson diagonalization with overlap
     ethr =  1.52E-08,  avg # of iterations =  3.8

     negative rho (up, down):  0.000E+00 5.603E-03

     total cpu time spent up to now is      367.3 secs

     total energy              =   -5267.77559017 Ry
     estimated scf accuracy    <       0.00000055 Ry

     total magnetization       =    45.18 Bohr mag/cell
     absolute magnetization    =    48.45 Bohr mag/cell

     iteration # 18     ecut=    71.00 Ry     beta= 0.10
     Davidson diagonalization with overlap
     ethr =  2.16E-10,  avg # of iterations =  5.3

     negative rho (up, down):  0.000E+00 5.599E-03

     total cpu time spent up to now is      392.8 secs

     total energy              =   -5267.77559191 Ry
     estimated scf accuracy    <       0.00000181 Ry

     total magnetization       =    45.18 Bohr mag/cell
     absolute magnetization    =    48.44 Bohr mag/cell

     iteration # 19     ecut=    71.00 Ry     beta= 0.10
     Davidson diagonalization with overlap
     ethr =  2.16E-10,  avg # of iterations =  2.4

     negative rho (up, down):  0.000E+00 5.604E-03

     total cpu time spent up to now is      409.9 secs

     total energy              =   -5267.77559259 Ry
     estimated scf accuracy    <       0.00000103 Ry

     total magnetization       =    45.17 Bohr mag/cell
     absolute magnetization    =    48.45 Bohr mag/cell

     iteration # 20     ecut=    71.00 Ry     beta= 0.10
     Davidson diagonalization with overlap
     ethr =  2.16E-10,  avg # of iterations =  3.9

     negative rho (up, down):  0.000E+00 5.601E-03

     total cpu time spent up to now is      434.2 secs

     total energy              =   -5267.77559354 Ry
     estimated scf accuracy    <       0.00000049 Ry

     total magnetization       =    45.17 Bohr mag/cell
     absolute magnetization    =    48.45 Bohr mag/cell

     iteration # 21     ecut=    71.00 Ry     beta= 0.10
     Davidson diagonalization with overlap
     ethr =  1.91E-10,  avg # of iterations =  1.1

     negative rho (up, down):  0.000E+00 5.601E-03

     total cpu time spent up to now is      449.0 secs

     total energy              =   -5267.77559397 Ry
     estimated scf accuracy    <       0.00000022 Ry

     total magnetization       =    45.17 Bohr mag/cell
     absolute magnetization    =    48.45 Bohr mag/cell

     iteration # 22     ecut=    71.00 Ry     beta= 0.10
     Davidson diagonalization with overlap
     ethr =  8.70E-11,  avg # of iterations =  1.4

     negative rho (up, down):  0.000E+00 5.601E-03

     total cpu time spent up to now is      464.4 secs

     total energy              =   -5267.77559427 Ry
     estimated scf accuracy    <       0.00000016 Ry

     total magnetization       =    45.17 Bohr mag/cell
     absolute magnetization    =    48.45 Bohr mag/cell

     iteration # 23     ecut=    71.00 Ry     beta= 0.10
     Davidson diagonalization with overlap
     ethr =  6.28E-11,  avg # of iterations =  2.9

     negative rho (up, down):  0.000E+00 5.603E-03
 
     Magnetic moment per site:
     atom:    1    charge:   14.6017    magn:    2.9195    constr:    0.0000
     atom:    2    charge:   14.6017    magn:    2.9194    constr:    0.0000
     atom:    3    charge:   14.6017    magn:    2.9194    constr:    0.0000
     atom:    4    charge:   14.6017    magn:    2.9194    constr:    0.0000
     atom:    5    charge:   14.6017    magn:    2.9194    constr:    0.0000
     atom:    6    charge:   14.6017    magn:    2.9194    constr:    0.0000
     atom:    7    charge:   14.6017    magn:    2.9194    constr:    0.0000
     atom:    8    charge:   14.6017    magn:    2.9194    constr:    0.0000
     atom:    9    charge:   14.6017    magn:    2.9194    constr:    0.0000
     atom:   10    charge:   14.6017    magn:    2.9194    constr:    0.0000
     atom:   11    charge:   14.6017    magn:    2.9194    constr:    0.0000
     atom:   12    charge:   14.6017    magn:    2.9194    constr:    0.0000
     atom:   13    charge:   14.6017    magn:    2.9194    constr:    0.0000
     atom:   14    charge:   14.6017    magn:    2.9194    constr:    0.0000
     atom:   15    charge:   14.6017    magn:    2.9195    constr:    0.0000
     atom:   16    charge:   14.6017    magn:    2.9194    constr:    0.0000

     total cpu time spent up to now is      481.2 secs

     End of self-consistent calculation

 ------ SPIN UP ------------


          k = 0.0485 0.0485 0.0485 ( 16456 PWs)   bands (ev):

   -75.3312 -75.3121 -75.3121 -75.3121 -75.3093 -75.3092 -75.3092 -75.3089
   -75.3089 -75.3089 -75.3086 -75.3086 -75.3086 -75.3078 -75.3077 -75.2920
   -41.4219 -41.4219 -41.4219 -41.4212 -41.4212 -41.4212 -41.3861 -41.3861
   -41.3844 -41.3591 -41.3580 -41.3580 -41.3580 -41.3519 -41.3519 -41.3486
   -41.3486 -41.3486 -41.3389 -41.3389 -41.3333 -41.3333 -41.3333 -41.3326
   -41.3296 -41.3296 -41.3296 -41.3274 -41.3274 -41.3274 -41.3266 -41.3266
   -41.3266 -41.3235 -41.3235 -41.3235 -41.3202 -41.3202 -41.3202 -41.2752
   -41.2742 -41.2742 -41.2738 -41.2738 -41.2738 -41.2730 -41.2730 -41.2730
     5.8299   8.8416   8.8416   8.8416   8.9552   8.9552   8.9552   8.9725
     8.9725   8.9725   9.1518   9.1518   9.2208   9.2208   9.2208   9.9966
     9.9966   9.9966  10.0048  10.0048  10.0048  10.0214  10.0803  10.0803
    10.1793  10.1793  10.2163  10.2339  10.2339  10.2340  10.4349  10.4349
    10.4349  10.6698  10.6698  10.6952  10.9031  10.9031  10.9031  10.9543
    10.9543  10.9543  11.0129  11.0129  11.0129  11.0632  11.0632  11.0632
    11.4295  11.4295  11.4295  11.5141  11.5141  11.5196  11.5196  11.5196
    11.5251  11.5251  11.5251  11.5525  11.5525  11.5525  11.5658  11.5658
    11.5658  11.6187  11.6187  11.6187  11.6399  11.6399  11.6404  11.6404
    12.2055  12.2268  12.2268  12.2268  12.2434  12.2434  12.3400  12.3400
    12.3400  12.3683  12.3683  12.3683  12.6720  12.6720  12.6720  13.3136
    13.3136  13.3136

          k = 0.0485 0.0485 0.1456 ( 16437 PWs)   bands (ev):

   -75.3304 -75.3155 -75.3119 -75.3119 -75.3096 -75.3096 -75.3091 -75.3088
   -75.3087 -75.3087 -75.3086 -75.3086 -75.3079 -75.3079 -75.3053 -75.2925
   -41.4201 -41.4201 -41.4194 -41.4189 -41.4178 -41.4178 -41.3867 -41.3843
   -41.3811 -41.3687 -41.3669 -41.3669 -41.3657 -41.3655 -41.3577 -41.3577
   -41.3487 -41.3431 -41.3413 -41.3393 -41.3378 -41.3332 -41.3332 -41.3285
   -41.3283 -41.3283 -41.3274 -41.3264 -41.3257 -41.3257 -41.3236 -41.3236
   -41.3233 -41.3214 -41.3214 -41.3138 -41.3121 -41.3121 -41.3106 -41.2790
   -41.2763 -41.2763 -41.2758 -41.2754 -41.2751 -41.2743 -41.2738 -41.2738
     5.9333   8.3493   8.8830   8.8830   8.9595   8.9595   9.0122   9.0122
     9.0178   9.0338   9.1879   9.1880   9.2482   9.2482   9.4443   9.9494
     9.9902   9.9976  10.0137  10.0243  10.0243  10.0318  10.0365  10.0486
    10.0486  10.1069  10.2182  10.2182  10.3131  10.3144  10.3959  10.3959
    10.6182  10.6584  10.6703  10.7310  10.7838  10.7838  10.8149  10.8840
    10.8867  10.8867  11.0374  11.0374  11.1114  11.1114  11.1446  11.2001
    11.2954  11.3672  11.3672  11.4775  11.4775  11.4808  11.4982  11.4982
    11.5280  11.5285  11.5330  11.5359  11.5549  11.5549  11.5641  11.5641
    11.6201  11.6348  11.6356  11.6383  11.6397  11.6869  11.6869  11.7004
    11.9606  12.0011  12.0804  12.1225  12.1788  12.2392  12.2504  12.2504
    12.2854  12.2854  12.3612  12.3612  12.7285  12.7285  13.0396  13.0396
    13.3361  13.6055

          k = 0.0485 0.0485 0.2427 ( 16396 PWs)   bands (ev):

   -75.3291 -75.3188 -75.3116 -75.3116 -75.3100 -75.3100 -75.3090 -75.3087
   -75.3086 -75.3086 -75.3085 -75.3085 -75.3081 -75.3080 -75.3022 -75.2934
   -41.4156 -41.4156 -41.4148 -41.4143 -41.4117 -41.4117 -41.3858 -41.3805
   -41.3794 -41.3780 -41.3779 -41.3779 -41.3768 -41.3725 -41.3694 -41.3694
   -41.3524 -41.3486 -41.3452 -41.3406 -41.3326 -41.3326 -41.3308 -41.3296
   -41.3293 -41.3293 -41.3261 -41.3250 -41.3250 -41.3235 -41.3235 -41.3143
   -41.3125 -41.3113 -41.3113 -41.3046 -41.3027 -41.3027 -41.3018 -41.2852
   -41.2806 -41.2806 -41.2799 -41.2794 -41.2783 -41.2768 -41.2764 -41.2764
     6.1381   7.8144   8.9464   8.9464   8.9798   8.9798   9.0722   9.0722
     9.1374   9.1512   9.2550   9.2594   9.2764   9.2764   9.5244   9.8371
     9.8568   9.8962   9.9752   9.9786   9.9851  10.0171  10.0863  10.0863
    10.1265  10.1265  10.2344  10.2344  10.3833  10.3833  10.4810  10.4899
    10.6251  10.6251  10.6541  10.6719  10.7166  10.7172  10.7172  10.7478
    10.7841  10.9115  11.1083  11.1083  11.1611  11.1611  11.1674  11.1894
    11.1894  11.2577  11.2577  11.2989  11.3602  11.4148  11.4604  11.4606
    11.4606  11.5152  11.5152  11.5443  11.5448  11.5546  11.6225  11.6249
    11.6259  11.6265  11.6359  11.6394  11.7156  11.7156  11.7939  11.8063
    11.8292  11.8427  11.8427  11.9949  12.0597  12.2022  12.2137  12.2137
    12.2998  12.2998  12.3170  12.3170  12.8055  12.8055  12.8374  12.8374
    13.5234  13.5234

          k = 0.0485 0.0485 0.3397 ( 16409 PWs)   bands (ev):

   -75.3272 -75.3220 -75.3113 -75.3113 -75.3105 -75.3105 -75.3088 -75.3085
   -75.3085 -75.3085 -75.3085 -75.3085 -75.3083 -75.3082 -75.2994 -75.2949
   -41.4086 -41.4086 -41.4081 -41.4079 -41.4035 -41.4035 -41.3901 -41.3895
   -41.3893 -41.3893 -41.3844 -41.3815 -41.3815 -41.3778 -41.3752 -41.3715
   -41.3609 -41.3571 -41.3417 -41.3386 -41.3341 -41.3325 -41.3321 -41.3321
   -41.3302 -41.3302 -41.3246 -41.3246 -41.3238 -41.3238 -41.3146 -41.3032
   -41.3024 -41.3019 -41.3019 -41.2964 -41.2940 -41.2940 -41.2939 -41.2934
   -41.2862 -41.2862 -41.2858 -41.2856 -41.2830 -41.2809 -41.2807 -41.2807
     6.4396   7.2955   8.9994   8.9994   9.0049   9.0049   9.1457   9.1457
     9.2692   9.2692   9.3037   9.3137   9.3422   9.3636   9.5061   9.6572
     9.6984   9.7072   9.9586   9.9662   9.9721   9.9731  10.1800  10.1800
    10.2352  10.2352  10.3320  10.3320  10.4138  10.4138  10.5119  10.5119
    10.5504  10.5504  10.6580  10.6773  10.6984  10.7011  10.7061  10.7084
    10.8214  10.8214  10.8554  10.9517  10.9517  11.0492  11.0495  11.2377
    11.2710  11.2718  11.2718  11.2833  11.2833  11.3181  11.4102  11.4102
    11.4621  11.4621  11.4719  11.5372  11.5658  11.5688  11.5931  11.6090
    11.6094  11.6257  11.6329  11.6408  11.6744  11.7102  11.8337  11.8719
    11.8719  11.9015  11.9478  11.9946  11.9946  12.1231  12.1231  12.1383
    12.2382  12.2382  12.3779  12.3779  12.6264  12.6264  12.9890  12.9890
    13.3588  13.3588

          k = 0.0485 0.0485-0.4368 ( 16428 PWs)   bands (ev):

   -75.3248 -75.3248 -75.3109 -75.3109 -75.3109 -75.3109 -75.3086 -75.3086
   -75.3085 -75.3085 -75.3085 -75.3085 -75.3084 -75.3083 -75.2969 -75.2969
   -41.3998 -41.3998 -41.3998 -41.3998 -41.3998 -41.3998 -41.3996 -41.3996
   -41.3932 -41.3932 -41.3932 -41.3932 -41.3815 -41.3815 -41.3686 -41.3686
   -41.3650 -41.3650 -41.3378 -41.3377 -41.3355 -41.3355 -41.3313 -41.3313
   -41.3313 -41.3313 -41.3241 -41.3241 -41.3241 -41.3241 -41.3034 -41.3034
   -41.2937 -41.2937 -41.2935 -41.2935 -41.2935 -41.2935 -41.2935 -41.2934
   -41.2891 -41.2890 -41.2868 -41.2868 -41.2868 -41.2868 -41.2867 -41.2867
     6.8298   6.8298   9.0178   9.0178   9.0178   9.0178   9.2187   9.2187
     9.2187   9.2187   9.4343   9.4343   9.4976   9.4976   9.5008   9.5008
     9.5043   9.5044   9.9576   9.9576   9.9647   9.9647  10.3000  10.3000
    10.3000  10.3000  10.3640  10.3640  10.3640  10.3640  10.5613  10.5613
    10.5613  10.5613  10.6716  10.6717  10.6717  10.6717  10.6725  10.6725
    10.6893  10.6893  10.9444  10.9444  10.9605  10.9605  10.9623  10.9623
    11.1940  11.1940  11.3468  11.3468  11.3468  11.3468  11.3856  11.3856
    11.3856  11.3856  11.5887  11.5887  11.5895  11.5895  11.6291  11.6291
    11.6434  11.6434  11.6475  11.6475  11.6543  11.6543  11.7219  11.7219
    12.0093  12.0093  12.0093  12.0093  12.0522  12.0522  12.1288  12.1288
    12.1288  12.1288  12.4863  12.4863  12.4863  12.4863  13.1695  13.1695
    13.1695  13.1695

          k = 0.0485 0.1456 0.1456 ( 16412 PWs)   bands (ev):

   -75.3297 -75.3153 -75.3153 -75.3118 -75.3106 -75.3095 -75.3095 -75.3087
   -75.3087 -75.3085 -75.3081 -75.3079 -75.3078 -75.3053 -75.3053 -75.2929
   -41.4197 -41.4179 -41.4179 -41.4157 -41.4157 -41.4130 -41.3882 -41.3829
   -41.3764 -41.3749 -41.3742 -41.3742 -41.3720 -41.3695 -41.3634 -41.3511
   -41.3472 -41.3472 -41.3426 -41.3426 -41.3383 -41.3344 -41.3308 -41.3304
   -41.3304 -41.3298 -41.3298 -41.3266 -41.3266 -41.3243 -41.3234 -41.3217
   -41.3162 -41.3153 -41.3141 -41.3141 -41.3068 -41.3032 -41.3032 -41.2843
   -41.2807 -41.2780 -41.2780 -41.2765 -41.2758 -41.2758 -41.2736 -41.2732
     6.0359   8.4088   8.4088   8.9191   8.9281   9.0234   9.0234   9.0728
     9.0728   9.0815   9.2219   9.2255   9.2817   9.4680   9.4680   9.8838
     9.9552  10.0163  10.0163  10.0320  10.0320  10.0352  10.0383  10.0383
    10.0708  10.1080  10.1537  10.1902  10.3141  10.3249  10.3456  10.5437
    10.5437  10.6272  10.6649  10.7032  10.7032  10.7466  10.7889  10.8247
    11.0000  11.0000  11.0108  11.0108  11.0641  11.1373  11.1655  11.2143
    11.2143  11.3351  11.3351  11.4230  11.4230  11.4495  11.4694  11.4694
    11.4753  11.4889  11.5069  11.5069  11.5184  11.5539  11.5539  11.6092
    11.6296  11.6328  11.6365  11.6395  11.6411  11.7522  11.8161  11.8161
    11.9605  11.9605  11.9679  11.9679  12.0100  12.1186  12.1303  12.1328
    12.1328  12.2537  12.2973  12.3842  12.5688  12.8061  13.4225  13.4225
    13.4638  13.4638

          k = 0.0485 0.1456 0.2427 ( 16386 PWs)   bands (ev):

   -75.3285 -75.3185 -75.3148 -75.3116 -75.3115 -75.3099 -75.3094 -75.3085
   -75.3085 -75.3085 -75.3083 -75.3079 -75.3072 -75.3054 -75.3023 -75.2939
   -41.4169 -41.4137 -41.4133 -41.4118 -41.4101 -41.4054 -41.3892 -41.3845
   -41.3825 -41.3805 -41.3803 -41.3793 -41.3790 -41.3726 -41.3709 -41.3593
   -41.3519 -41.3486 -41.3415 -41.3398 -41.3378 -41.3356 -41.3347 -41.3334
   -41.3323 -41.3309 -41.3287 -41.3260 -41.3248 -41.3210 -41.3202 -41.3148
   -41.3120 -41.3078 -41.3075 -41.3052 -41.2997 -41.2949 -41.2948 -41.2919
   -41.2861 -41.2817 -41.2812 -41.2798 -41.2796 -41.2780 -41.2744 -41.2739
     6.2389   7.8893   8.5144   8.8813   8.9988   9.0453   9.1326   9.1458
     9.1670   9.1884   9.2870   9.2969   9.3209   9.4810   9.5513   9.8129
     9.8492   9.8713  10.0024  10.0211  10.0226  10.0716  10.0741  10.0806
    10.0875  10.1093  10.1824  10.2009  10.3080  10.4207  10.4491  10.4917
    10.5685  10.6005  10.6203  10.6420  10.6553  10.6619  10.7057  10.8342
    10.8636  10.9184  11.0275  11.0742  11.1455  11.1561  11.1612  11.2049
    11.2116  11.2360  11.2443  11.2933  11.3483  11.3534  11.3716  11.4009
    11.4247  11.4710  11.5116  11.5252  11.5382  11.5445  11.5548  11.5868
    11.6180  11.6223  11.6361  11.6461  11.7278  11.7429  11.7956  11.8458
    11.8601  11.8962  11.9377  11.9400  11.9624  11.9628  11.9635  12.0139
    12.1369  12.2456  12.3184  12.3661  12.3948  12.9506  13.1861  13.5819
    13.8248  13.9841

          k = 0.0485 0.1456 0.3397 ( 16409 PWs)   bands (ev):

   -75.3266 -75.3215 -75.3142 -75.3125 -75.3112 -75.3104 -75.3091 -75.3086
   -75.3085 -75.3084 -75.3084 -75.3081 -75.3066 -75.3057 -75.2996 -75.2954
   -41.4118 -41.4072 -41.4070 -41.4062 -41.4025 -41.3956 -41.3949 -41.3909
   -41.3899 -41.3894 -41.3891 -41.3847 -41.3830 -41.3743 -41.3720 -41.3647
   -41.3603 -41.3488 -41.3450 -41.3401 -41.3364 -41.3361 -41.3359 -41.3341
   -41.3322 -41.3314 -41.3258 -41.3251 -41.3237 -41.3190 -41.3159 -41.3104
   -41.3021 -41.3012 -41.2999 -41.2996 -41.2971 -41.2930 -41.2929 -41.2877
   -41.2871 -41.2865 -41.2862 -41.2856 -41.2841 -41.2817 -41.2772 -41.2765
     6.5374   7.3812   8.6394   8.8309   9.0599   9.0716   9.2059   9.2644
     9.3155   9.3241   9.3465   9.3744   9.3977   9.4444   9.5369   9.6783
     9.6960   9.7151   9.9830   9.9873  10.0036  10.0181  10.1577  10.1582
    10.1940  10.2020  10.2400  10.3058  10.3227  10.3889  10.5628  10.5734
    10.5855  10.5860  10.6004  10.6099  10.6351  10.6533  10.6567  10.6606
    10.6630  10.8009  10.9060  10.9525  11.0246  11.0717  11.1200  11.1203
    11.1693  11.2670  11.2763  11.2845  11.2854  11.3223  11.3408  11.3523
    11.4220  11.4575  11.4898  11.5088  11.5503  11.5572  11.5770  11.6003
    11.6031  11.6369  11.6567  11.6579  11.6863  11.6963  11.7436  11.7510
    11.8295  11.8582  11.8896  11.9395  11.9429  11.9766  12.0466  12.0992
    12.1036  12.1605  12.2057  12.3109  12.5412  12.9407  13.1452  13.6077
    13.7915  14.2101

          k = 0.0485 0.1456-0.4368 ( 16414 PWs)   bands (ev):

   -75.3243 -75.3243 -75.3134 -75.3134 -75.3108 -75.3108 -75.3088 -75.3088
   -75.3084 -75.3084 -75.3082 -75.3082 -75.3061 -75.3061 -75.2973 -75.2973
   -41.4042 -41.4042 -41.3992 -41.3992 -41.3990 -41.3990 -41.3989 -41.3989
   -41.3933 -41.3933 -41.3876 -41.3876 -41.3844 -41.3844 -41.3679 -41.3679
   -41.3571 -41.3571 -41.3404 -41.3404 -41.3382 -41.3382 -41.3340 -41.3340
   -41.3333 -41.3333 -41.3254 -41.3254 -41.3174 -41.3174 -41.3121 -41.3121
   -41.3011 -41.3011 -41.2931 -41.2931 -41.2925 -41.2925 -41.2925 -41.2925
   -41.2901 -41.2901 -41.2867 -41.2867 -41.2817 -41.2817 -41.2810 -41.2810
     6.9228   6.9228   8.7515   8.7515   9.0834   9.0834   9.2780   9.2780
     9.3633   9.3633   9.4665   9.4665   9.5145   9.5145   9.5260   9.5260
     9.5269   9.5269   9.9775   9.9775   9.9964   9.9964  10.2532  10.2532
    10.2629  10.2629  10.2804  10.2804  10.3845  10.3845  10.4952  10.4952
    10.5847  10.5847  10.5903  10.5903  10.6553  10.6553  10.6622  10.6622
    10.7367  10.7367  10.8485  10.8485  10.8519  10.8519  11.0547  11.0547
    11.2349  11.2349  11.3067  11.3067  11.3598  11.3598  11.3789  11.3789
    11.4022  11.4022  11.5027  11.5027  11.5781  11.5781  11.5787  11.5788
    11.6283  11.6283  11.6409  11.6409  11.6839  11.6839  11.6855  11.6856
    11.8498  11.8498  11.8947  11.8947  12.0308  12.0308  12.0359  12.0360
    12.1377  12.1377  12.2218  12.2218  12.7259  12.7259  13.3709  13.3709
    14.0188  14.0188

          k = 0.0485 0.2427 0.2427 ( 16411 PWs)   bands (ev):

   -75.3273 -75.3179 -75.3179 -75.3130 -75.3113 -75.3097 -75.3097 -75.3085
   -75.3085 -75.3084 -75.3084 -75.3080 -75.3060 -75.3027 -75.3027 -75.2949
   -41.4157 -41.4101 -41.4101 -41.4070 -41.4070 -41.3964 -41.3923 -41.3896
   -41.3896 -41.3870 -41.3852 -41.3838 -41.3782 -41.3762 -41.3643 -41.3502
   -41.3502 -41.3490 -41.3479 -41.3479 -41.3375 -41.3367 -41.3364 -41.3340
   -41.3340 -41.3297 -41.3296 -41.3281 -41.3281 -41.3262 -41.3171 -41.3065
   -41.3065 -41.3060 -41.3022 -41.3021 -41.3010 -41.2954 -41.2928 -41.2875
   -41.2874 -41.2838 -41.2838 -41.2824 -41.2812 -41.2812 -41.2734 -41.2731
     6.4380   8.0301   8.0301   8.7634   9.0845   9.1703   9.1703   9.2466
     9.2466   9.2661   9.3429   9.3732   9.3843   9.5667   9.5667   9.7701
     9.8162   9.9076   9.9076  10.0533  10.0533  10.0612  10.0809  10.0809
    10.1084  10.1156  10.1326  10.2384  10.3076  10.3888  10.4361  10.4950
    10.4950  10.5474  10.5959  10.5959  10.6048  10.6513  10.6539  10.6986
    10.9629  10.9739  10.9739  10.9924  10.9924  11.0852  11.0852  11.1612
    11.1612  11.2092  11.2519  11.2915  11.3179  11.3179  11.3469  11.4219
    11.4559  11.4559  11.4925  11.4925  11.5131  11.5131  11.5264  11.5705
    11.5936  11.6028  11.6099  11.6411  11.6579  11.6904  11.7720  11.7747
    11.7747  11.7833  11.7833  11.8600  11.9006  11.9398  11.9398  12.0719
    12.0719  12.1206  12.2728  12.3764  12.5669  13.1488  13.6455  13.6455
    14.2709  14.2709

          k = 0.0485 0.2427 0.3397 ( 16417 PWs)   bands (ev):

   -75.3255 -75.3208 -75.3170 -75.3145 -75.3110 -75.3102 -75.3095 -75.3089
   -75.3084 -75.3084 -75.3083 -75.3080 -75.3048 -75.3033 -75.3002 -75.2962
   -41.4119 -41.4046 -41.4045 -41.4029 -41.4008 -41.3987 -41.3940 -41.3928
   -41.3923 -41.3914 -41.3904 -41.3858 -41.3857 -41.3714 -41.3609 -41.3582
   -41.3563 -41.3481 -41.3465 -41.3414 -41.3389 -41.3383 -41.3372 -41.3359
   -41.3355 -41.3353 -41.3308 -41.3279 -41.3269 -41.3194 -41.3137 -41.3116
   -41.3084 -41.3005 -41.2990 -41.2989 -41.2965 -41.2964 -41.2909 -41.2871
   -41.2870 -41.2867 -41.2860 -41.2837 -41.2817 -41.2813 -41.2743 -41.2740
     6.7298   7.5468   8.2177   8.6110   9.1655   9.1972   9.3182   9.3413
     9.3665   9.3995   9.4156   9.4183   9.4792   9.5329   9.5606   9.6972
     9.7086   9.7510  10.0313  10.0334  10.0426  10.0524  10.0698  10.1222
    10.1412  10.1491  10.1678  10.2096  10.3669  10.4352  10.4738  10.4796
    10.4874  10.5072  10.5338  10.5539  10.5849  10.6132  10.6228  10.6411
    10.7470  10.7856  10.8031  10.8574  10.8854  10.9750  11.0740  11.1358
    11.2183  11.2880  11.2935  11.2953  11.3075  11.3202  11.3237  11.3742
    11.4400  11.4472  11.4602  11.4770  11.5043  11.5228  11.5282  11.5513
    11.5801  11.5876  11.6190  11.6359  11.6498  11.6693  11.6796  11.7002
    11.7493  11.7520  11.7927  11.8005  11.8044  11.8866  11.9417  11.9659
    12.1623  12.1932  12.2673  12.3500  12.7904  13.3317  13.4013  13.9853
    14.1397  14.7465

          k = 0.0485 0.2427-0.4368 ( 16390 PWs)   bands (ev):

   -75.3233 -75.3233 -75.3158 -75.3158 -75.3106 -75.3106 -75.3092 -75.3092
   -75.3083 -75.3083 -75.3082 -75.3082 -75.3040 -75.3039 -75.2980 -75.2980
   -41.4062 -41.4062 -41.3980 -41.3980 -41.3977 -41.3977 -41.3977 -41.3977
   -41.3942 -41.3942 -41.3933 -41.3933 -41.3738 -41.3738 -41.3653 -41.3653
   -41.3476 -41.3476 -41.3450 -41.3450 -41.3426 -41.3426 -41.3366 -41.3366
   -41.3333 -41.3332 -41.3274 -41.3274 -41.3235 -41.3235 -41.3109 -41.3109
   -41.3095 -41.3095 -41.2922 -41.2922 -41.2919 -41.2919 -41.2914 -41.2914
   -41.2912 -41.2912 -41.2868 -41.2868 -41.2771 -41.2771 -41.2768 -41.2768
     7.1047   7.1047   8.4224   8.4224   9.2039   9.2039   9.3852   9.3852
     9.4598   9.4598   9.4993   9.4993   9.5346   9.5346   9.5643   9.5644
     9.6070   9.6070  10.0193  10.0193  10.0413  10.0413  10.1800  10.1800
    10.1852  10.1852  10.2372  10.2372  10.2554  10.2554  10.4837  10.4837
    10.5874  10.5874  10.6021  10.6021  10.6066  10.6066  10.6330  10.6330
    10.6707  10.6707  10.6917  10.6917  10.7315  10.7315  11.1944  11.1944
    11.2888  11.2888  11.2987  11.2987  11.3157  11.3157  11.3854  11.3854
    11.3889  11.3889  11.3957  11.3957  11.5533  11.5533  11.5569  11.5569
    11.5912  11.5912  11.6007  11.6007  11.6659  11.6659  11.6791  11.6791
    11.7212  11.7212  11.8047  11.8047  11.8132  11.8132  11.9185  11.9185
    12.2292  12.2292  12.2881  12.2881  13.0473  13.0473  13.6862  13.6862
    14.6595  14.6595

          k = 0.0485 0.3397 0.3397 ( 16415 PWs)   bands (ev):

   -75.3240 -75.3196 -75.3196 -75.3164 -75.3107 -75.3099 -75.3099 -75.3092
   -75.3083 -75.3083 -75.3083 -75.3081 -75.3033 -75.3010 -75.3010 -75.2974
   -41.4101 -41.4009 -41.4009 -41.4002 -41.4002 -41.3985 -41.3985 -41.3978
   -41.3939 -41.3935 -41.3930 -41.3894 -41.3743 -41.3672 -41.3552 -41.3552
   -41.3488 -41.3488 -41.3474 -41.3465 -41.3460 -41.3398 -41.3398 -41.3395
   -41.3341 -41.3302 -41.3302 -41.3288 -41.3288 -41.3287 -41.3236 -41.3091
   -41.3091 -41.3016 -41.3016 -41.2946 -41.2931 -41.2931 -41.2906 -41.2891
   -41.2884 -41.2884 -41.2866 -41.2866 -41.2769 -41.2769 -41.2733 -41.2732
     7.0101   7.7792   7.7792   8.3452   9.2800   9.3640   9.3640   9.4504
     9.4626   9.4626   9.4709   9.4972   9.5509   9.5509   9.5958   9.6599
     9.6791   9.8876   9.8876  10.0641  10.0834  10.0856  10.0856  10.0888
    10.0972  10.0972  10.1497  10.2083  10.2646  10.3687  10.3687  10.4334
    10.4416  10.4925  10.5126  10.5516  10.5887  10.6196  10.6196  10.6245
    10.6566  10.6566  10.6572  10.6572  10.8111  10.9426  10.9426  11.2056
    11.2911  11.3109  11.3167  11.3167  11.3490  11.3657  11.3657  11.3740
    11.3904  11.4478  11.4805  11.4805  11.4835  11.4835  11.4855  11.4856
    11.5389  11.5499  11.5611  11.5742  11.6166  11.6326  11.6326  11.6674
    11.7072  11.7304  11.7304  11.7689  11.8088  11.8236  11.8236  11.8514
    12.2587  12.2587  12.2984  12.3550  13.0837  13.7140  13.7582  13.7582
    14.4252  14.4252

          k = 0.0485 0.3397-0.4368 ( 16406 PWs)   bands (ev):

   -75.3219 -75.3219 -75.3181 -75.3181 -75.3103 -75.3103 -75.3096 -75.3096
   -75.3083 -75.3083 -75.3082 -75.3082 -75.3021 -75.3020 -75.2990 -75.2990
   -41.4062 -41.4062 -41.3998 -41.3998 -41.3969 -41.3969 -41.3968 -41.3968
   -41.3962 -41.3962 -41.3936 -41.3936 -41.3619 -41.3619 -41.3616 -41.3616
   -41.3514 -41.3514 -41.3435 -41.3435 -41.3403 -41.3402 -41.3381 -41.3381
   -41.3361 -41.3361 -41.3325 -41.3325 -41.3296 -41.3296 -41.3189 -41.3189
   -41.3050 -41.3050 -41.2956 -41.2955 -41.2905 -41.2905 -41.2903 -41.2903
   -41.2903 -41.2903 -41.2875 -41.2875 -41.2742 -41.2742 -41.2740 -41.2740
     7.3664   7.3664   8.0561   8.0561   9.3528   9.3528   9.5102   9.5102
     9.5130   9.5130   9.5217   9.5217   9.5365   9.5365   9.6003   9.6003
     9.7357   9.7357  10.0652  10.0652  10.0657  10.0657  10.0723  10.0723
    10.1000  10.1000  10.1244  10.1244  10.2765  10.2765  10.3944  10.3944
    10.5123  10.5123  10.5209  10.5209  10.5481  10.5481  10.5540  10.5540
    10.6180  10.6180  10.6776  10.6776  10.7572  10.7572  11.1202  11.1202
    11.3112  11.3112  11.3414  11.3414  11.3651  11.3651  11.3982  11.3982
    11.4174  11.4174  11.4324  11.4324  11.4797  11.4797  11.5139  11.5139
    11.5244  11.5244  11.5685  11.5686  11.5892  11.5892  11.6519  11.6519
    11.6912  11.6912  11.7501  11.7501  11.7509  11.7509  11.8349  11.8349
    12.2951  12.2951  12.3242  12.3242  13.4072  13.4072  14.0602  14.0602
    14.2110  14.2110

          k = 0.0485-0.4368-0.4368 ( 16456 PWs)   bands (ev):

   -75.3202 -75.3202 -75.3202 -75.3202 -75.3100 -75.3099 -75.3099 -75.3099
   -75.3082 -75.3082 -75.3082 -75.3082 -75.3004 -75.3004 -75.3004 -75.3004
   -41.4041 -41.4041 -41.4041 -41.4041 -41.3966 -41.3966 -41.3966 -41.3966
   -41.3948 -41.3948 -41.3948 -41.3948 -41.3570 -41.3570 -41.3570 -41.3570
   -41.3492 -41.3492 -41.3492 -41.3492 -41.3428 -41.3428 -41.3428 -41.3428
   -41.3314 -41.3314 -41.3314 -41.3314 -41.3286 -41.3286 -41.3286 -41.3286
   -41.2999 -41.2999 -41.2999 -41.2999 -41.2901 -41.2901 -41.2901 -41.2901
   -41.2887 -41.2887 -41.2887 -41.2887 -41.2732 -41.2732 -41.2732 -41.2732
     7.6921   7.6921   7.6921   7.6921   9.4798   9.4798   9.4798   9.4799
     9.5299   9.5299   9.5299   9.5299   9.5947   9.5947   9.5947   9.5947
     9.8937   9.8937   9.8937   9.8937  10.0717  10.0717  10.0717  10.0717
    10.0913  10.0913  10.0913  10.0913  10.3238  10.3238  10.3238  10.3238
    10.4641  10.4641  10.4641  10.4641  10.5127  10.5127  10.5127  10.5127
    10.6316  10.6316  10.6316  10.6316  10.9307  10.9307  10.9307  10.9307
    11.3786  11.3786  11.3786  11.3786  11.4001  11.4001  11.4001  11.4001
    11.4653  11.4653  11.4653  11.4653  11.4811  11.4811  11.4811  11.4811
    11.4971  11.4971  11.4971  11.4971  11.5551  11.5552  11.5552  11.5552
    11.7171  11.7171  11.7171  11.7171  11.7827  11.7828  11.7828  11.7828
    12.3271  12.3271  12.3271  12.3271  13.7950  13.7950  13.7950  13.7950
    14.4696  14.4696

          k = 0.1456 0.1456 0.1456 ( 16425 PWs)   bands (ev):

   -75.3291 -75.3150 -75.3150 -75.3150 -75.3105 -75.3105 -75.3105 -75.3083
   -75.3079 -75.3079 -75.3079 -75.3077 -75.3054 -75.3054 -75.3054 -75.2934
   -41.4174 -41.4174 -41.4174 -41.4112 -41.4112 -41.4112 -41.3862 -41.3862
   -41.3801 -41.3789 -41.3789 -41.3789 -41.3711 -41.3642 -41.3642 -41.3534
   -41.3534 -41.3534 -41.3443 -41.3443 -41.3443 -41.3327 -41.3327 -41.3327
   -41.3257 -41.3257 -41.3240 -41.3240 -41.3240 -41.3240 -41.3240 -41.3240
   -41.3146 -41.3146 -41.3146 -41.3099 -41.2987 -41.2987 -41.2987 -41.2898
   -41.2816 -41.2816 -41.2816 -41.2754 -41.2754 -41.2754 -41.2753 -41.2753
     6.1378   8.4703   8.4703   8.4703   8.9870   8.9870   8.9870   9.1397
     9.1397   9.1397   9.2591   9.2591   9.5000   9.5000   9.5000   9.8286
    10.0168  10.0168  10.0208  10.0208  10.0208  10.0272  10.0272  10.0272
    10.0926  10.0926  10.0926  10.2642  10.2669  10.2669  10.4684  10.4684
    10.4684  10.6232  10.6232  10.6707  10.6707  10.6707  10.8534  10.9094
    10.9094  10.9094  11.0437  11.0437  11.0437  11.1317  11.1317  11.1317
    11.2510  11.2510  11.2510  11.4667  11.4667  11.4667  11.4872  11.4872
    11.4872  11.4909  11.4909  11.5276  11.5276  11.5276  11.6106  11.6106
    11.6106  11.6276  11.6276  11.6393  11.6393  11.7291  11.7291  11.7291
    11.8667  11.8667  11.8667  11.8730  11.9759  11.9759  11.9759  12.1894
    12.1894  12.2126  12.2126  12.2126  13.0330  13.0330  13.0330  13.5220
    13.5220  13.5220

          k = 0.1456 0.1456 0.2427 ( 16399 PWs)   bands (ev):

   -75.3279 -75.3182 -75.3146 -75.3146 -75.3114 -75.3114 -75.3103 -75.3087
   -75.3078 -75.3076 -75.3072 -75.3072 -75.3055 -75.3055 -75.3025 -75.2943
   -41.4148 -41.4148 -41.4127 -41.4081 -41.4043 -41.4043 -41.3887 -41.3864
   -41.3864 -41.3860 -41.3842 -41.3825 -41.3764 -41.3648 -41.3630 -41.3630
   -41.3584 -41.3537 -41.3444 -41.3444 -41.3422 -41.3360 -41.3358 -41.3358
   -41.3329 -41.3283 -41.3255 -41.3216 -41.3216 -41.3155 -41.3155 -41.3152
   -41.3152 -41.3138 -41.3052 -41.3032 -41.2978 -41.2928 -41.2927 -41.2916
   -41.2864 -41.2864 -41.2838 -41.2794 -41.2784 -41.2759 -41.2759 -41.2752
     6.3390   7.9650   8.5798   8.5798   8.9533   8.9533   9.1175   9.2239
     9.2239   9.2500   9.3251   9.3280   9.5277   9.5277   9.5887   9.7775
     9.8506   9.9389   9.9876  10.0133  10.0394  10.0394  10.0671  10.0705
    10.0705  10.1646  10.1751  10.1751  10.3227  10.4012  10.4012  10.4104
    10.5445  10.5818  10.5818  10.5843  10.6077  10.6165  10.7715  10.7715
    10.8916  10.8916  10.9405  11.0188  11.0546  11.0833  11.1519  11.1519
    11.2708  11.2708  11.2829  11.2829  11.3237  11.3956  11.4072  11.4246
    11.4246  11.4375  11.4974  11.5207  11.5306  11.5306  11.5429  11.6133
    11.6140  11.6256  11.6285  11.6503  11.6503  11.6535  11.7045  11.7125
    11.7125  11.7907  11.9523  11.9523  11.9760  12.0027  12.0225  12.0225
    12.0707  12.2110  12.2304  12.2304  12.7181  12.7181  13.5263  13.7031
    13.7031  14.4228

          k = 0.1456 0.1456 0.3397 ( 16414 PWs)   bands (ev):

   -75.3261 -75.3211 -75.3140 -75.3140 -75.3124 -75.3124 -75.3099 -75.3091
   -75.3077 -75.3077 -75.3066 -75.3066 -75.3058 -75.3058 -75.2999 -75.2958
   -41.4098 -41.4098 -41.4061 -41.4035 -41.3955 -41.3955 -41.3950 -41.3950
   -41.3920 -41.3899 -41.3878 -41.3876 -41.3773 -41.3740 -41.3740 -41.3627
   -41.3578 -41.3528 -41.3431 -41.3431 -41.3417 -41.3411 -41.3386 -41.3386
   -41.3304 -41.3290 -41.3272 -41.3195 -41.3195 -41.3164 -41.3164 -41.3075
   -41.3072 -41.3072 -41.3029 -41.2971 -41.2967 -41.2923 -41.2922 -41.2872
   -41.2869 -41.2869 -41.2856 -41.2853 -41.2831 -41.2781 -41.2781 -41.2769
     6.6347   7.4672   8.7100   8.7100   8.9056   8.9056   9.2997   9.3210
     9.3210   9.3985   9.4174   9.4212   9.5000   9.5000   9.5786   9.6892
     9.6969   9.7423   9.9784   9.9971  10.0420  10.0714  10.1399  10.1399
    10.1426  10.1426  10.2722  10.2722  10.3332  10.3332  10.4980  10.5522
    10.5522  10.5588  10.5674  10.5783  10.5806  10.6079  10.6273  10.6273
    10.6500  10.6500  10.9262  10.9318  10.9318  11.0108  11.0419  11.1624
    11.1676  11.2744  11.2744  11.2797  11.3120  11.3120  11.3610  11.3830
    11.3830  11.4703  11.4703  11.5199  11.5350  11.5521  11.5617  11.5623
    11.5956  11.6057  11.6165  11.6231  11.6815  11.6846  11.7282  11.7282
    11.7434  11.7434  11.8379  11.9144  12.0491  12.0491  12.0718  12.1273
    12.1273  12.1955  12.2016  12.2016  12.4822  12.4822  13.9385  13.9385
    14.0417  14.4228

          k = 0.1456 0.1456-0.4368 ( 16418 PWs)   bands (ev):

   -75.3238 -75.3238 -75.3132 -75.3132 -75.3132 -75.3132 -75.3096 -75.3096
   -75.3077 -75.3077 -75.3062 -75.3062 -75.3062 -75.3062 -75.2976 -75.2976
   -41.4030 -41.4030 -41.4030 -41.4030 -41.3982 -41.3981 -41.3977 -41.3977
   -41.3894 -41.3894 -41.3850 -41.3850 -41.3850 -41.3850 -41.3706 -41.3706
   -41.3500 -41.3500 -41.3466 -41.3466 -41.3413 -41.3413 -41.3413 -41.3413
   -41.3286 -41.3285 -41.3189 -41.3189 -41.3178 -41.3178 -41.3177 -41.3177
   -41.2994 -41.2994 -41.2994 -41.2994 -41.2936 -41.2936 -41.2915 -41.2915
   -41.2894 -41.2894 -41.2817 -41.2817 -41.2817 -41.2817 -41.2805 -41.2805
     7.0156   7.0156   8.8259   8.8259   8.8259   8.8259   9.4203   9.4203
     9.4203   9.4203   9.5099   9.5099   9.5162   9.5162   9.5441   9.5441
     9.5607   9.5607   9.9834   9.9834  10.0346  10.0346  10.2364  10.2364
    10.2364  10.2364  10.2866  10.2866  10.2866  10.2866  10.5267  10.5267
    10.5267  10.5267  10.5516  10.5516  10.5972  10.5972  10.6731  10.6731
    10.6731  10.6731  10.7315  10.7315  10.7581  10.7581  11.1556  11.1556
    11.2671  11.2671  11.3344  11.3344  11.3448  11.3448  11.3448  11.3448
    11.3849  11.3849  11.3849  11.3849  11.5734  11.5734  11.5736  11.5736
    11.6149  11.6149  11.6198  11.6198  11.7364  11.7364  11.7392  11.7392
    11.7523  11.7523  11.7523  11.7523  12.1372  12.1372  12.1372  12.1372
    12.1471  12.1471  12.2874  12.2874  12.2874  12.2874  14.1952  14.1952
    14.1952  14.1952

          k = 0.1456 0.2427 0.2427 ( 16408 PWs)   bands (ev):

   -75.3267 -75.3176 -75.3176 -75.3142 -75.3129 -75.3112 -75.3111 -75.3092
   -75.3074 -75.3072 -75.3072 -75.3060 -75.3057 -75.3028 -75.3028 -75.2953
   -41.4135 -41.4104 -41.4104 -41.4023 -41.4023 -41.3962 -41.3906 -41.3906
   -41.3903 -41.3900 -41.3895 -41.3815 -41.3790 -41.3696 -41.3614 -41.3579
   -41.3538 -41.3538 -41.3523 -41.3523 -41.3467 -41.3406 -41.3399 -41.3399
   -41.3243 -41.3241 -41.3240 -41.3226 -41.3226 -41.3175 -41.3160 -41.3098
   -41.3092 -41.3065 -41.3062 -41.3062 -41.2987 -41.2922 -41.2896 -41.2871
   -41.2871 -41.2865 -41.2865 -41.2803 -41.2798 -41.2798 -41.2752 -41.2751
     6.5367   8.1076   8.1076   8.6976   8.8413   9.0916   9.0916   9.3214
     9.3308   9.3308   9.3829   9.4015   9.5898   9.6200   9.6200   9.7543
     9.8918   9.8918   9.8975  10.0113  10.0284  10.0529  10.0529  10.0982
    10.1332  10.1332  10.1916  10.2434  10.2678  10.3225  10.3917  10.4505
    10.4505  10.5333  10.5384  10.5439  10.5439  10.5914  10.6785  10.6789
    10.8330  10.8330  10.8568  10.8568  11.0459  11.0503  11.0503  11.1164
    11.1822  11.1822  11.2083  11.3364  11.3845  11.3973  11.3973  11.4395
    11.4664  11.4664  11.5058  11.5081  11.5153  11.5153  11.5202  11.5555
    11.5555  11.5947  11.6004  11.6218  11.6268  11.6438  11.6438  11.6671
    11.6995  11.7910  11.7910  11.9533  12.0095  12.0484  12.0484  12.0502
    12.0502  12.1585  12.2081  12.2660  12.4149  13.1523  13.1523  13.9185
    14.6276  14.6276

          k = 0.1456 0.2427 0.3397 ( 16420 PWs)   bands (ev):

   -75.3250 -75.3204 -75.3167 -75.3143 -75.3136 -75.3120 -75.3108 -75.3098
   -75.3073 -75.3072 -75.3066 -75.3059 -75.3049 -75.3033 -75.3004 -75.2966
   -41.4099 -41.4062 -41.4041 -41.3996 -41.3979 -41.3951 -41.3950 -41.3929
   -41.3929 -41.3926 -41.3876 -41.3863 -41.3777 -41.3767 -41.3636 -41.3625
   -41.3577 -41.3519 -41.3498 -41.3472 -41.3456 -41.3451 -41.3433 -41.3405
   -41.3328 -41.3245 -41.3238 -41.3203 -41.3171 -41.3170 -41.3152 -41.3138
   -41.3080 -41.3026 -41.3012 -41.2990 -41.2979 -41.2946 -41.2913 -41.2887
   -41.2863 -41.2856 -41.2848 -41.2818 -41.2815 -41.2811 -41.2760 -41.2757
     6.8261   7.6333   8.2978   8.6929   8.8395   9.0485   9.2847   9.4218
     9.4262   9.4618   9.4714   9.5023   9.5912   9.5950   9.6156   9.7134
     9.7409   9.7501  10.0143  10.0194  10.0324  10.0603  10.0917  10.1166
    10.1190  10.1553  10.1956  10.2623  10.3410  10.3472  10.3614  10.4600
    10.4752  10.4869  10.4922  10.4945  10.5427  10.5430  10.5741  10.5812
    10.6223  10.6948  10.7390  10.7607  10.7876  10.8361  10.9806  11.1658
    11.2444  11.2900  11.2968  11.3278  11.3602  11.3745  11.3764  11.3920
    11.4339  11.4357  11.4602  11.4638  11.5164  11.5283  11.5387  11.5425
    11.5782  11.6043  11.6151  11.6225  11.6287  11.6504  11.6636  11.6810
    11.7044  11.7137  11.8511  11.8691  11.8883  11.9794  12.0483  12.1300
    12.1365  12.1942  12.2106  12.2568  12.3552  12.8478  13.6085  14.1943
    14.5891  14.7821

          k = 0.1456 0.2427-0.4368 ( 16406 PWs)   bands (ev):

   -75.3229 -75.3229 -75.3156 -75.3156 -75.3129 -75.3128 -75.3103 -75.3103
   -75.3072 -75.3072 -75.3063 -75.3062 -75.3041 -75.3040 -75.2983 -75.2983
   -41.4046 -41.4046 -41.4008 -41.4008 -41.3964 -41.3964 -41.3963 -41.3963
   -41.3935 -41.3935 -41.3864 -41.3864 -41.3751 -41.3751 -41.3702 -41.3702
   -41.3518 -41.3518 -41.3489 -41.3489 -41.3461 -41.3461 -41.3415 -41.3415
   -41.3287 -41.3287 -41.3243 -41.3243 -41.3184 -41.3184 -41.3105 -41.3105
   -41.3067 -41.3066 -41.2967 -41.2967 -41.2928 -41.2928 -41.2912 -41.2912
   -41.2907 -41.2907 -41.2832 -41.2832 -41.2781 -41.2781 -41.2779 -41.2779
     7.1971   7.1971   8.5046   8.5046   8.9659   8.9659   9.5128   9.5128
     9.5166   9.5166   9.5242   9.5242   9.5490   9.5490   9.6147   9.6147
     9.6199   9.6199  10.0160  10.0160  10.0763  10.0763  10.1731  10.1731
    10.1935  10.1935  10.2088  10.2088  10.2383  10.2383  10.4681  10.4681
    10.5256  10.5256  10.5439  10.5439  10.5458  10.5458  10.5574  10.5575
    10.5580  10.5580  10.6168  10.6168  10.6339  10.6339  11.1423  11.1423
    11.2949  11.2949  11.3226  11.3226  11.3574  11.3574  11.3869  11.3869
    11.3880  11.3880  11.4067  11.4067  11.5525  11.5525  11.5653  11.5653
    11.5907  11.5907  11.6242  11.6242  11.6479  11.6480  11.7053  11.7053
    11.7054  11.7054  11.7745  11.7745  12.0059  12.0059  12.0185  12.0185
    12.1851  12.1851  12.2106  12.2106  12.5868  12.5868  14.0857  14.0857
    14.4972  14.4972

          k = 0.1456 0.3397 0.3397 ( 16397 PWs)   bands (ev):

   -75.3235 -75.3192 -75.3192 -75.3162 -75.3130 -75.3116 -75.3116 -75.3104
   -75.3070 -75.3067 -75.3067 -75.3061 -75.3035 -75.3012 -75.3012 -75.2978
   -41.4081 -41.4013 -41.4013 -41.3989 -41.3989 -41.3960 -41.3957 -41.3943
   -41.3943 -41.3933 -41.3905 -41.3827 -41.3758 -41.3728 -41.3600 -41.3600
   -41.3581 -41.3520 -41.3520 -41.3509 -41.3502 -41.3491 -41.3491 -41.3412
   -41.3283 -41.3238 -41.3238 -41.3223 -41.3210 -41.3210 -41.3179 -41.3086
   -41.3064 -41.3004 -41.3004 -41.2979 -41.2963 -41.2925 -41.2909 -41.2909
   -41.2886 -41.2857 -41.2854 -41.2854 -41.2781 -41.2781 -41.2754 -41.2751
     7.1046   7.8663   7.8663   8.4313   9.0013   9.2449   9.2449   9.5059
     9.5168   9.5598   9.5598   9.6070   9.6070   9.6165   9.6532   9.6722
     9.7240   9.8869   9.8869  10.0186  10.0583  10.0880  10.0880  10.1133
    10.1220  10.1220  10.1957  10.2025  10.2611  10.2808  10.3524  10.3524
    10.4262  10.4291  10.4502  10.4976  10.5266  10.5356  10.5356  10.5520
    10.5624  10.5624  10.5679  10.5679  10.6840  10.8021  10.8021  11.1328
    11.3046  11.3287  11.3287  11.3527  11.3681  11.4072  11.4336  11.4473
    11.4776  11.4776  11.4825  11.4825  11.4966  11.4966  11.5290  11.5494
    11.5737  11.5807  11.5807  11.5891  11.6302  11.6549  11.6549  11.6569
    11.6569  11.6983  11.7385  11.7511  11.9069  11.9069  11.9311  11.9829
    12.1982  12.1982  12.2321  12.2717  12.6225  13.2403  13.2403  14.1014
    14.5174  15.2280

          k = 0.1456 0.3397-0.4368 ( 16414 PWs)   bands (ev):

   -75.3215 -75.3215 -75.3178 -75.3178 -75.3124 -75.3123 -75.3110 -75.3110
   -75.3069 -75.3068 -75.3064 -75.3064 -75.3022 -75.3022 -75.2993 -75.2993
   -41.4042 -41.4042 -41.3984 -41.3984 -41.3981 -41.3981 -41.3956 -41.3956
   -41.3939 -41.3939 -41.3885 -41.3885 -41.3671 -41.3671 -41.3641 -41.3641
   -41.3560 -41.3560 -41.3545 -41.3545 -41.3508 -41.3508 -41.3400 -41.3400
   -41.3326 -41.3326 -41.3217 -41.3217 -41.3193 -41.3192 -41.3148 -41.3148
   -41.3041 -41.3041 -41.2940 -41.2940 -41.2939 -41.2938 -41.2913 -41.2913
   -41.2908 -41.2907 -41.2855 -41.2855 -41.2759 -41.2759 -41.2759 -41.2759
     7.4581   7.4581   8.1434   8.1434   9.1502   9.1502   9.4655   9.4655
     9.5689   9.5689   9.5723   9.5723   9.6457   9.6457   9.6783   9.6783
     9.7491   9.7491  10.0655  10.0655  10.0681  10.0681  10.0773  10.0773
    10.0870  10.0870  10.1497  10.1497  10.2625  10.2625  10.3805  10.3805
    10.3833  10.3833  10.4294  10.4295  10.4974  10.4974  10.4982  10.4982
    10.5383  10.5383  10.5768  10.5768  10.6386  10.6386  10.9520  10.9520
    11.3757  11.3757  11.4028  11.4028  11.4106  11.4106  11.4203  11.4203
    11.4555  11.4555  11.4719  11.4719  11.5149  11.5149  11.5515  11.5515
    11.5626  11.5626  11.5838  11.5838  11.6102  11.6102  11.6404  11.6404
    11.6789  11.6789  11.7989  11.7989  11.8027  11.8027  11.9125  11.9125
    12.2304  12.2305  12.2501  12.2501  12.9163  12.9163  13.6561  13.6561
    14.8751  14.8751

          k = 0.1456-0.4368-0.4368 ( 16384 PWs)   bands (ev):

   -75.3198 -75.3198 -75.3198 -75.3198 -75.3117 -75.3117 -75.3117 -75.3117
   -75.3066 -75.3066 -75.3066 -75.3066 -75.3006 -75.3006 -75.3006 -75.3006
   -41.4020 -41.4020 -41.4020 -41.4020 -41.3961 -41.3961 -41.3961 -41.3961
   -41.3911 -41.3911 -41.3911 -41.3911 -41.3621 -41.3620 -41.3620 -41.3620
   -41.3541 -41.3541 -41.3541 -41.3541 -41.3520 -41.3520 -41.3520 -41.3520
   -41.3236 -41.3236 -41.3236 -41.3236 -41.3202 -41.3202 -41.3202 -41.3202
   -41.2984 -41.2984 -41.2984 -41.2984 -41.2922 -41.2921 -41.2921 -41.2921
   -41.2881 -41.2881 -41.2881 -41.2881 -41.2751 -41.2751 -41.2751 -41.2751
     7.7823   7.7823   7.7823   7.7823   9.3369   9.3369   9.3369   9.3369
     9.5832   9.5832   9.5832   9.5832   9.7116   9.7116   9.7116   9.7117
     9.9038   9.9038   9.9038   9.9038  10.0525  10.0525  10.0525  10.0525
    10.1145  10.1145  10.1145  10.1145  10.3103  10.3103  10.3103  10.3103
    10.3441  10.3441  10.3441  10.3441  10.4689  10.4689  10.4689  10.4689
    10.5422  10.5422  10.5422  10.5422  10.7796  10.7796  10.7796  10.7796
    11.4106  11.4106  11.4106  11.4106  11.4675  11.4675  11.4675  11.4675
    11.5012  11.5012  11.5012  11.5012  11.5226  11.5226  11.5226  11.5226
    11.5515  11.5515  11.5515  11.5515  11.6214  11.6214  11.6214  11.6214
    11.6589  11.6589  11.6589  11.6589  11.8417  11.8417  11.8417  11.8417
    12.2559  12.2559  12.2559  12.2559  13.2711  13.2711  13.2711  13.2711
    15.2950  15.2950

          k = 0.2427 0.2427 0.2427 ( 16398 PWs)   bands (ev):

   -75.3256 -75.3170 -75.3170 -75.3170 -75.3125 -75.3125 -75.3125 -75.3100
   -75.3070 -75.3061 -75.3061 -75.3061 -75.3031 -75.3031 -75.3031 -75.2961
   -41.4091 -41.4091 -41.4091 -41.3954 -41.3954 -41.3954 -41.3930 -41.3929
   -41.3929 -41.3913 -41.3865 -41.3865 -41.3736 -41.3736 -41.3593 -41.3593
   -41.3593 -41.3566 -41.3566 -41.3566 -41.3501 -41.3458 -41.3458 -41.3458
   -41.3175 -41.3175 -41.3175 -41.3167 -41.3167 -41.3167 -41.3151 -41.3128
   -41.3128 -41.3064 -41.3064 -41.3064 -41.2955 -41.2914 -41.2914 -41.2914
   -41.2847 -41.2847 -41.2847 -41.2794 -41.2794 -41.2794 -41.2787 -41.2787
     6.7312   8.2542   8.2542   8.2542   8.9926   8.9926   8.9926   9.4248
     9.4248   9.4248   9.4571   9.4571   9.6984   9.6984   9.6984   9.7575
     9.8828   9.8828   9.8828  10.0159  10.0159  10.0195  10.0799  10.0799
    10.0799  10.2038  10.2038  10.2038  10.2842  10.2842  10.3853  10.3853
    10.3853  10.4686  10.4687  10.4687  10.5213  10.5213  10.6375  10.6375
    10.6375  10.7139  10.7139  10.7139  10.8573  10.8573  10.8573  11.1648
    11.2419  11.2419  11.2419  11.3240  11.4469  11.4469  11.4469  11.4567
    11.4567  11.4568  11.4723  11.4723  11.5031  11.5031  11.5031  11.5963
    11.5963  11.5963  11.6003  11.6003  11.6402  11.6402  11.6403  11.6599
    11.6599  11.8743  11.8743  11.8743  12.0370  12.0370  12.0370  12.0901
    12.0901  12.1025  12.1025  12.1026  12.7867  12.7867  12.7867  14.5669
    14.8535  14.8535

          k = 0.2427 0.2427 0.3397 ( 16416 PWs)   bands (ev):

   -75.3240 -75.3196 -75.3161 -75.3161 -75.3139 -75.3139 -75.3120 -75.3107
   -75.3067 -75.3062 -75.3051 -75.3051 -75.3036 -75.3036 -75.3009 -75.2973
   -41.4059 -41.4059 -41.4027 -41.3967 -41.3967 -41.3946 -41.3939 -41.3926
   -41.3907 -41.3871 -41.3871 -41.3846 -41.3812 -41.3685 -41.3685 -41.3669
   -41.3657 -41.3569 -41.3569 -41.3523 -41.3509 -41.3508 -41.3484 -41.3418
   -41.3257 -41.3250 -41.3176 -41.3154 -41.3134 -41.3134 -41.3095 -41.3095
   -41.3076 -41.3076 -41.3023 -41.2977 -41.2965 -41.2965 -41.2931 -41.2910
   -41.2854 -41.2835 -41.2827 -41.2826 -41.2811 -41.2797 -41.2797 -41.2780
     7.0152   7.8003   8.4500   8.4500   8.8515   8.8515   9.2064   9.5256
     9.5256   9.5374   9.5527   9.5591   9.6990   9.6990   9.7098   9.7473
     9.7526   9.7561   9.9735   9.9735  10.0197  10.0572  10.1331  10.1331
    10.1398  10.1660  10.1749  10.2611  10.2611  10.2998  10.2998  10.3864
    10.4316  10.4333  10.4358  10.4359  10.4554  10.4554  10.4650  10.4976
    10.5727  10.5775  10.5775  10.6006  10.6333  10.6333  10.7998  11.1255
    11.2974  11.3008  11.3219  11.3219  11.4219  11.4425  11.4425  11.4660
    11.4660  11.4681  11.4681  11.5171  11.5174  11.5219  11.5733  11.5754
    11.5982  11.6002  11.6049  11.6068  11.6068  11.6313  11.6514  11.6514
    11.6743  11.7178  11.9371  11.9406  12.0489  12.0489  12.0551  12.0551
    12.0996  12.1117  12.1117  12.1309  12.5034  12.5034  13.1882  14.0680
    15.1427  15.1427

          k = 0.2427 0.2427-0.4368 ( 16404 PWs)   bands (ev):

   -75.3220 -75.3220 -75.3151 -75.3151 -75.3151 -75.3151 -75.3114 -75.3114
   -75.3064 -75.3064 -75.3043 -75.3043 -75.3043 -75.3042 -75.2989 -75.2989
   -41.4014 -41.4014 -41.4014 -41.4014 -41.3945 -41.3945 -41.3937 -41.3937
   -41.3931 -41.3931 -41.3779 -41.3779 -41.3779 -41.3779 -41.3740 -41.3740
   -41.3598 -41.3598 -41.3548 -41.3548 -41.3548 -41.3548 -41.3370 -41.3370
   -41.3334 -41.3334 -41.3165 -41.3164 -41.3101 -41.3101 -41.3101 -41.3101
   -41.3026 -41.3026 -41.3026 -41.3026 -41.2931 -41.2931 -41.2917 -41.2917
   -41.2899 -41.2899 -41.2808 -41.2808 -41.2808 -41.2808 -41.2788 -41.2788
     7.3777   7.3777   8.6624   8.6624   8.6624   8.6624   9.4661   9.4661
     9.6233   9.6233   9.6233   9.6233   9.6388   9.6388   9.6478   9.6478
     9.6874   9.6874  10.0354  10.0354  10.1111  10.1111  10.1474  10.1474
    10.1474  10.1474  10.2091  10.2091  10.2091  10.2091  10.3706  10.3706
    10.4333  10.4333  10.4636  10.4636  10.4636  10.4636  10.4679  10.4679
    10.4857  10.4857  10.4857  10.4857  10.4864  10.4864  10.9433  10.9433
    11.3611  11.3611  11.4014  11.4014  11.4014  11.4014  11.4479  11.4479
    11.4537  11.4537  11.4537  11.4537  11.5483  11.5483  11.5727  11.5727
    11.5819  11.5819  11.5996  11.5996  11.6327  11.6327  11.6327  11.6327
    11.7698  11.7698  11.8097  11.8097  12.0894  12.0894  12.0894  12.0894
    12.1331  12.1331  12.2631  12.2632  12.2632  12.2632  13.6135  13.6135
    15.4425  15.4425

          k = 0.2427 0.3397 0.3397 ( 16416 PWs)   bands (ev):

   -75.3226 -75.3185 -75.3185 -75.3156 -75.3153 -75.3132 -75.3132 -75.3117
   -75.3061 -75.3053 -75.3053 -75.3040 -75.3037 -75.3016 -75.3016 -75.2984
   -41.4040 -41.4001 -41.4001 -41.3966 -41.3966 -41.3963 -41.3918 -41.3916
   -41.3884 -41.3884 -41.3860 -41.3797 -41.3780 -41.3746 -41.3695 -41.3660
   -41.3660 -41.3606 -41.3580 -41.3580 -41.3579 -41.3579 -41.3575 -41.3360
   -41.3333 -41.3170 -41.3170 -41.3125 -41.3125 -41.3114 -41.3079 -41.3075
   -41.3037 -41.3027 -41.2991 -41.2991 -41.2990 -41.2944 -41.2944 -41.2926
   -41.2862 -41.2851 -41.2851 -41.2837 -41.2802 -41.2802 -41.2791 -41.2787
     7.2899   8.0347   8.0347   8.5986   8.6555   9.0747   9.0747   9.6014
     9.6024   9.6112   9.6565   9.6594   9.6594   9.7147   9.7147   9.7953
     9.8083   9.8818   9.8818   9.9412  10.0657  10.1063  10.1063  10.1170
    10.1493  10.1612  10.1612  10.1731  10.2497  10.2529  10.3255  10.3255
    10.3335  10.3445  10.3624  10.4054  10.4163  10.4163  10.4188  10.4188
    10.4257  10.4257  10.4569  10.4712  10.5052  10.6271  10.6271  10.9260
    11.3627  11.3627  11.3760  11.4379  11.4558  11.4627  11.4766  11.4900
    11.4900  11.5096  11.5287  11.5288  11.5288  11.5539  11.5729  11.5919
    11.5919  11.5953  11.5973  11.5973  11.6024  11.6024  11.6391  11.6415
    11.7471  11.8177  11.8177  11.8748  11.9602  11.9602  11.9912  12.1038
    12.1038  12.1133  12.1350  12.2410  12.2892  12.8477  12.8477  13.6186
    15.4709  16.1033

          k = 0.2427 0.3397-0.4368 ( 16420 PWs)   bands (ev):

   -75.3207 -75.3207 -75.3172 -75.3172 -75.3144 -75.3144 -75.3125 -75.3125
   -75.3057 -75.3057 -75.3046 -75.3046 -75.3025 -75.3025 -75.2999 -75.2998
   -41.4004 -41.4004 -41.3975 -41.3975 -41.3948 -41.3948 -41.3930 -41.3930
   -41.3902 -41.3902 -41.3814 -41.3814 -41.3738 -41.3738 -41.3681 -41.3681
   -41.3649 -41.3649 -41.3629 -41.3629 -41.3609 -41.3609 -41.3469 -41.3469
   -41.3251 -41.3251 -41.3116 -41.3116 -41.3095 -41.3095 -41.3095 -41.3095
   -41.3025 -41.3025 -41.2987 -41.2987 -41.2931 -41.2931 -41.2918 -41.2918
   -41.2918 -41.2918 -41.2845 -41.2845 -41.2794 -41.2794 -41.2790 -41.2790
     7.6369   7.6370   8.3128   8.3128   8.8798   8.8798   9.3402   9.3402
     9.6678   9.6678   9.6758   9.6758   9.7603   9.7603   9.7745   9.7745
     9.7761   9.7761  10.0616  10.0616  10.0621  10.0621  10.0823  10.0823
    10.1061  10.1061  10.1767  10.1767  10.2374  10.2374  10.2421  10.2421
    10.3352  10.3352  10.3553  10.3553  10.3707  10.3707  10.3969  10.3969
    10.4299  10.4299  10.4332  10.4332  10.4778  10.4778  10.7507  10.7507
    11.4078  11.4078  11.4246  11.4247  11.4366  11.4366  11.5220  11.5220
    11.5342  11.5342  11.5416  11.5416  11.5464  11.5464  11.5781  11.5781
    11.5984  11.5984  11.6008  11.6008  11.6208  11.6208  11.6262  11.6262
    11.7356  11.7356  11.8324  11.8324  11.9661  11.9661  12.0181  12.0181
    12.1212  12.1212  12.1263  12.1263  12.5544  12.5544  13.2172  13.2172
    15.8247  15.8247

          k = 0.2427-0.4368-0.4368 ( 16424 PWs)   bands (ev):

   -75.3191 -75.3191 -75.3191 -75.3191 -75.3135 -75.3135 -75.3135 -75.3135
   -75.3051 -75.3051 -75.3051 -75.3051 -75.3011 -75.3011 -75.3011 -75.3011
   -41.3980 -41.3980 -41.3980 -41.3980 -41.3940 -41.3940 -41.3940 -41.3940
   -41.3857 -41.3857 -41.3857 -41.3857 -41.3695 -41.3695 -41.3695 -41.3695
   -41.3652 -41.3652 -41.3652 -41.3652 -41.3576 -41.3576 -41.3576 -41.3576
   -41.3170 -41.3170 -41.3170 -41.3170 -41.3096 -41.3096 -41.3096 -41.3096
   -41.2962 -41.2962 -41.2962 -41.2962 -41.2954 -41.2954 -41.2954 -41.2954
   -41.2885 -41.2885 -41.2885 -41.2885 -41.2789 -41.2789 -41.2789 -41.2789
     7.9578   7.9578   7.9578   7.9578   9.1248   9.1248   9.1248   9.1248
     9.6848   9.6848   9.6848   9.6848   9.8428   9.8428   9.8428   9.8428
     9.9228   9.9228   9.9228   9.9228  10.0307  10.0307  10.0307  10.0307
    10.1429  10.1429  10.1429  10.1429  10.2284  10.2285  10.2285  10.2285
    10.2849  10.2849  10.2849  10.2849  10.3539  10.3539  10.3539  10.3539
    10.4175  10.4175  10.4175  10.4175  10.5859  10.5859  10.5859  10.5859
    11.4361  11.4361  11.4361  11.4361  11.4805  11.4805  11.4805  11.4805
    11.5437  11.5437  11.5437  11.5437  11.5949  11.5949  11.5949  11.5949
    11.6089  11.6089  11.6089  11.6089  11.6379  11.6379  11.6379  11.6379
    11.8117  11.8117  11.8117  11.8117  11.8755  11.8755  11.8755  11.8755
    12.1320  12.1320  12.1320  12.1320  12.8705  12.8705  12.8705  12.8705
    16.2490  16.2490

          k = 0.3397 0.3397 0.3397 ( 16419 PWs)   bands (ev):

   -75.3213 -75.3176 -75.3175 -75.3175 -75.3148 -75.3148 -75.3148 -75.3128
   -75.3053 -75.3041 -75.3041 -75.3041 -75.3022 -75.3022 -75.3022 -75.2994
   -41.3977 -41.3977 -41.3977 -41.3948 -41.3948 -41.3948 -41.3886 -41.3863
   -41.3863 -41.3810 -41.3810 -41.3810 -41.3803 -41.3803 -41.3702 -41.3702
   -41.3702 -41.3653 -41.3653 -41.3653 -41.3652 -41.3652 -41.3652 -41.3452
   -41.3254 -41.3103 -41.3103 -41.3103 -41.3056 -41.3056 -41.3056 -41.3010
   -41.3010 -41.2987 -41.2987 -41.2987 -41.2987 -41.2987 -41.2987 -41.2937
   -41.2849 -41.2849 -41.2849 -41.2841 -41.2841 -41.2827 -41.2827 -41.2827
     7.5577   8.2713   8.2713   8.2713   8.8354   8.8354   8.8354   9.4065
     9.7132   9.7132   9.7526   9.7526   9.7526   9.8608   9.8608   9.8608
     9.8686   9.8686   9.8686   9.8796  10.0853  10.0853  10.1437  10.1437
    10.1437  10.1850  10.1850  10.2213  10.2213  10.2213  10.2384  10.2384
    10.2384  10.2936  10.2936  10.2936  10.3063  10.3063  10.3063  10.3267
    10.3267  10.3267  10.3730  10.3730  10.4597  10.4597  10.4597  10.7241
    11.4102  11.4102  11.4102  11.4816  11.4816  11.4903  11.4903  11.4903
    11.5606  11.5606  11.5704  11.5704  11.5704  11.5824  11.5824  11.5824
    11.5850  11.5850  11.5850  11.6297  11.6554  11.6554  11.6554  11.7241
    11.7241  11.9633  11.9633  11.9816  11.9816  11.9816  12.0202  12.0202
    12.0202  12.0340  12.0340  12.0340  12.5376  12.5376  12.5376  13.2142
    16.5421  16.5421

          k = 0.3397 0.3397-0.4368 ( 16402 PWs)   bands (ev):

   -75.3195 -75.3195 -75.3163 -75.3163 -75.3163 -75.3163 -75.3139 -75.3139
   -75.3047 -75.3047 -75.3031 -75.3031 -75.3031 -75.3030 -75.3007 -75.3007
   -41.3952 -41.3952 -41.3952 -41.3952 -41.3914 -41.3914 -41.3897 -41.3897
   -41.3847 -41.3847 -41.3790 -41.3790 -41.3732 -41.3732 -41.3732 -41.3732
   -41.3732 -41.3732 -41.3700 -41.3700 -41.3700 -41.3700 -41.3553 -41.3553
   -41.3176 -41.3176 -41.3040 -41.3040 -41.3040 -41.3040 -41.3035 -41.3035
   -41.3007 -41.3007 -41.3006 -41.3006 -41.2959 -41.2959 -41.2921 -41.2921
   -41.2906 -41.2906 -41.2843 -41.2843 -41.2843 -41.2843 -41.2826 -41.2826
     7.8930   7.8930   8.5515   8.5515   8.5515   8.5515   9.1196   9.1197
     9.7829   9.7829   9.8206   9.8206   9.8236   9.8236   9.8236   9.8236
     9.8880   9.8880  10.0447  10.0447  10.0447  10.0447  10.1128  10.1128
    10.1191  10.1191  10.1766  10.1767  10.2066  10.2066  10.2066  10.2066
    10.2158  10.2158  10.2922  10.2922  10.2922  10.2922  10.3185  10.3185
    10.3213  10.3213  10.3213  10.3213  10.3350  10.3350  10.5537  10.5537
    11.4474  11.4474  11.4592  11.4592  11.4592  11.4592  11.5247  11.5247
    11.5321  11.5321  11.5663  11.5663  11.5705  11.5705  11.5705  11.5705
    11.6407  11.6407  11.6407  11.6407  11.6678  11.6678  11.8047  11.8047
    11.8207  11.8207  11.8393  11.8393  11.9873  11.9873  11.9873  11.9873
    12.0119  12.0119  12.2730  12.2730  12.2730  12.2730  12.8601  12.8601
    16.8578  16.8578

          k = 0.3397-0.4368-0.4368 ( 16436 PWs)   bands (ev):

   -75.3181 -75.3180 -75.3180 -75.3180 -75.3152 -75.3151 -75.3151 -75.3151
   -75.3038 -75.3038 -75.3038 -75.3038 -75.3018 -75.3018 -75.3018 -75.3018
   -41.3921 -41.3921 -41.3921 -41.3921 -41.3900 -41.3900 -41.3900 -41.3900
   -41.3788 -41.3788 -41.3788 -41.3788 -41.3773 -41.3772 -41.3772 -41.3772
   -41.3754 -41.3754 -41.3754 -41.3754 -41.3645 -41.3645 -41.3645 -41.3645
   -41.3106 -41.3106 -41.3106 -41.3106 -41.3000 -41.3000 -41.3000 -41.3000
   -41.2995 -41.2995 -41.2995 -41.2995 -41.2938 -41.2938 -41.2938 -41.2938
   -41.2897 -41.2897 -41.2897 -41.2897 -41.2844 -41.2844 -41.2844 -41.2844
     8.2079   8.2079   8.2079   8.2079   8.8352   8.8352   8.8352   8.8352
     9.8241   9.8241   9.8241   9.8241   9.9481   9.9481   9.9481   9.9481
     9.9818   9.9818   9.9818   9.9818  10.0051  10.0051  10.0051  10.0051
    10.1767  10.1767  10.1767  10.1767  10.1832  10.1832  10.1832  10.1832
    10.2091  10.2091  10.2091  10.2091  10.2514  10.2514  10.2514  10.2514
    10.2995  10.2995  10.2995  10.2995  10.3890  10.3890  10.3890  10.3890
    11.4728  11.4728  11.4728  11.4728  11.4981  11.4981  11.4981  11.4981
    11.5318  11.5318  11.5318  11.5318  11.5622  11.5622  11.5622  11.5622
    11.6998  11.6998  11.6998  11.6998  11.7524  11.7524  11.7524  11.7524
    11.8739  11.8739  11.8739  11.8739  11.9827  11.9827  11.9827  11.9827
    12.0349  12.0349  12.0349  12.0349  12.5520  12.5520  12.5520  12.5520
    17.2903  17.2903

          k =-0.4368-0.4368-0.4368 ( 16368 PWs)   bands (ev):

   -75.3167 -75.3166 -75.3166 -75.3166 -75.3166 -75.3166 -75.3166 -75.3166
   -75.3027 -75.3027 -75.3027 -75.3027 -75.3027 -75.3027 -75.3027 -75.3027
   -41.3845 -41.3845 -41.3845 -41.3845 -41.3845 -41.3845 -41.3845 -41.3845
   -41.3845 -41.3845 -41.3845 -41.3845 -41.3845 -41.3845 -41.3845 -41.3845
   -41.3714 -41.3714 -41.3714 -41.3714 -41.3714 -41.3714 -41.3714 -41.3714
   -41.3045 -41.3045 -41.3045 -41.3045 -41.3045 -41.3045 -41.3045 -41.3045
   -41.2912 -41.2912 -41.2912 -41.2911 -41.2911 -41.2911 -41.2911 -41.2911
   -41.2911 -41.2911 -41.2911 -41.2911 -41.2911 -41.2911 -41.2911 -41.2911
     8.5121   8.5121   8.5121   8.5121   8.5121   8.5121   8.5121   8.5121
     9.9766   9.9766   9.9766   9.9766   9.9766   9.9766   9.9766   9.9766
     9.9766   9.9766   9.9766   9.9766   9.9766   9.9766   9.9766   9.9766
    10.2132  10.2132  10.2132  10.2132  10.2132  10.2132  10.2132  10.2132
    10.2141  10.2141  10.2141  10.2141  10.2141  10.2141  10.2141  10.2141
    10.2141  10.2141  10.2141  10.2141  10.2141  10.2141  10.2141  10.2141
    11.5165  11.5165  11.5165  11.5165  11.5165  11.5165  11.5165  11.5165
    11.5165  11.5165  11.5165  11.5165  11.5165  11.5165  11.5165  11.5165
    11.8326  11.8326  11.8326  11.8327  11.8327  11.8327  11.8327  11.8327
    11.8327  11.8327  11.8327  11.8327  11.8327  11.8327  11.8327  11.8327
    12.2805  12.2805  12.2805  12.2805  12.2805  12.2805  12.2805  12.2805
    18.2881  18.2881

 ------ SPIN DOWN ----------


          k = 0.0485 0.0485 0.0485 ( 16456 PWs)   bands (ev):

   -71.9537 -71.9321 -71.9321 -71.9321 -71.9289 -71.9289 -71.9289 -71.9285
   -71.9285 -71.9285 -71.9282 -71.9282 -71.9282 -71.9270 -71.9269 -71.9096
   -38.1365 -38.1365 -38.1365 -38.1358 -38.1358 -38.1358 -38.0932 -38.0932
   -38.0912 -38.0634 -38.0624 -38.0624 -38.0624 -38.0551 -38.0551 -38.0515
   -38.0515 -38.0515 -38.0400 -38.0400 -38.0327 -38.0324 -38.0324 -38.0324
   -38.0283 -38.0283 -38.0283 -38.0254 -38.0254 -38.0254 -38.0244 -38.0244
   -38.0244 -38.0211 -38.0211 -38.0211 -38.0174 -38.0174 -38.0174 -37.9658
   -37.9645 -37.9645 -37.9645 -37.9645 -37.9645 -37.9635 -37.9635 -37.9635
     5.9559   9.2701   9.2701   9.2701   9.9063   9.9063   9.9063  10.5539
    10.5539  10.5539  10.6116  10.6116  10.6116  11.3637  11.3637  12.0242
    12.0638  12.0644  12.0644  12.0885  12.0885  12.3885  12.3885  12.3885
    12.3968  12.3968  12.3968  12.8436  12.8436  12.8436  13.1104  13.1104
    13.1104  13.2993  13.2993  13.3023  13.3023  13.3023  13.3067  13.3067
    13.3067  13.3306  13.4500  13.4500  13.4500  13.5468  13.5468  13.5468
    13.5700  13.5700  13.5700  13.6412  13.6412  13.6412  14.2061  14.2061
    14.2061  14.3713  14.3713  14.3713  14.6003  14.6003  14.6004  14.6171
    14.6171  14.6171  14.7178  14.7178  14.8933  14.8933  14.8933  14.9228
    14.9228  14.9232  14.9232  14.9639  14.9639  14.9639  15.1425  15.1757
    15.1757  15.1757  15.1988  15.1988  15.3230  15.3230  15.3230  15.4320
    15.4320  15.4320

          k = 0.0485 0.0485 0.1456 ( 16437 PWs)   bands (ev):

   -71.9528 -71.9360 -71.9319 -71.9319 -71.9293 -71.9293 -71.9287 -71.9283
   -71.9282 -71.9282 -71.9282 -71.9282 -71.9273 -71.9273 -71.9244 -71.9101
   -38.1344 -38.1344 -38.1337 -38.1330 -38.1317 -38.1317 -38.0939 -38.0911
   -38.0874 -38.0746 -38.0724 -38.0724 -38.0711 -38.0709 -38.0619 -38.0619
   -38.0513 -38.0436 -38.0427 -38.0394 -38.0390 -38.0322 -38.0322 -38.0267
   -38.0264 -38.0264 -38.0255 -38.0255 -38.0234 -38.0234 -38.0219 -38.0212
   -38.0212 -38.0189 -38.0189 -38.0100 -38.0083 -38.0083 -38.0064 -37.9702
   -37.9674 -37.9674 -37.9668 -37.9660 -37.9659 -37.9647 -37.9645 -37.9645
     6.0598   8.6254   9.3428   9.3428   9.9696   9.9696  10.4554  10.4554
    10.4801  10.6300  10.6309  10.6309  10.6864  11.3823  11.4122  11.9432
    11.9465  12.0708  12.0781  12.1275  12.1473  12.3670  12.3741  12.4225
    12.4225  12.4472  12.4472  12.5645  12.7661  12.7661  12.9794  12.9794
    13.1295  13.1295  13.1449  13.1450  13.1707  13.1723  13.2811  13.2813
    13.2941  13.3156  13.3156  13.3618  13.3718  13.4281  13.4281  13.5790
    13.7075  13.7075  13.7213  13.7446  13.7446  13.7891  14.0440  14.3493
    14.3493  14.5111  14.5111  14.5346  14.5504  14.5505  14.5967  14.5967
    14.6181  14.6327  14.6683  14.7378  14.8953  14.8998  14.9014  14.9202
    14.9215  14.9350  14.9370  14.9370  15.0160  15.0835  15.0953  15.1162
    15.1162  15.1759  15.1760  15.1950  15.3421  15.3421  15.3712  15.3712
    15.4519  15.4519

          k = 0.0485 0.0485 0.2427 ( 16396 PWs)   bands (ev):

   -71.9512 -71.9397 -71.9316 -71.9316 -71.9297 -71.9297 -71.9285 -71.9282
   -71.9281 -71.9281 -71.9280 -71.9280 -71.9275 -71.9274 -71.9209 -71.9111
   -38.1292 -38.1292 -38.1282 -38.1277 -38.1246 -38.1246 -38.0930 -38.0871
   -38.0867 -38.0854 -38.0851 -38.0851 -38.0825 -38.0787 -38.0755 -38.0755
   -38.0543 -38.0500 -38.0470 -38.0417 -38.0315 -38.0315 -38.0296 -38.0282
   -38.0276 -38.0276 -38.0254 -38.0227 -38.0227 -38.0211 -38.0211 -38.0115
   -38.0094 -38.0075 -38.0075 -37.9994 -37.9975 -37.9975 -37.9963 -37.9775
   -37.9723 -37.9723 -37.9716 -37.9710 -37.9693 -37.9676 -37.9674 -37.9674
     6.2660   8.0113   9.4817   9.4817  10.0874  10.0874  10.3091  10.3091
    10.6061  10.6061  10.7767  10.8306  10.9323  11.4084  11.5079  11.7467
    11.7662  12.1025  12.1030  12.2267  12.2448  12.2954  12.3262  12.3315
    12.4971  12.4971  12.5379  12.5379  12.6695  12.6695  12.8452  12.8452
    12.9007  12.9007  12.9414  12.9414  12.9638  12.9716  13.1281  13.1281
    13.2296  13.2296  13.2666  13.2852  13.2945  13.3027  13.4337  13.7857
    13.8899  13.9012  13.9012  13.9032  13.9099  13.9099  13.9760  14.4697
    14.4697  14.5356  14.5356  14.5463  14.5463  14.5705  14.6517  14.6632
    14.6909  14.7010  14.7010  14.7752  14.8248  14.8598  14.8624  14.8988
    14.9121  14.9169  14.9169  14.9184  15.0126  15.0126  15.0134  15.1484
    15.1753  15.1753  15.2135  15.2135  15.2780  15.2780  15.3768  15.3768
    15.4440  15.4440

          k = 0.0485 0.0485 0.3397 ( 16409 PWs)   bands (ev):

   -71.9491 -71.9432 -71.9312 -71.9312 -71.9303 -71.9303 -71.9283 -71.9280
   -71.9280 -71.9280 -71.9280 -71.9280 -71.9278 -71.9276 -71.9177 -71.9128
   -38.1209 -38.1209 -38.1204 -38.1202 -38.1151 -38.1151 -38.0995 -38.0988
   -38.0984 -38.0984 -38.0917 -38.0894 -38.0894 -38.0846 -38.0806 -38.0764
   -38.0642 -38.0598 -38.0429 -38.0392 -38.0335 -38.0317 -38.0309 -38.0309
[...]
   -38.0637 -38.0594 -38.0594 -38.0594 -38.0518 -38.0470 -38.0470 -38.0470
   -38.0143 -38.0143 -38.0143 -38.0134 -38.0134 -38.0134 -38.0122 -38.0095
   -38.0095 -38.0016 -38.0016 -38.0016 -37.9894 -37.9846 -37.9846 -37.9846
   -37.9768 -37.9768 -37.9768 -37.9709 -37.9709 -37.9709 -37.9698 -37.9698
     6.8695   8.5316   8.5316   8.5316   9.8342   9.8342   9.8342  11.0273
    11.2223  11.2223  11.2223  11.2333  11.2333  11.2333  11.6429  11.6429
    11.8522  12.1787  12.1787  12.1983  12.1983  12.2023  12.2023  12.2023
    12.4661  12.4661  12.4661  12.4983  12.4983  12.4983  12.5677  12.5677
    12.5677  12.6523  12.6523  12.6523  12.8392  12.8392  12.8392  12.9061
    12.9061  12.9061  13.0792  13.0792  13.1803  13.1803  13.1803  13.8615
    13.8857  14.2041  14.2041  14.2041  14.2349  14.2349  14.2349  14.4118
    14.4118  14.4118  14.5104  14.5104  14.5104  14.6110  14.6110  14.6110
    14.6494  14.6494  14.8045  14.8045  14.8369  14.8369  14.8499  14.8499
    14.8499  14.9387  14.9387  14.9387  14.9493  14.9493  14.9493  14.9628
    14.9628  15.0621  15.0621  15.0621  15.3611  15.3611  15.3611  16.5785
    16.5785  16.6463

          k = 0.2427 0.2427 0.3397 ( 16416 PWs)   bands (ev):

   -71.9455 -71.9406 -71.9367 -71.9367 -71.9341 -71.9341 -71.9321 -71.9305
   -71.9259 -71.9254 -71.9241 -71.9241 -71.9225 -71.9225 -71.9194 -71.9155
   -38.1175 -38.1175 -38.1139 -38.1067 -38.1067 -38.1047 -38.1032 -38.1022
   -38.0990 -38.0960 -38.0960 -38.0928 -38.0879 -38.0743 -38.0743 -38.0721
   -38.0700 -38.0599 -38.0599 -38.0548 -38.0529 -38.0529 -38.0510 -38.0422
   -38.0245 -38.0229 -38.0146 -38.0124 -38.0096 -38.0096 -38.0052 -38.0052
   -38.0031 -38.0030 -37.9974 -37.9916 -37.9904 -37.9904 -37.9865 -37.9841
   -37.9779 -37.9753 -37.9745 -37.9745 -37.9726 -37.9712 -37.9712 -37.9690
     7.1629   8.0052   8.7806   8.7806   9.4537   9.4537  10.0728  10.6977
    11.3293  11.3293  11.3531  11.3531  11.4111  11.5103  11.6771  11.7496
    11.7895  12.0378  12.1862  12.1862  12.1925  12.2459  12.2597  12.2621
    12.3414  12.3414  12.4040  12.4163  12.4341  12.5026  12.5335  12.5335
    12.6605  12.6605  12.6797  12.6797  12.7244  12.7244  12.8024  12.8024
    12.9076  12.9122  12.9925  12.9925  12.9995  13.0329  13.2633  13.6257
    14.0110  14.2651  14.2651  14.3416  14.3500  14.3521  14.3521  14.3540
    14.3540  14.3557  14.5210  14.5647  14.5647  14.5674  14.6589  14.7032
    14.7032  14.7154  14.7263  14.7550  14.7801  14.8248  14.8433  14.8433
    14.8442  14.8502  14.8659  14.9353  14.9353  14.9460  14.9693  14.9693
    14.9982  15.0244  15.0581  15.0581  15.1621  15.1621  15.6510  16.2998
    16.8149  16.8149

          k = 0.2427 0.2427-0.4368 ( 16404 PWs)   bands (ev):

   -71.9433 -71.9433 -71.9355 -71.9355 -71.9355 -71.9355 -71.9313 -71.9313
   -71.9257 -71.9257 -71.9232 -71.9232 -71.9232 -71.9232 -71.9172 -71.9172
   -38.1122 -38.1122 -38.1122 -38.1122 -38.1043 -38.1043 -38.1035 -38.1035
   -38.1020 -38.1020 -38.0853 -38.0853 -38.0852 -38.0852 -38.0796 -38.0796
   -38.0637 -38.0637 -38.0574 -38.0574 -38.0574 -38.0574 -38.0377 -38.0377
   -38.0326 -38.0326 -38.0135 -38.0135 -38.0058 -38.0058 -38.0058 -38.0058
   -37.9973 -37.9973 -37.9973 -37.9973 -37.9868 -37.9868 -37.9849 -37.9848
   -37.9827 -37.9827 -37.9724 -37.9724 -37.9724 -37.9724 -37.9700 -37.9700
     7.5446   7.5446   9.0941   9.0941   9.0941   9.0941  10.3684  10.3684
    11.3883  11.3883  11.3883  11.3883  11.6118  11.6118  11.6514  11.6514
    11.8836  11.8836  12.2238  12.2238  12.2238  12.2238  12.2990  12.2990
    12.3282  12.3282  12.3334  12.3334  12.3656  12.3656  12.6205  12.6205
    12.6205  12.6205  12.7141  12.7141  12.7141  12.7141  12.8235  12.8235
    12.8235  12.8235  12.9401  12.9401  12.9766  12.9766  13.4095  13.4095
    14.1725  14.1725  14.3059  14.3059  14.3059  14.3059  14.4649  14.4649
    14.4714  14.4714  14.4714  14.4714  14.5450  14.5450  14.6294  14.6294
    14.7181  14.7181  14.7892  14.7892  14.8347  14.8347  14.8347  14.8347
    14.8486  14.8486  14.8690  14.8690  14.9857  14.9857  14.9857  14.9857
    15.0203  15.0203  15.0203  15.0203  15.0327  15.0327  15.9686  15.9686
    17.0162  17.0162

          k = 0.2427 0.3397 0.3397 ( 16416 PWs)   bands (ev):

   -71.9439 -71.9394 -71.9394 -71.9361 -71.9358 -71.9334 -71.9334 -71.9316
   -71.9253 -71.9244 -71.9244 -71.9229 -71.9226 -71.9202 -71.9202 -71.9166
   -38.1152 -38.1108 -38.1108 -38.1064 -38.1064 -38.1062 -38.1011 -38.1004
   -38.0974 -38.0974 -38.0945 -38.0862 -38.0854 -38.0814 -38.0751 -38.0704
   -38.0704 -38.0643 -38.0620 -38.0620 -38.0613 -38.0613 -38.0606 -38.0365
   -38.0325 -38.0138 -38.0138 -38.0088 -38.0088 -38.0078 -38.0034 -38.0028
   -37.9984 -37.9973 -37.9935 -37.9932 -37.9932 -37.9879 -37.9879 -37.9858
   -37.9784 -37.9774 -37.9774 -37.9757 -37.9717 -37.9717 -37.9705 -37.9698
     7.4504   8.2715   8.2715   9.0129   9.0291   9.6978   9.6978  10.3457
    11.4589  11.5251  11.5251  11.5496  11.6123  11.6123  11.7818  11.7837
    11.8355  12.0458  12.0458  12.1462  12.1566  12.2191  12.2736  12.2736
    12.2866  12.2997  12.3341  12.4613  12.4613  12.5273  12.5273  12.5317
    12.5317  12.5953  12.6228  12.6951  12.7020  12.7441  12.7864  12.7864
    12.8134  12.8322  12.8322  12.9185  12.9616  13.0435  13.0435  13.3661
    14.1770  14.3354  14.3737  14.3738  14.3738  14.4439  14.4439  14.4444
    14.4815  14.4815  14.5372  14.5372  14.5754  14.5861  14.6192  14.6192
    14.6830  14.6899  14.7046  14.7465  14.8079  14.8086  14.8305  14.8315
    14.8368  14.8368  14.8404  14.8404  14.9180  14.9340  14.9340  14.9498
    15.0040  15.0054  15.0090  15.0090  15.0694  15.4208  15.4208  15.9940
    17.1064  17.5349

          k = 0.2427 0.3397-0.4368 ( 16420 PWs)   bands (ev):

   -71.9418 -71.9418 -71.9378 -71.9378 -71.9347 -71.9346 -71.9326 -71.9326
   -71.9249 -71.9248 -71.9236 -71.9236 -71.9213 -71.9213 -71.9183 -71.9183
   -38.1109 -38.1109 -38.1076 -38.1076 -38.1041 -38.1041 -38.1025 -38.1025
   -38.0995 -38.0995 -38.0893 -38.0893 -38.0794 -38.0794 -38.0738 -38.0738
   -38.0696 -38.0696 -38.0668 -38.0668 -38.0647 -38.0647 -38.0492 -38.0492
   -38.0230 -38.0230 -38.0080 -38.0080 -38.0053 -38.0053 -38.0051 -38.0051
   -37.9971 -37.9971 -37.9927 -37.9927 -37.9864 -37.9864 -37.9852 -37.9852
   -37.9848 -37.9848 -37.9767 -37.9767 -37.9708 -37.9708 -37.9702 -37.9702
     7.8233   7.8233   8.6122   8.6122   9.3412   9.3412  10.0023  10.0023
    11.5459  11.5459  11.6446  11.6446  11.7117  11.7117  11.7560  11.7560
    11.9087  11.9087  12.1005  12.1005  12.1717  12.1717  12.1925  12.1925
    12.3757  12.3757  12.3893  12.3893  12.4219  12.4219  12.5312  12.5312
    12.6067  12.6067  12.6553  12.6553  12.6792  12.6792  12.7563  12.7563
    12.8431  12.8431  12.8661  12.8661  12.8952  12.8952  13.1623  13.1623
    14.3493  14.3493  14.3541  14.3541  14.4396  14.4396  14.5225  14.5225
    14.5303  14.5303  14.5304  14.5304  14.5398  14.5398  14.6002  14.6002
    14.6840  14.6840  14.7377  14.7377  14.7601  14.7601  14.8137  14.8137
    14.8350  14.8350  14.8461  14.8461  14.8490  14.8490  14.9146  14.9146
    15.0213  15.0213  15.0471  15.0471  15.1990  15.1990  15.7017  15.7017
    17.3794  17.3794

          k = 0.2427-0.4368-0.4368 ( 16424 PWs)   bands (ev):

   -71.9400 -71.9400 -71.9400 -71.9400 -71.9336 -71.9336 -71.9336 -71.9336
   -71.9242 -71.9242 -71.9242 -71.9242 -71.9196 -71.9196 -71.9196 -71.9196
   -38.1079 -38.1079 -38.1079 -38.1079 -38.1036 -38.1036 -38.1036 -38.1036
   -38.0942 -38.0942 -38.0942 -38.0942 -38.0745 -38.0745 -38.0745 -38.0745
   -38.0699 -38.0699 -38.0699 -38.0699 -38.0617 -38.0617 -38.0617 -38.0617
   -38.0137 -38.0137 -38.0137 -38.0137 -38.0056 -38.0056 -38.0056 -38.0056
   -37.9899 -37.9899 -37.9899 -37.9899 -37.9890 -37.9890 -37.9890 -37.9890
   -37.9813 -37.9813 -37.9813 -37.9813 -37.9702 -37.9702 -37.9702 -37.9702
     8.1830   8.1830   8.1830   8.1830   9.6506   9.6506   9.6506   9.6506
    11.6873  11.6873  11.6873  11.6873  11.7782  11.7782  11.7782  11.7782
    11.9766  11.9766  11.9766  11.9766  12.1364  12.1364  12.1364  12.1364
    12.4414  12.4414  12.4414  12.4414  12.5058  12.5058  12.5058  12.5058
    12.5088  12.5088  12.5088  12.5088  12.7508  12.7508  12.7508  12.7508
    12.8219  12.8219  12.8219  12.8219  12.9729  12.9729  12.9729  12.9729
    14.4316  14.4316  14.4316  14.4316  14.5420  14.5420  14.5420  14.5420
    14.5425  14.5425  14.5425  14.5425  14.5653  14.5653  14.5653  14.5653
    14.6165  14.6165  14.6165  14.6165  14.7585  14.7585  14.7585  14.7585
    14.8397  14.8397  14.8397  14.8397  14.8562  14.8562  14.8562  14.8562
    15.0436  15.0436  15.0436  15.0436  15.4457  15.4457  15.4457  15.4457
    17.7458  17.7458

          k = 0.3397 0.3397 0.3397 ( 16419 PWs)   bands (ev):

   -71.9424 -71.9383 -71.9383 -71.9383 -71.9352 -71.9352 -71.9352 -71.9328
   -71.9245 -71.9230 -71.9230 -71.9230 -71.9209 -71.9209 -71.9209 -71.9178
   -38.1079 -38.1079 -38.1079 -38.1043 -38.1043 -38.1043 -38.0976 -38.0940
   -38.0940 -38.0889 -38.0889 -38.0889 -38.0877 -38.0877 -38.0754 -38.0754
   -38.0754 -38.0706 -38.0706 -38.0706 -38.0697 -38.0697 -38.0697 -38.0472
   -38.0234 -38.0061 -38.0061 -38.0061 -38.0009 -38.0009 -38.0009 -37.9958
   -37.9958 -37.9929 -37.9929 -37.9929 -37.9928 -37.9928 -37.9928 -37.9870
   -37.9772 -37.9772 -37.9772 -37.9760 -37.9760 -37.9745 -37.9745 -37.9745
     7.7328   8.5353   8.5353   8.5353   9.2665   9.2665   9.2665   9.9546
    11.7201  11.7201  11.7201  11.7402  11.7402  11.7402  11.8581  11.8581
    12.0246  12.0511  12.0511  12.0511  12.1595  12.1595  12.2006  12.2006
    12.2006  12.3740  12.3740  12.5233  12.5233  12.5233  12.5290  12.5290
    12.5290  12.5671  12.5671  12.5671  12.7057  12.7057  12.7057  12.7205
    12.7205  12.7205  12.8100  12.8100  12.8100  12.8575  12.8575  13.0952
    14.3559  14.4831  14.4831  14.4831  14.4908  14.4908  14.4908  14.5203
    14.5203  14.5203  14.6320  14.6320  14.6320  14.6555  14.6555  14.7325
    14.7325  14.7337  14.7337  14.7337  14.7692  14.7692  14.7998  14.7998
    14.7998  14.8150  14.8150  14.8239  14.8239  14.8239  14.9219  14.9219
    14.9219  14.9239  14.9239  14.9239  15.1882  15.1882  15.1882  15.7132
    17.9163  17.9163

          k = 0.3397 0.3397-0.4368 ( 16402 PWs)   bands (ev):

   -71.9404 -71.9404 -71.9368 -71.9368 -71.9368 -71.9368 -71.9340 -71.9340
   -71.9237 -71.9237 -71.9219 -71.9219 -71.9219 -71.9219 -71.9192 -71.9192
   -38.1049 -38.1049 -38.1049 -38.1049 -38.1001 -38.1001 -38.0986 -38.0986
   -38.0930 -38.0930 -38.0856 -38.0856 -38.0797 -38.0797 -38.0797 -38.0797
   -38.0792 -38.0792 -38.0753 -38.0753 -38.0753 -38.0753 -38.0589 -38.0589
   -38.0144 -38.0144 -37.9988 -37.9988 -37.9988 -37.9988 -37.9985 -37.9985
   -37.9951 -37.9951 -37.9951 -37.9951 -37.9895 -37.9895 -37.9855 -37.9855
   -37.9835 -37.9835 -37.9764 -37.9764 -37.9764 -37.9764 -37.9744 -37.9744
     8.0981   8.0981   8.8720   8.8720   8.8720   8.8720   9.5864   9.5864
    11.8056  11.8056  11.8056  11.8056  11.8710  11.8710  11.9126  11.9126
    11.9493  11.9493  12.0951  12.0951  12.0951  12.0951  12.1794  12.1794
    12.3008  12.3008  12.4527  12.4527  12.4548  12.4548  12.6078  12.6078
    12.6078  12.6078  12.6234  12.6234  12.6234  12.6234  12.6371  12.6371
    12.6371  12.6371  12.7739  12.7739  12.7851  12.7851  12.8930  12.8930
    14.5079  14.5079  14.5079  14.5079  14.5470  14.5470  14.5929  14.5930
    14.5938  14.5938  14.5938  14.5938  14.6261  14.6261  14.6344  14.6344
    14.6996  14.6996  14.7340  14.7340  14.7870  14.7870  14.7898  14.7898
    14.7898  14.7898  14.8096  14.8096  14.8927  14.8927  14.9049  14.9049
    14.9049  14.9049  14.9676  14.9676  14.9676  14.9676  15.4460  15.4460
    18.1726  18.1726

          k = 0.3397-0.4368-0.4368 ( 16436 PWs)   bands (ev):

   -71.9388 -71.9388 -71.9388 -71.9388 -71.9355 -71.9355 -71.9355 -71.9355
   -71.9227 -71.9227 -71.9227 -71.9227 -71.9205 -71.9205 -71.9205 -71.9205
   -38.1011 -38.1011 -38.1011 -38.1011 -38.0988 -38.0988 -38.0988 -38.0988
   -38.0862 -38.0862 -38.0862 -38.0862 -38.0836 -38.0836 -38.0836 -38.0836
   -38.0817 -38.0817 -38.0817 -38.0817 -38.0696 -38.0696 -38.0696 -38.0696
   -38.0063 -38.0063 -38.0063 -38.0063 -37.9945 -37.9945 -37.9945 -37.9945
   -37.9936 -37.9936 -37.9936 -37.9936 -37.9872 -37.9872 -37.9872 -37.9872
   -37.9826 -37.9826 -37.9826 -37.9826 -37.9765 -37.9765 -37.9765 -37.9765
     8.4518   8.4518   8.4518   8.4518   9.2021   9.2021   9.2021   9.2021
    11.9236  11.9236  11.9236  11.9236  11.9603  11.9603  11.9603  11.9603
    12.0095  12.0095  12.0095  12.0095  12.0912  12.0912  12.0912  12.0912
    12.4071  12.4071  12.4071  12.4071  12.5230  12.5230  12.5231  12.5231
    12.5384  12.5384  12.5384  12.5384  12.6840  12.6840  12.6840  12.6840
    12.6902  12.6902  12.6902  12.6902  12.7046  12.7046  12.7046  12.7046
    14.6008  14.6008  14.6008  14.6008  14.6145  14.6145  14.6145  14.6145
    14.6265  14.6265  14.6265  14.6265  14.6615  14.6615  14.6615  14.6615
    14.7345  14.7345  14.7345  14.7345  14.7524  14.7524  14.7524  14.7524
    14.7769  14.7769  14.7769  14.7769  14.8101  14.8101  14.8101  14.8101
    14.8757  14.8757  14.8757  14.8757  15.2025  15.2025  15.2025  15.2025
    18.5777  18.5777

          k =-0.4368-0.4368-0.4368 ( 16368 PWs)   bands (ev):

   -71.9371 -71.9371 -71.9371 -71.9371 -71.9371 -71.9371 -71.9371 -71.9371
   -71.9215 -71.9215 -71.9215 -71.9215 -71.9215 -71.9215 -71.9215 -71.9215
   -38.0923 -38.0923 -38.0923 -38.0923 -38.0923 -38.0923 -38.0923 -38.0923
   -38.0923 -38.0923 -38.0923 -38.0923 -38.0923 -38.0923 -38.0923 -38.0923
   -38.0776 -38.0776 -38.0776 -38.0776 -38.0776 -38.0776 -38.0776 -38.0776
   -37.9994 -37.9994 -37.9994 -37.9994 -37.9994 -37.9994 -37.9994 -37.9994
   -37.9843 -37.9843 -37.9843 -37.9843 -37.9843 -37.9843 -37.9843 -37.9843
   -37.9843 -37.9843 -37.9843 -37.9843 -37.9843 -37.9843 -37.9843 -37.9843
     8.7960   8.7960   8.7960   8.7960   8.7960   8.7960   8.7960   8.7961
    12.0485  12.0485  12.0485  12.0485  12.0485  12.0485  12.0485  12.0485
    12.0485  12.0485  12.0485  12.0485  12.0485  12.0485  12.0485  12.0485
    12.4462  12.4462  12.4462  12.4462  12.4462  12.4462  12.4462  12.4462
    12.6060  12.6060  12.6060  12.6060  12.6060  12.6060  12.6060  12.6060
    12.6060  12.6060  12.6060  12.6060  12.6060  12.6060  12.6060  12.6060
    14.7021  14.7021  14.7021  14.7021  14.7021  14.7021  14.7021  14.7021
    14.7021  14.7021  14.7021  14.7021  14.7021  14.7021  14.7021  14.7021
    14.7275  14.7275  14.7275  14.7275  14.7275  14.7275  14.7275  14.7275
    14.7275  14.7275  14.7275  14.7275  14.7275  14.7275  14.7275  14.7275
    14.9737  14.9737  14.9737  14.9737  14.9737  14.9737  14.9737  14.9737
    19.4348  19.4348

     the Fermi energy is    13.0886 ev

!    total energy              =   -5267.77559567 Ry

     total all-electron energy =    -40728.520125 Ry
     estimated scf accuracy    <       0.00000005 Ry
     smearing contrib. (-TS)   =       0.07474920 Ry
     internal energy E=F+TS    =   -5267.85034486 Ry

     The total energy is F=E-TS. E is the sum of the following terms:
     one-electron contribution =   -2156.06141266 Ry
     hartree contribution      =    1191.55635470 Ry
     xc contribution           =    -442.72281478 Ry
     ewald contribution        =   -2536.08785357 Ry
     one-center paw contrib.   =   -1324.53461855 Ry

     total magnetization       =    45.17 Bohr mag/cell
     absolute magnetization    =    48.45 Bohr mag/cell

     convergence has been achieved in  23 iterations

     negative rho (up, down):  0.000E+00 5.603E-03

     Forces acting on atoms (cartesian axes, Ry/au):

     atom    1 type  1   force =     0.00000000    0.00000000    0.00000000
     atom    2 type  2   force =    -0.00000240   -0.00000240   -0.00000240
     atom    3 type  1   force =     0.00000000    0.00000000    0.00000000
     atom    4 type  2   force =    -0.00000240   -0.00000240    0.00000240
     atom    5 type  1   force =     0.00000000    0.00000000    0.00000000
     atom    6 type  2   force =    -0.00000240    0.00000240   -0.00000240
     atom    7 type  1   force =     0.00000000    0.00000000    0.00000000
     atom    8 type  2   force =    -0.00000240    0.00000240    0.00000240
     atom    9 type  1   force =     0.00000000    0.00000000    0.00000000
     atom   10 type  2   force =     0.00000240   -0.00000240   -0.00000240
     atom   11 type  1   force =     0.00000000    0.00000000    0.00000000
     atom   12 type  2   force =     0.00000240   -0.00000240    0.00000240
     atom   13 type  1   force =     0.00000000    0.00000000    0.00000000
     atom   14 type  2   force =     0.00000240    0.00000240   -0.00000240
     atom   15 type  1   force =     0.00000000    0.00000000    0.00000000
     atom   16 type  2   force =     0.00000240    0.00000240    0.00000240

     Total force =     0.000012     Total SCF correction =     0.000004
     SCF correction compared to forces is large: reduce conv_thr to get better values


     Computing stress (Cartesian axis) and pressure


     negative rho (up, down):  0.000E+00 5.603E-03
          total   stress  (Ry/bohr**3)                   (kbar)     P=     -266.73
  -0.00181320   0.00000000   0.00000000         -266.73        0.00        0.00
   0.00000000  -0.00181320   0.00000000            0.00     -266.73        0.00
   0.00000000   0.00000000  -0.00181320            0.00        0.00     -266.73


     Writing output data file /scratch/ZdwbXCwNLzYqYbTa.save/
 
     init_run     :      6.50s CPU      6.70s WALL (       1 calls)
     electrons    :    465.16s CPU    472.16s WALL (       1 calls)
     forces       :      2.29s CPU      2.33s WALL (       1 calls)
     stress       :      4.35s CPU      4.39s WALL (       1 calls)

     Called by init_run:
     wfcinit      :      5.75s CPU      5.88s WALL (       1 calls)
     potinit      :      0.29s CPU      0.32s WALL (       1 calls)
     hinit0       :      0.12s CPU      0.12s WALL (       1 calls)

     Called by electrons:
     c_bands      :    403.42s CPU    408.83s WALL (      24 calls)
     sum_band     :     57.74s CPU     58.85s WALL (      24 calls)
     v_of_rho     :      0.51s CPU      0.54s WALL (      24 calls)
     newd         :      0.58s CPU      0.75s WALL (      24 calls)
     PAW_pot      :      2.77s CPU      3.03s WALL (      24 calls)
     mix_rho      :      0.30s CPU      0.32s WALL (      24 calls)

     Called by c_bands:
     init_us_2    :      1.58s CPU      1.68s WALL (    3570 calls)
     cegterg      :    396.62s CPU    401.86s WALL (    1680 calls)

     Called by *egterg:
     cdiaghg      :     66.03s CPU     66.36s WALL (    7174 calls)
     h_psi        :    249.23s CPU    253.61s WALL (    7314 calls)
     s_psi        :      8.33s CPU      8.41s WALL (    7314 calls)
     g_psi        :      0.33s CPU      0.33s WALL (    5564 calls)

     Called by h_psi:
     h_psi:calbec :     22.50s CPU     22.68s WALL (    7314 calls)
     vloc_psi     :    216.69s CPU    220.78s WALL (    7314 calls)
     add_vuspsi   :      9.37s CPU      9.48s WALL (    7314 calls)

     General routines
     calbec       :     32.92s CPU     33.19s WALL (    9344 calls)
     fft          :      0.43s CPU      0.45s WALL (     640 calls)
     ffts         :      0.16s CPU      0.16s WALL (     562 calls)
     fftw         :    256.95s CPU    261.68s WALL ( 1550306 calls)
     interpolate  :      0.04s CPU      0.04s WALL (      48 calls)
 
     Parallel routines
     fft_scatt_xy :     13.59s CPU     13.83s WALL ( 1551508 calls)
     fft_scatt_yz :    230.21s CPU    234.56s WALL ( 1551508 calls)
 
     PWSCF        :   8m 6.39s CPU   8m14.78s WALL

 
   This run was terminated on:  14: 7:56  17Jan2022            

=------------------------------------------------------------------------------=
   JOB DONE.
=------------------------------------------------------------------------------=
