
     Program PWSCF v.6.7MaX starts on 17Jan2022 at 14:56: 9 

     This program is part of the open-source Quantum ESPRESSO suite
     for quantum simulation of materials; please cite
         "P. Giannozzi et al., J. Phys.:Condens. Matter 21 395502 (2009);
         "P. Giannozzi et al., J. Phys.:Condens. Matter 29 465901 (2017);
          URL http://www.quantum-espresso.org", 
     in publications or presentations arising from this work. More details at
     http://www.quantum-espresso.org/quote

     Parallel version (MPI & OpenMP), running on      72 processor cores
     Number of MPI processes:                72
     Threads/MPI process:                     1

     MPI processes distributed on     1 nodes
     R & G space division:  proc/nbgrp/npool/nimage =      72
     Reading input from bcc_12.in
Warning: card &CELL ignored
Warning: card CELL_DYNAMICS = 'BFGS', ignored
Warning: card CELL_FACTOR = 2.0, ignored
Warning: card PRESS = 0.0, ignored
Warning: card / ignored

     Current dimensions of program PWSCF are:
     Max number of different atomic species (ntypx) = 10
     Max number of k-points (npk) =  40000
     Max angular momentum in pseudopotentials (lmaxx) =  3
     file Fe.pbe-spn-kjpaw_psl.1.0.0.UPF: wavefunction(s)  3P 3D renormalized
     file Fe.pbe-spn-kjpaw_psl.1.0.0.UPF: wavefunction(s)  3P 3D renormalized

     Subspace diagonalization in iterative solution of the eigenvalue problem:
     one sub-group per band group will be used
     ELPA distributed-memory algorithm (size of sub-group:  8*  8 procs)

     Found symmetry operation: I + (  0.0000  0.0000 -0.5000)
     This is a supercell, fractional translations are disabled
     Message from routine setup:
     using ibrav=0 with symmetry is DISCOURAGED, use correct ibrav instead
 
     Parallelization info
     --------------------
     sticks:   dense  smooth     PW     G-vecs:    dense   smooth      PW
     Min         108      71     19                 7244     3887     547
     Max         109      72     20                 7253     3894     554
     Sum        7817    5177   1405               521907   280169   39607
 


     bravais-lattice index     =            0
     lattice parameter (alat)  =      10.2690  a.u.
     unit-cell volume          =    3465.7961 (a.u.)^3
     number of atoms/cell      =           16
     number of atomic types    =            2
     number of electrons       =       256.00
     number of Kohn-Sham states=          154
     kinetic-energy cutoff     =      71.0000  Ry
     charge density cutoff     =     430.0000  Ry
     scf convergence threshold =      1.0E-07
     mixing beta               =       0.1000
     number of iterations used =           10  local-TF  mixing
     Exchange-correlation= SLA  PW   PBX  PBC
                           (   1   4   3   4   0   0   0)

     celldm(1)=  10.269041  celldm(2)=   0.000000  celldm(3)=   0.000000
     celldm(4)=   0.000000  celldm(5)=   0.000000  celldm(6)=   0.000000

     crystal axes: (cart. coord. in units of alat)
               a(1) = (   1.473684   0.000000   0.000000 )  
               a(2) = (   0.000000   1.473684   0.000000 )  
               a(3) = (   0.000000   0.000000   1.473684 )  

     reciprocal axes: (cart. coord. in units 2 pi/alat)
               b(1) = (  0.678571  0.000000  0.000000 )  
               b(2) = (  0.000000  0.678571  0.000000 )  
               b(3) = (  0.000000  0.000000  0.678571 )  


     PseudoPot. # 1 for Fe read from file:
     /rds/homes/b/bxp912/pp/Fe.pbe-spn-kjpaw_psl.1.0.0.UPF
     MD5 check sum: 42f43b795421b414b0dc916aa790dbcb
     Pseudo is Projector augmented-wave + core cor, Zval = 16.0
     Generated using &quot;atomic&quot; code by A. Dal Corso  v.6.3
     Shape of augmentation charge: PSQ
     Using radial grid of 1191 points,  6 beta functions with: 
                l(1) =   0
                l(2) =   0
                l(3) =   1
                l(4) =   1
                l(5) =   2
                l(6) =   2
     Q(r) pseudized with 0 coefficients 


     PseudoPot. # 2 for Fe read from file:
     /rds/homes/b/bxp912/pp/Fe.pbe-spn-kjpaw_psl.1.0.0.UPF
     MD5 check sum: 42f43b795421b414b0dc916aa790dbcb
     Pseudo is Projector augmented-wave + core cor, Zval = 16.0
     Generated using &quot;atomic&quot; code by A. Dal Corso  v.6.3
     Shape of augmentation charge: PSQ
     Using radial grid of 1191 points,  6 beta functions with: 
                l(1) =   0
                l(2) =   0
                l(3) =   1
                l(4) =   1
                l(5) =   2
                l(6) =   2
     Q(r) pseudized with 0 coefficients 


     atomic species   valence    mass     pseudopotential
        Fe1           16.00    55.84500     Fe( 1.00)
        Fe2           16.00    55.84500     Fe( 1.00)

     Starting magnetic structure 
     atomic species   magnetization
        Fe1          0.100
        Fe2          0.100

     48 Sym. Ops., with inversion, found



   Cartesian axes

     site n.     atom                  positions (alat units)
         1           Fe1 tau(   1) = (   0.0000000   0.0000000   0.0000000  )
         2           Fe2 tau(   2) = (   0.3684211   0.3684211   0.3684211  )
         3           Fe1 tau(   3) = (   0.0000000   0.0000000   0.7368421  )
         4           Fe2 tau(   4) = (   0.3684211   0.3684211   1.1052632  )
         5           Fe1 tau(   5) = (   0.0000000   0.7368421   0.0000000  )
         6           Fe2 tau(   6) = (   0.3684211   1.1052632   0.3684211  )
         7           Fe1 tau(   7) = (   0.0000000   0.7368421   0.7368421  )
         8           Fe2 tau(   8) = (   0.3684211   1.1052632   1.1052632  )
         9           Fe1 tau(   9) = (   0.7368421   0.0000000   0.0000000  )
        10           Fe2 tau(  10) = (   1.1052632   0.3684211   0.3684211  )
        11           Fe1 tau(  11) = (   0.7368421   0.0000000   0.7368421  )
        12           Fe2 tau(  12) = (   1.1052632   0.3684211   1.1052632  )
        13           Fe1 tau(  13) = (   0.7368421   0.7368421   0.0000000  )
        14           Fe2 tau(  14) = (   1.1052632   1.1052632   0.3684211  )
        15           Fe1 tau(  15) = (   0.7368421   0.7368421   0.7368421  )
        16           Fe2 tau(  16) = (   1.1052632   1.1052632   1.1052632  )

     number of k points=    35  Marzari-Vanderbilt smearing, width (Ry)=  0.0400
                       cart. coord. in units 2pi/alat
        k(    1) = (   0.0376984   0.0376984   0.0376984), wk =   0.0109739
        k(    2) = (   0.0376984   0.0376984   0.1130952), wk =   0.0329218
        k(    3) = (   0.0376984   0.0376984   0.1884921), wk =   0.0329218
        k(    4) = (   0.0376984   0.0376984   0.2638889), wk =   0.0329218
        k(    5) = (   0.0376984   0.0376984  -0.3392857), wk =   0.0164609
        k(    6) = (   0.0376984   0.1130952   0.1130952), wk =   0.0329218
        k(    7) = (   0.0376984   0.1130952   0.1884921), wk =   0.0658436
        k(    8) = (   0.0376984   0.1130952   0.2638889), wk =   0.0658436
        k(    9) = (   0.0376984   0.1130952  -0.3392857), wk =   0.0329218
        k(   10) = (   0.0376984   0.1884921   0.1884921), wk =   0.0329218
        k(   11) = (   0.0376984   0.1884921   0.2638889), wk =   0.0658436
        k(   12) = (   0.0376984   0.1884921  -0.3392857), wk =   0.0329218
        k(   13) = (   0.0376984   0.2638889   0.2638889), wk =   0.0329218
        k(   14) = (   0.0376984   0.2638889  -0.3392857), wk =   0.0329218
        k(   15) = (   0.0376984  -0.3392857  -0.3392857), wk =   0.0082305
        k(   16) = (   0.1130952   0.1130952   0.1130952), wk =   0.0109739
        k(   17) = (   0.1130952   0.1130952   0.1884921), wk =   0.0329218
        k(   18) = (   0.1130952   0.1130952   0.2638889), wk =   0.0329218
        k(   19) = (   0.1130952   0.1130952  -0.3392857), wk =   0.0164609
        k(   20) = (   0.1130952   0.1884921   0.1884921), wk =   0.0329218
        k(   21) = (   0.1130952   0.1884921   0.2638889), wk =   0.0658436
        k(   22) = (   0.1130952   0.1884921  -0.3392857), wk =   0.0329218
        k(   23) = (   0.1130952   0.2638889   0.2638889), wk =   0.0329218
        k(   24) = (   0.1130952   0.2638889  -0.3392857), wk =   0.0329218
        k(   25) = (   0.1130952  -0.3392857  -0.3392857), wk =   0.0082305
        k(   26) = (   0.1884921   0.1884921   0.1884921), wk =   0.0109739
        k(   27) = (   0.1884921   0.1884921   0.2638889), wk =   0.0329218
        k(   28) = (   0.1884921   0.1884921  -0.3392857), wk =   0.0164609
        k(   29) = (   0.1884921   0.2638889   0.2638889), wk =   0.0329218
        k(   30) = (   0.1884921   0.2638889  -0.3392857), wk =   0.0329218
        k(   31) = (   0.1884921  -0.3392857  -0.3392857), wk =   0.0082305
        k(   32) = (   0.2638889   0.2638889   0.2638889), wk =   0.0109739
        k(   33) = (   0.2638889   0.2638889  -0.3392857), wk =   0.0164609
        k(   34) = (   0.2638889  -0.3392857  -0.3392857), wk =   0.0082305
        k(   35) = (  -0.3392857  -0.3392857  -0.3392857), wk =   0.0013717

     Dense  grid:   521907 G-vectors     FFT dimensions: ( 100, 100, 100)

     Smooth grid:   280169 G-vectors     FFT dimensions: (  81,  81,  81)

     Estimated max dynamical RAM per process >     118.16 MB

     Estimated total dynamical RAM >       8.31 GB

     Check: negative core charge=   -0.000003
     Generating pointlists ...
     new r_m :   0.2632 (alat units)  2.7031 (a.u.) for type    1
     new r_m :   0.2632 (alat units)  2.7031 (a.u.) for type    2

     Initial potential from superposition of free atoms

     starting charge  255.99300, renormalised to  256.00000
     Starting wfcs are  160 randomized atomic wfcs
     Checking if some PAW data can be deallocated... 

     total cpu time spent up to now is       13.1 secs

     Self-consistent Calculation

     iteration #  1     ecut=    71.00 Ry     beta= 0.10
     Davidson diagonalization with overlap
     ethr =  1.00E-02,  avg # of iterations =  3.2

     total cpu time spent up to now is       40.5 secs

     total energy              =   -5264.23977897 Ry
     estimated scf accuracy    <       6.64038509 Ry

     total magnetization       =    45.34 Bohr mag/cell
     absolute magnetization    =    45.34 Bohr mag/cell

     iteration #  2     ecut=    71.00 Ry     beta= 0.10
     Davidson diagonalization with overlap
     ethr =  2.59E-03,  avg # of iterations =  1.7

     total cpu time spent up to now is       64.5 secs

     total energy              =   -5264.03694842 Ry
     estimated scf accuracy    <       3.61220676 Ry

     total magnetization       =    46.56 Bohr mag/cell
     absolute magnetization    =    46.60 Bohr mag/cell

     iteration #  3     ecut=    71.00 Ry     beta= 0.10
     Davidson diagonalization with overlap
     ethr =  1.41E-03,  avg # of iterations =  3.6

     total cpu time spent up to now is       92.2 secs

     total energy              =   -5264.52067015 Ry
     estimated scf accuracy    <       0.58545894 Ry

     total magnetization       =    49.82 Bohr mag/cell
     absolute magnetization    =    50.50 Bohr mag/cell

     iteration #  4     ecut=    71.00 Ry     beta= 0.10
     Davidson diagonalization with overlap
     ethr =  2.29E-04,  avg # of iterations =  5.4

     negative rho (up, down):  0.000E+00 1.876E-03

     total cpu time spent up to now is      122.7 secs

     total energy              =   -5264.82395213 Ry
     estimated scf accuracy    <       0.45183209 Ry

     total magnetization       =    50.59 Bohr mag/cell
     absolute magnetization    =    51.49 Bohr mag/cell

     iteration #  5     ecut=    71.00 Ry     beta= 0.10
     Davidson diagonalization with overlap
     ethr =  1.76E-04,  avg # of iterations =  3.2

     negative rho (up, down):  0.000E+00 5.679E-03

     total cpu time spent up to now is      148.9 secs

     total energy              =   -5264.89362215 Ry
     estimated scf accuracy    <       0.12659037 Ry

     total magnetization       =    51.31 Bohr mag/cell
     absolute magnetization    =    53.04 Bohr mag/cell

     iteration #  6     ecut=    71.00 Ry     beta= 0.10
     Davidson diagonalization with overlap
     ethr =  4.94E-05,  avg # of iterations =  5.2

     negative rho (up, down):  0.000E+00 6.084E-03

     total cpu time spent up to now is      180.9 secs

     total energy              =   -5264.92712111 Ry
     estimated scf accuracy    <       0.02182833 Ry

     total magnetization       =    51.50 Bohr mag/cell
     absolute magnetization    =    54.56 Bohr mag/cell

     iteration #  7     ecut=    71.00 Ry     beta= 0.10
     Davidson diagonalization with overlap
     ethr =  8.53E-06,  avg # of iterations =  3.4

     negative rho (up, down):  0.000E+00 5.753E-03

     total cpu time spent up to now is      208.6 secs

     total energy              =   -5264.93513887 Ry
     estimated scf accuracy    <       0.01672483 Ry

     total magnetization       =    51.45 Bohr mag/cell
     absolute magnetization    =    54.67 Bohr mag/cell

     iteration #  8     ecut=    71.00 Ry     beta= 0.10
     Davidson diagonalization with overlap
     ethr =  6.53E-06,  avg # of iterations =  7.7

     negative rho (up, down):  0.000E+00 5.811E-03

     total cpu time spent up to now is      256.8 secs

     total energy              =   -5264.88598007 Ry
     estimated scf accuracy    <       0.34488856 Ry

     total magnetization       =    50.24 Bohr mag/cell
     absolute magnetization    =    53.70 Bohr mag/cell

     iteration #  9     ecut=    71.00 Ry     beta= 0.10
     Davidson diagonalization with overlap
     ethr =  6.53E-06,  avg # of iterations =  7.6

     negative rho (up, down):  0.000E+00 6.413E-03

     total cpu time spent up to now is      307.6 secs

     total energy              =   -5264.93723752 Ry
     estimated scf accuracy    <       0.00393201 Ry

     total magnetization       =    51.29 Bohr mag/cell
     absolute magnetization    =    55.21 Bohr mag/cell

     iteration # 10     ecut=    71.00 Ry     beta= 0.10
     Davidson diagonalization with overlap
     ethr =  1.54E-06,  avg # of iterations =  3.8

     negative rho (up, down):  0.000E+00 6.096E-03

     total cpu time spent up to now is      337.5 secs

     total energy              =   -5264.93745294 Ry
     estimated scf accuracy    <       0.00530655 Ry

     total magnetization       =    51.33 Bohr mag/cell
     absolute magnetization    =    55.48 Bohr mag/cell

     iteration # 11     ecut=    71.00 Ry     beta= 0.10
     Davidson diagonalization with overlap
     ethr =  1.54E-06,  avg # of iterations =  2.8

     negative rho (up, down):  0.000E+00 6.243E-03

     total cpu time spent up to now is      364.4 secs

     total energy              =   -5264.93795846 Ry
     estimated scf accuracy    <       0.00066556 Ry

     total magnetization       =    51.26 Bohr mag/cell
     absolute magnetization    =    55.25 Bohr mag/cell

     iteration # 12     ecut=    71.00 Ry     beta= 0.10
     Davidson diagonalization with overlap
     ethr =  2.60E-07,  avg # of iterations =  5.4

     negative rho (up, down):  0.000E+00 6.244E-03

     total cpu time spent up to now is      400.9 secs

     total energy              =   -5264.93844951 Ry
     estimated scf accuracy    <       0.00065024 Ry

     total magnetization       =    51.23 Bohr mag/cell
     absolute magnetization    =    55.21 Bohr mag/cell

     iteration # 13     ecut=    71.00 Ry     beta= 0.10
     Davidson diagonalization with overlap
     ethr =  2.54E-07,  avg # of iterations =  1.0

     negative rho (up, down):  0.000E+00 6.361E-03

     total cpu time spent up to now is      423.1 secs

     total energy              =   -5264.93827156 Ry
     estimated scf accuracy    <       0.00058612 Ry

     total magnetization       =    51.23 Bohr mag/cell
     absolute magnetization    =    55.22 Bohr mag/cell

     iteration # 14     ecut=    71.00 Ry     beta= 0.10
     Davidson diagonalization with overlap
     ethr =  2.29E-07,  avg # of iterations =  6.1

     negative rho (up, down):  0.000E+00 6.123E-03

     total cpu time spent up to now is      460.7 secs

     total energy              =   -5264.93910672 Ry
     estimated scf accuracy    <       0.00124317 Ry

     total magnetization       =    51.30 Bohr mag/cell
     absolute magnetization    =    55.38 Bohr mag/cell

     iteration # 15     ecut=    71.00 Ry     beta= 0.10
     Davidson diagonalization with overlap
     ethr =  2.29E-07,  avg # of iterations =  3.4

     negative rho (up, down):  0.000E+00 6.160E-03

     total cpu time spent up to now is      491.1 secs

     total energy              =   -5264.93892933 Ry
     estimated scf accuracy    <       0.00314414 Ry

     total magnetization       =    51.32 Bohr mag/cell
     absolute magnetization    =    55.29 Bohr mag/cell

     iteration # 16     ecut=    71.00 Ry     beta= 0.10
     Davidson diagonalization with overlap
     ethr =  2.29E-07,  avg # of iterations =  3.3

     negative rho (up, down):  0.000E+00 6.152E-03

     total cpu time spent up to now is      518.1 secs

     total energy              =   -5264.93889453 Ry
     estimated scf accuracy    <       0.00141365 Ry

     total magnetization       =    51.30 Bohr mag/cell
     absolute magnetization    =    55.26 Bohr mag/cell

     iteration # 17     ecut=    71.00 Ry     beta= 0.10
     Davidson diagonalization with overlap
     ethr =  2.29E-07,  avg # of iterations =  3.0

     negative rho (up, down):  0.000E+00 6.138E-03

     total cpu time spent up to now is      544.1 secs

     total energy              =   -5264.93895729 Ry
     estimated scf accuracy    <       0.00071146 Ry

     total magnetization       =    51.29 Bohr mag/cell
     absolute magnetization    =    55.24 Bohr mag/cell

     iteration # 18     ecut=    71.00 Ry     beta= 0.10
     Davidson diagonalization with overlap
     ethr =  2.29E-07,  avg # of iterations =  1.0

     negative rho (up, down):  0.000E+00 6.162E-03

     total cpu time spent up to now is      566.2 secs

     total energy              =   -5264.93902588 Ry
     estimated scf accuracy    <       0.00077220 Ry

     total magnetization       =    51.29 Bohr mag/cell
     absolute magnetization    =    55.24 Bohr mag/cell

     iteration # 19     ecut=    71.00 Ry     beta= 0.10
     Davidson diagonalization with overlap
     ethr =  2.29E-07,  avg # of iterations =  1.1

     negative rho (up, down):  0.000E+00 6.134E-03

     total cpu time spent up to now is      588.7 secs

     total energy              =   -5264.93902899 Ry
     estimated scf accuracy    <       0.00109945 Ry

     total magnetization       =    51.30 Bohr mag/cell
     absolute magnetization    =    55.26 Bohr mag/cell

     iteration # 20     ecut=    71.00 Ry     beta= 0.10
     Davidson diagonalization with overlap
     ethr =  2.29E-07,  avg # of iterations =  1.0

     negative rho (up, down):  0.000E+00 6.141E-03

     total cpu time spent up to now is      610.3 secs

     total energy              =   -5264.93899676 Ry
     estimated scf accuracy    <       0.00103300 Ry

     total magnetization       =    51.30 Bohr mag/cell
     absolute magnetization    =    55.25 Bohr mag/cell

     iteration # 21     ecut=    71.00 Ry     beta= 0.10
     Davidson diagonalization with overlap
     ethr =  2.29E-07,  avg # of iterations =  1.0

     negative rho (up, down):  0.000E+00 6.133E-03

     total cpu time spent up to now is      632.7 secs

     total energy              =   -5264.93902173 Ry
     estimated scf accuracy    <       0.00088163 Ry

     total magnetization       =    51.29 Bohr mag/cell
     absolute magnetization    =    55.24 Bohr mag/cell

     iteration # 22     ecut=    71.00 Ry     beta= 0.10
     Davidson diagonalization with overlap
     ethr =  2.29E-07,  avg # of iterations =  1.0

     negative rho (up, down):  0.000E+00 6.134E-03

     total cpu time spent up to now is      654.9 secs

     total energy              =   -5264.93877931 Ry
     estimated scf accuracy    <       0.00096813 Ry

     total magnetization       =    51.29 Bohr mag/cell
     absolute magnetization    =    55.25 Bohr mag/cell

     iteration # 23     ecut=    71.00 Ry     beta= 0.10
     Davidson diagonalization with overlap
     ethr =  2.29E-07,  avg # of iterations =  3.7

     negative rho (up, down):  0.000E+00 6.131E-03

     total cpu time spent up to now is      684.0 secs

     total energy              =   -5264.93888042 Ry
     estimated scf accuracy    <       0.00004839 Ry

     total magnetization       =    51.26 Bohr mag/cell
     absolute magnetization    =    55.15 Bohr mag/cell

     iteration # 24     ecut=    71.00 Ry     beta= 0.10
     Davidson diagonalization with overlap
     ethr =  1.89E-08,  avg # of iterations =  4.7

     negative rho (up, down):  0.000E+00 6.120E-03

     total cpu time spent up to now is      716.4 secs

     total energy              =   -5264.93889363 Ry
     estimated scf accuracy    <       0.00001344 Ry

     total magnetization       =    51.26 Bohr mag/cell
     absolute magnetization    =    55.15 Bohr mag/cell

     iteration # 25     ecut=    71.00 Ry     beta= 0.10
     Davidson diagonalization with overlap
     ethr =  5.25E-09,  avg # of iterations =  2.7

     negative rho (up, down):  0.000E+00 6.113E-03

     total cpu time spent up to now is      742.5 secs

     total energy              =   -5264.93889694 Ry
     estimated scf accuracy    <       0.00002971 Ry

     total magnetization       =    51.27 Bohr mag/cell
     absolute magnetization    =    55.15 Bohr mag/cell

     iteration # 26     ecut=    71.00 Ry     beta= 0.10
     Davidson diagonalization with overlap
     ethr =  5.25E-09,  avg # of iterations =  1.3

     negative rho (up, down):  0.000E+00 6.123E-03

     total cpu time spent up to now is      765.5 secs

     total energy              =   -5264.93887908 Ry
     estimated scf accuracy    <       0.00003812 Ry

     total magnetization       =    51.27 Bohr mag/cell
     absolute magnetization    =    55.15 Bohr mag/cell

     iteration # 27     ecut=    71.00 Ry     beta= 0.10
     Davidson diagonalization with overlap
     ethr =  5.25E-09,  avg # of iterations =  5.5

     negative rho (up, down):  0.000E+00 6.119E-03

     total cpu time spent up to now is      806.8 secs

     total energy              =   -5264.93888769 Ry
     estimated scf accuracy    <       0.00006505 Ry

     total magnetization       =    51.25 Bohr mag/cell
     absolute magnetization    =    55.11 Bohr mag/cell

     iteration # 28     ecut=    71.00 Ry     beta= 0.10
     Davidson diagonalization with overlap
     ethr =  5.25E-09,  avg # of iterations =  4.8

     negative rho (up, down):  0.000E+00 6.123E-03

     total cpu time spent up to now is      840.6 secs

     total energy              =   -5264.93889788 Ry
     estimated scf accuracy    <       0.00000611 Ry

     total magnetization       =    51.26 Bohr mag/cell
     absolute magnetization    =    55.13 Bohr mag/cell

     iteration # 29     ecut=    71.00 Ry     beta= 0.10
     Davidson diagonalization with overlap
     ethr =  2.39E-09,  avg # of iterations =  7.1

     negative rho (up, down):  0.000E+00 6.120E-03

     total cpu time spent up to now is      881.1 secs

     total energy              =   -5264.93888824 Ry
     estimated scf accuracy    <       0.00009744 Ry

     total magnetization       =    51.25 Bohr mag/cell
     absolute magnetization    =    55.10 Bohr mag/cell

     iteration # 30     ecut=    71.00 Ry     beta= 0.10
     Davidson diagonalization with overlap
     ethr =  2.39E-09,  avg # of iterations =  6.0

     negative rho (up, down):  0.000E+00 6.121E-03

     total cpu time spent up to now is      920.0 secs

     total energy              =   -5264.93889575 Ry
     estimated scf accuracy    <       0.00001328 Ry

     total magnetization       =    51.26 Bohr mag/cell
     absolute magnetization    =    55.11 Bohr mag/cell

     iteration # 31     ecut=    71.00 Ry     beta= 0.10
     Davidson diagonalization with overlap
     ethr =  2.39E-09,  avg # of iterations =  1.0

     negative rho (up, down):  0.000E+00 6.120E-03

     total cpu time spent up to now is      942.0 secs

     total energy              =   -5264.93889631 Ry
     estimated scf accuracy    <       0.00001860 Ry

     total magnetization       =    51.26 Bohr mag/cell
     absolute magnetization    =    55.11 Bohr mag/cell

     iteration # 32     ecut=    71.00 Ry     beta= 0.10
     Davidson diagonalization with overlap
     ethr =  2.39E-09,  avg # of iterations =  1.0

     negative rho (up, down):  0.000E+00 6.118E-03

     total cpu time spent up to now is      964.1 secs

     total energy              =   -5264.93889624 Ry
     estimated scf accuracy    <       0.00002020 Ry

     total magnetization       =    51.26 Bohr mag/cell
     absolute magnetization    =    55.11 Bohr mag/cell

     iteration # 33     ecut=    71.00 Ry     beta= 0.10
     Davidson diagonalization with overlap
     ethr =  2.39E-09,  avg # of iterations =  1.0

     negative rho (up, down):  0.000E+00 6.119E-03

     total cpu time spent up to now is      986.3 secs

     total energy              =   -5264.93889588 Ry
     estimated scf accuracy    <       0.00002273 Ry

     total magnetization       =    51.26 Bohr mag/cell
     absolute magnetization    =    55.11 Bohr mag/cell

     iteration # 34     ecut=    71.00 Ry     beta= 0.10
     Davidson diagonalization with overlap
     ethr =  2.39E-09,  avg # of iterations =  1.0

     negative rho (up, down):  0.000E+00 6.118E-03

     total cpu time spent up to now is     1008.5 secs

     total energy              =   -5264.93888957 Ry
     estimated scf accuracy    <       0.00001877 Ry

     total magnetization       =    51.26 Bohr mag/cell
     absolute magnetization    =    55.11 Bohr mag/cell

     iteration # 35     ecut=    71.00 Ry     beta= 0.10
     Davidson diagonalization with overlap
     ethr =  2.39E-09,  avg # of iterations =  7.1

     negative rho (up, down):  0.000E+00 6.118E-03

     total cpu time spent up to now is     1048.1 secs

     total energy              =   -5264.93889716 Ry
     estimated scf accuracy    <       0.00001400 Ry

     total magnetization       =    51.27 Bohr mag/cell
     absolute magnetization    =    55.13 Bohr mag/cell

     iteration # 36     ecut=    71.00 Ry     beta= 0.10
     Davidson diagonalization with overlap
     ethr =  2.39E-09,  avg # of iterations =  1.0

     negative rho (up, down):  0.000E+00 6.131E-03

     total cpu time spent up to now is     1071.0 secs

     total energy              =   -5264.93889773 Ry
     estimated scf accuracy    <       0.00001694 Ry

     total magnetization       =    51.27 Bohr mag/cell
     absolute magnetization    =    55.13 Bohr mag/cell

     iteration # 37     ecut=    71.00 Ry     beta= 0.10
     Davidson diagonalization with overlap
     ethr =  2.39E-09,  avg # of iterations =  1.3

     negative rho (up, down):  0.000E+00 6.129E-03

     total cpu time spent up to now is     1093.7 secs

     total energy              =   -5264.93889637 Ry
     estimated scf accuracy    <       0.00001568 Ry

     total magnetization       =    51.27 Bohr mag/cell
     absolute magnetization    =    55.14 Bohr mag/cell

     iteration # 38     ecut=    71.00 Ry     beta= 0.10
     Davidson diagonalization with overlap
     ethr =  2.39E-09,  avg # of iterations =  1.5

     negative rho (up, down):  0.000E+00 6.127E-03

     total cpu time spent up to now is     1116.8 secs

     total energy              =   -5264.93889887 Ry
     estimated scf accuracy    <       0.00001079 Ry

     total magnetization       =    51.26 Bohr mag/cell
     absolute magnetization    =    55.13 Bohr mag/cell

     iteration # 39     ecut=    71.00 Ry     beta= 0.10
     Davidson diagonalization with overlap
     ethr =  2.39E-09,  avg # of iterations =  3.2

     negative rho (up, down):  0.000E+00 6.129E-03

     total cpu time spent up to now is     1143.1 secs

     total energy              =   -5264.93889981 Ry
     estimated scf accuracy    <       0.00002438 Ry

     total magnetization       =    51.27 Bohr mag/cell
     absolute magnetization    =    55.14 Bohr mag/cell

     iteration # 40     ecut=    71.00 Ry     beta= 0.10
     Davidson diagonalization with overlap
     ethr =  2.39E-09,  avg # of iterations =  1.0

     negative rho (up, down):  0.000E+00 6.128E-03

     total cpu time spent up to now is     1165.2 secs

     total energy              =   -5264.93889920 Ry
     estimated scf accuracy    <       0.00002862 Ry

     total magnetization       =    51.27 Bohr mag/cell
     absolute magnetization    =    55.14 Bohr mag/cell

     iteration # 41     ecut=    71.00 Ry     beta= 0.10
     Davidson diagonalization with overlap
     ethr =  2.39E-09,  avg # of iterations =  1.0

     negative rho (up, down):  0.000E+00 6.130E-03

     total cpu time spent up to now is     1187.5 secs

     total energy              =   -5264.93889649 Ry
     estimated scf accuracy    <       0.00002481 Ry

     total magnetization       =    51.27 Bohr mag/cell
     absolute magnetization    =    55.14 Bohr mag/cell

     iteration # 42     ecut=    71.00 Ry     beta= 0.10
     Davidson diagonalization with overlap
     ethr =  2.39E-09,  avg # of iterations =  1.9

     negative rho (up, down):  0.000E+00 6.127E-03

     total cpu time spent up to now is     1212.0 secs

     total energy              =   -5264.93889623 Ry
     estimated scf accuracy    <       0.00001321 Ry

     total magnetization       =    51.26 Bohr mag/cell
     absolute magnetization    =    55.14 Bohr mag/cell

     iteration # 43     ecut=    71.00 Ry     beta= 0.10
     Davidson diagonalization with overlap
     ethr =  2.39E-09,  avg # of iterations =  1.6

     negative rho (up, down):  0.000E+00 6.126E-03

     total cpu time spent up to now is     1235.4 secs

     total energy              =   -5264.93889484 Ry
     estimated scf accuracy    <       0.00000766 Ry

     total magnetization       =    51.26 Bohr mag/cell
     absolute magnetization    =    55.14 Bohr mag/cell

     iteration # 44     ecut=    71.00 Ry     beta= 0.10
     Davidson diagonalization with overlap
     ethr =  2.39E-09,  avg # of iterations =  4.4

     negative rho (up, down):  0.000E+00 6.133E-03

     total cpu time spent up to now is     1265.8 secs

     total energy              =   -5264.93889650 Ry
     estimated scf accuracy    <       0.00000134 Ry

     total magnetization       =    51.26 Bohr mag/cell
     absolute magnetization    =    55.13 Bohr mag/cell

     iteration # 45     ecut=    71.00 Ry     beta= 0.10
     Davidson diagonalization with overlap
     ethr =  5.23E-10,  avg # of iterations =  3.6

     negative rho (up, down):  0.000E+00 6.143E-03

     total cpu time spent up to now is     1295.1 secs

     total energy              =   -5264.93889667 Ry
     estimated scf accuracy    <       0.00000195 Ry

     total magnetization       =    51.26 Bohr mag/cell
     absolute magnetization    =    55.13 Bohr mag/cell

     iteration # 46     ecut=    71.00 Ry     beta= 0.10
     Davidson diagonalization with overlap
     ethr =  5.23E-10,  avg # of iterations =  2.9

     negative rho (up, down):  0.000E+00 6.148E-03

     total cpu time spent up to now is     1322.2 secs

     total energy              =   -5264.93889711 Ry
     estimated scf accuracy    <       0.00000029 Ry

     total magnetization       =    51.26 Bohr mag/cell
     absolute magnetization    =    55.13 Bohr mag/cell

     iteration # 47     ecut=    71.00 Ry     beta= 0.10
     Davidson diagonalization with overlap
     c_bands:  1 eigenvalues not converged
     ethr =  1.13E-10,  avg # of iterations =  5.2

     negative rho (up, down):  0.000E+00 6.149E-03

     total cpu time spent up to now is     1354.0 secs

     total energy              =   -5264.93889776 Ry
     estimated scf accuracy    <       0.00000019 Ry

     total magnetization       =    51.26 Bohr mag/cell
     absolute magnetization    =    55.13 Bohr mag/cell

     iteration # 48     ecut=    71.00 Ry     beta= 0.10
     Davidson diagonalization with overlap
     ethr =  7.52E-11,  avg # of iterations =  4.1

     negative rho (up, down):  0.000E+00 6.148E-03
 
     Magnetic moment per site:
     atom:    1    charge:   15.0874    magn:    3.3082    constr:    0.0000
     atom:    2    charge:   15.0879    magn:    3.3139    constr:    0.0000
     atom:    3    charge:   15.0880    magn:    3.3157    constr:    0.0000
     atom:    4    charge:   15.0879    magn:    3.3139    constr:    0.0000
     atom:    5    charge:   15.0880    magn:    3.3157    constr:    0.0000
     atom:    6    charge:   15.0879    magn:    3.3139    constr:    0.0000
     atom:    7    charge:   15.0880    magn:    3.3159    constr:    0.0000
     atom:    8    charge:   15.0879    magn:    3.3139    constr:    0.0000
     atom:    9    charge:   15.0880    magn:    3.3157    constr:    0.0000
     atom:   10    charge:   15.0879    magn:    3.3139    constr:    0.0000
     atom:   11    charge:   15.0880    magn:    3.3159    constr:    0.0000
     atom:   12    charge:   15.0879    magn:    3.3139    constr:    0.0000
     atom:   13    charge:   15.0880    magn:    3.3159    constr:    0.0000
     atom:   14    charge:   15.0879    magn:    3.3139    constr:    0.0000
     atom:   15    charge:   15.0874    magn:    3.3088    constr:    0.0000
     atom:   16    charge:   15.0879    magn:    3.3139    constr:    0.0000

     total cpu time spent up to now is     1384.0 secs

     End of self-consistent calculation

 ------ SPIN UP ------------


          k = 0.0377 0.0377 0.0377 ( 35054 PWs)   bands (ev):

   -84.4955 -84.4954 -84.4954 -84.4953 -84.4953 -84.4953 -84.4940 -84.4940
   -84.4940 -84.4940 -84.4940 -84.4940 -84.4940 -84.4940 -84.4902 -84.4897
   -50.5515 -50.5514 -50.5514 -50.5507 -50.5507 -50.5507 -50.5492 -50.5492
   -50.5491 -50.5488 -50.5488 -50.5487 -50.5484 -50.5484 -50.5483 -50.5481
   -50.5481 -50.5480 -50.5477 -50.5477 -50.5475 -50.5475 -50.5473 -50.5472
   -50.5472 -50.5472 -50.5471 -50.5471 -50.5465 -50.5465 -50.5464 -50.5463
   -50.5458 -50.5458 -50.5458 -50.5456 -50.5454 -50.5454 -50.5454 -50.5451
   -50.5451 -50.5451 -50.5433 -50.5433 -50.5431 -50.5419 -50.5418 -50.5418
    -0.1416   1.2942   1.2942   1.3437   1.3437   1.3440   1.3468   1.3468
     1.3471   1.4337   1.4337   1.4338   1.4933   1.4935   1.4935   1.5668
     1.5676   1.5676   1.6163   1.6171   1.6171   1.6816   1.6826   1.6826
     1.6849   1.6849   1.6859   1.7510   1.7697   1.7697   1.8071   1.8071
     1.8344   1.8523   1.8523   1.8597   1.8620   1.8620   1.8711   1.8720
     1.8720   1.8783   1.8791   1.8791   1.8877   1.8877   1.8923   1.8923
     1.9402   1.9402   1.9421   1.9461   1.9461   1.9463   1.9470   1.9470
     1.9473   1.9552   1.9564   1.9564   1.9744   1.9744   1.9750   1.9906
     1.9919   1.9919   2.0719   2.0719   2.0724   2.1101   2.1101   2.1119
     2.2876   2.2966   2.2966   2.3363   2.3363   2.3378   2.3399   2.3414
     2.3414   2.4394   2.4394   2.4397   2.8917   2.8917   2.8922   4.5228
     4.5228   4.5237

          k = 0.0377 0.0377 0.1131 ( 35040 PWs)   bands (ev):

   -84.4955 -84.4954 -84.4954 -84.4953 -84.4953 -84.4953 -84.4940 -84.4940
   -84.4940 -84.4940 -84.4940 -84.4940 -84.4940 -84.4940 -84.4902 -84.4897
   -50.5513 -50.5513 -50.5513 -50.5507 -50.5506 -50.5506 -50.5492 -50.5491
   -50.5491 -50.5491 -50.5491 -50.5490 -50.5488 -50.5485 -50.5484 -50.5483
   -50.5482 -50.5481 -50.5475 -50.5475 -50.5472 -50.5472 -50.5472 -50.5472
   -50.5471 -50.5470 -50.5468 -50.5467 -50.5465 -50.5465 -50.5464 -50.5463
   -50.5459 -50.5459 -50.5458 -50.5456 -50.5455 -50.5455 -50.5454 -50.5453
   -50.5452 -50.5451 -50.5432 -50.5431 -50.5430 -50.5420 -50.5419 -50.5418
    -0.0818   1.2729   1.3037   1.3067   1.3497   1.3499   1.3587   1.3589
     1.3662   1.3690   1.4421   1.4422   1.4970   1.4973   1.4981   1.5178
     1.5728   1.5736   1.6192   1.6200   1.6646   1.6827   1.6849   1.6897
     1.6906   1.6975   1.6984   1.7192   1.7394   1.7415   1.7631   1.8450
     1.8486   1.8495   1.8499   1.8505   1.8593   1.8652   1.8697   1.8703
     1.8706   1.8719   1.8721   1.8791   1.8855   1.9039   1.9050   1.9066
     1.9069   1.9133   1.9137   1.9267   1.9352   1.9357   1.9426   1.9426
     1.9451   1.9453   1.9466   1.9479   1.9534   1.9540   1.9848   1.9857
     2.0146   2.0325   2.0331   2.1055   2.1062   2.1380   2.1443   2.1450
     2.1488   2.2681   2.2822   2.2954   2.3019   2.3073   2.3235   2.3244
     2.3354   2.3363   2.4982   2.4985   2.9582   2.9586   3.4479   4.0513
     4.0518   4.5875

          k = 0.0377 0.0377 0.1885 ( 35033 PWs)   bands (ev):

   -84.4955 -84.4954 -84.4954 -84.4953 -84.4953 -84.4953 -84.4940 -84.4940
   -84.4940 -84.4940 -84.4940 -84.4940 -84.4940 -84.4940 -84.4902 -84.4897
   -50.5512 -50.5512 -50.5511 -50.5506 -50.5504 -50.5502 -50.5496 -50.5496
   -50.5493 -50.5493 -50.5491 -50.5490 -50.5489 -50.5489 -50.5488 -50.5486
   -50.5483 -50.5483 -50.5477 -50.5473 -50.5472 -50.5472 -50.5469 -50.5468
   -50.5467 -50.5467 -50.5465 -50.5464 -50.5464 -50.5464 -50.5463 -50.5463
   -50.5460 -50.5460 -50.5458 -50.5456 -50.5456 -50.5455 -50.5455 -50.5454
   -50.5453 -50.5452 -50.5430 -50.5429 -50.5427 -50.5421 -50.5420 -50.5419
     0.0370   1.0097   1.3223   1.3307   1.3639   1.3640   1.3786   1.3787
     1.4091   1.4110   1.4452   1.4453   1.4696   1.4762   1.4883   1.4887
     1.5995   1.6005   1.6380   1.6389   1.6742   1.6824   1.6838   1.6855
     1.7072   1.7080   1.7094   1.7167   1.7200   1.7208   1.7232   1.8134
     1.8142   1.8353   1.8427   1.8435   1.8501   1.8587   1.8596   1.8605
     1.8648   1.8715   1.8721   1.8797   1.8840   1.8862   1.8870   1.8876
     1.8925   1.9037   1.9250   1.9308   1.9312   1.9396   1.9397   1.9437
     1.9438   1.9473   1.9481   1.9486   1.9494   1.9498   1.9717   1.9723
     1.9836   2.0025   2.0593   2.0780   2.1498   2.1506   2.1841   2.1877
     2.1889   2.2379   2.2405   2.2475   2.2552   2.2857   2.3020   2.3029
     2.3212   2.3221   2.6123   2.6126   3.0868   3.0872   3.6392   3.6397
     4.0789   4.1738

          k = 0.0377 0.0377 0.2639 ( 35016 PWs)   bands (ev):

   -84.4954 -84.4954 -84.4954 -84.4953 -84.4953 -84.4953 -84.4940 -84.4940
   -84.4940 -84.4940 -84.4940 -84.4940 -84.4940 -84.4940 -84.4902 -84.4897
   -50.5509 -50.5509 -50.5507 -50.5503 -50.5501 -50.5500 -50.5500 -50.5499
   -50.5498 -50.5496 -50.5493 -50.5491 -50.5489 -50.5488 -50.5487 -50.5487
   -50.5484 -50.5484 -50.5477 -50.5473 -50.5472 -50.5472 -50.5467 -50.5466
   -50.5465 -50.5464 -50.5464 -50.5463 -50.5463 -50.5463 -50.5461 -50.5460
   -50.5460 -50.5460 -50.5459 -50.5458 -50.5458 -50.5457 -50.5457 -50.5456
   -50.5455 -50.5455 -50.5428 -50.5427 -50.5426 -50.5422 -50.5421 -50.5420
     0.2129   0.7148   1.3495   1.3636   1.3849   1.3850   1.4049   1.4050
     1.4244   1.4327   1.4328   1.4414   1.4649   1.4652   1.4682   1.4689
     1.6087   1.6117   1.6470   1.6480   1.6806   1.6816   1.6865   1.6875
     1.7015   1.7027   1.7328   1.7337   1.7466   1.7474   1.7498   1.7688
     1.7697   1.7989   1.7998   1.8135   1.8137   1.8146   1.8384   1.8391
     1.8544   1.8653   1.8704   1.8723   1.8759   1.8806   1.8810   1.8829
     1.8862   1.9073   1.9246   1.9373   1.9391   1.9392   1.9425   1.9437
     1.9439   1.9448   1.9449   1.9467   1.9499   1.9590   1.9594   1.9646
     2.0022   2.0158   2.1068   2.1259   2.1632   2.1727   2.1948   2.1957
     2.1994   2.2169   2.2179   2.2303   2.2313   2.2686   2.2728   2.2738
     2.2984   2.2994   2.7803   2.7807   3.2733   3.2737   3.2905   3.2910
     3.8160   3.8166

          k = 0.0377 0.0377-0.3393 ( 35032 PWs)   bands (ev):

   -84.4954 -84.4954 -84.4954 -84.4953 -84.4953 -84.4953 -84.4940 -84.4940
   -84.4940 -84.4940 -84.4940 -84.4940 -84.4940 -84.4940 -84.4902 -84.4897
   -50.5505 -50.5505 -50.5505 -50.5505 -50.5503 -50.5503 -50.5500 -50.5499
   -50.5497 -50.5497 -50.5495 -50.5494 -50.5488 -50.5488 -50.5486 -50.5486
   -50.5486 -50.5486 -50.5475 -50.5475 -50.5472 -50.5472 -50.5466 -50.5466
   -50.5464 -50.5463 -50.5463 -50.5463 -50.5461 -50.5461 -50.5461 -50.5460
   -50.5460 -50.5460 -50.5459 -50.5459 -50.5458 -50.5458 -50.5457 -50.5457
   -50.5457 -50.5456 -50.5427 -50.5426 -50.5426 -50.5422 -50.5422 -50.5422
     0.4418   0.4418   1.3839   1.3839   1.4020   1.4021   1.4097   1.4097
     1.4098   1.4098   1.4350   1.4351   1.4351   1.4352   1.5371   1.5371
     1.5379   1.5380   1.6918   1.6918   1.6925   1.6925   1.7038   1.7038
     1.7047   1.7048   1.7344   1.7345   1.7354   1.7355   1.7757   1.7757
     1.7765   1.7765   1.7848   1.7849   1.7936   1.7937   1.7944   1.7944
     1.8630   1.8630   1.8719   1.8719   1.8736   1.8736   1.8816   1.8816
     1.8962   1.8963   1.9335   1.9336   1.9406   1.9406   1.9407   1.9407
     1.9440   1.9441   1.9481   1.9482   1.9497   1.9498   1.9501   1.9501
     2.0813   2.0814   2.0926   2.0927   2.1546   2.1546   2.1735   2.1735
     2.2365   2.2365   2.2374   2.2374   2.2454   2.2455   2.2678   2.2678
     2.2687   2.2687   3.0050   3.0051   3.0055   3.0055   3.5161   3.5161
     3.5166   3.5167

          k = 0.0377 0.1131 0.1131 ( 35037 PWs)   bands (ev):

   -84.4955 -84.4954 -84.4954 -84.4953 -84.4953 -84.4953 -84.4940 -84.4940
   -84.4940 -84.4940 -84.4940 -84.4940 -84.4940 -84.4940 -84.4902 -84.4897
   -50.5513 -50.5512 -50.5511 -50.5507 -50.5505 -50.5502 -50.5494 -50.5493
   -50.5493 -50.5491 -50.5491 -50.5490 -50.5489 -50.5486 -50.5485 -50.5484
   -50.5482 -50.5481 -50.5475 -50.5474 -50.5472 -50.5472 -50.5472 -50.5471
   -50.5471 -50.5470 -50.5467 -50.5466 -50.5465 -50.5464 -50.5464 -50.5463
   -50.5459 -50.5458 -50.5457 -50.5456 -50.5455 -50.5455 -50.5455 -50.5454
   -50.5452 -50.5451 -50.5432 -50.5430 -50.5428 -50.5421 -50.5419 -50.5419
    -0.0224   1.2952   1.2956   1.3142   1.3181   1.3473   1.3725   1.3727
     1.3743   1.3803   1.3804   1.4546   1.4988   1.4995   1.5080   1.5287
     1.5289   1.5717   1.6173   1.6647   1.6651   1.6890   1.6899   1.6924
     1.6934   1.6959   1.6965   1.7146   1.7158   1.7397   1.7605   1.8187
     1.8275   1.8404   1.8409   1.8500   1.8505   1.8636   1.8654   1.8662
     1.8705   1.8710   1.8775   1.8794   1.8807   1.8828   1.8874   1.9032
     1.9071   1.9122   1.9291   1.9297   1.9301   1.9346   1.9351   1.9433
     1.9436   1.9452   1.9473   1.9477   1.9605   1.9731   1.9731   1.9950
     2.0233   2.0242   2.0634   2.0636   2.1104   2.1541   2.1808   2.1810
     2.1810   2.1825   2.2409   2.2712   2.2872   2.2882   2.2993   2.3030
     2.3031   2.3044   2.3386   2.5638   3.0263   3.5165   3.5169   3.5781
     4.1250   4.1255

          k = 0.0377 0.1131 0.1885 ( 34983 PWs)   bands (ev):

   -84.4954 -84.4954 -84.4954 -84.4953 -84.4953 -84.4953 -84.4940 -84.4940
   -84.4940 -84.4940 -84.4940 -84.4940 -84.4940 -84.4940 -84.4902 -84.4897
   -50.5511 -50.5510 -50.5509 -50.5506 -50.5503 -50.5500 -50.5498 -50.5497
   -50.5495 -50.5493 -50.5490 -50.5490 -50.5489 -50.5488 -50.5486 -50.5485
   -50.5483 -50.5481 -50.5475 -50.5473 -50.5472 -50.5472 -50.5470 -50.5469
   -50.5468 -50.5466 -50.5466 -50.5465 -50.5464 -50.5463 -50.5462 -50.5460
   -50.5459 -50.5457 -50.5457 -50.5456 -50.5456 -50.5456 -50.5455 -50.5455
   -50.5453 -50.5452 -50.5431 -50.5428 -50.5426 -50.5421 -50.5420 -50.5418
     0.0957   1.0491   1.3280   1.3325   1.3418   1.3505   1.3872   1.3953
     1.3999   1.4161   1.4215   1.4644   1.4695   1.4880   1.4912   1.5073
     1.5624   1.5900   1.6277   1.6612   1.6770   1.6778   1.6889   1.6936
     1.7037   1.7048   1.7073   1.7139   1.7153   1.7260   1.7428   1.7760
     1.8158   1.8266   1.8352   1.8358   1.8377   1.8452   1.8504   1.8524
     1.8613   1.8644   1.8651   1.8661   1.8710   1.8717   1.8738   1.9096
     1.9126   1.9225   1.9280   1.9290   1.9324   1.9390   1.9416   1.9449
     1.9457   1.9466   1.9483   1.9514   1.9586   1.9733   1.9893   1.9916
     2.0041   2.0165   2.0449   2.0678   2.1061   2.1306   2.1776   2.2042
     2.2153   2.2226   2.2247   2.2439   2.2463   2.2641   2.2651   2.2754
     2.2906   2.2975   2.3324   2.6852   3.1568   3.1727   3.6508   3.7151
     4.1481   4.2445

          k = 0.0377 0.1131 0.2639 ( 35010 PWs)   bands (ev):

   -84.4954 -84.4954 -84.4954 -84.4953 -84.4953 -84.4953 -84.4940 -84.4940
   -84.4940 -84.4940 -84.4940 -84.4940 -84.4940 -84.4940 -84.4902 -84.4897
   -50.5509 -50.5508 -50.5506 -50.5504 -50.5502 -50.5501 -50.5500 -50.5499
   -50.5497 -50.5496 -50.5493 -50.5489 -50.5489 -50.5488 -50.5486 -50.5486
   -50.5485 -50.5483 -50.5476 -50.5474 -50.5472 -50.5471 -50.5469 -50.5468
   -50.5467 -50.5465 -50.5464 -50.5464 -50.5463 -50.5462 -50.5461 -50.5460
   -50.5459 -50.5458 -50.5458 -50.5457 -50.5457 -50.5457 -50.5456 -50.5456
   -50.5454 -50.5452 -50.5430 -50.5427 -50.5426 -50.5422 -50.5421 -50.5419
     0.2701   0.7644   1.3523   1.3565   1.3586   1.3749   1.4085   1.4198
     1.4259   1.4294   1.4537   1.4556   1.4690   1.4756   1.4778   1.4855
     1.6089   1.6102   1.6164   1.6350   1.6635   1.6894   1.6918   1.6996
     1.7020   1.7119   1.7195   1.7224   1.7245   1.7257   1.7457   1.7799
     1.7832   1.7972   1.8060   1.8091   1.8199   1.8269   1.8288   1.8339
     1.8439   1.8471   1.8498   1.8712   1.8712   1.8729   1.8739   1.8826
     1.8996   1.9231   1.9291   1.9328   1.9361   1.9389   1.9425   1.9457
     1.9518   1.9523   1.9526   1.9545   1.9552   1.9750   1.9825   1.9959
     2.0014   2.0302   2.0640   2.1148   2.1479   2.1529   2.1607   2.1636
     2.1748   2.2066   2.2092   2.2353   2.2400   2.2450   2.2608   2.2694
     2.2872   2.3169   2.3929   2.8396   2.8576   3.3445   3.3683   3.8455
     3.8872   4.4070

          k = 0.0377 0.1131-0.3393 ( 35028 PWs)   bands (ev):

   -84.4954 -84.4954 -84.4954 -84.4953 -84.4953 -84.4953 -84.4940 -84.4940
   -84.4940 -84.4940 -84.4940 -84.4940 -84.4940 -84.4940 -84.4902 -84.4897
   -50.5507 -50.5507 -50.5505 -50.5505 -50.5503 -50.5502 -50.5501 -50.5501
   -50.5497 -50.5496 -50.5493 -50.5492 -50.5487 -50.5487 -50.5486 -50.5486
   -50.5485 -50.5485 -50.5475 -50.5475 -50.5472 -50.5472 -50.5469 -50.5469
   -50.5466 -50.5466 -50.5464 -50.5463 -50.5462 -50.5462 -50.5461 -50.5460
   -50.5459 -50.5459 -50.5458 -50.5458 -50.5458 -50.5458 -50.5456 -50.5456
   -50.5455 -50.5455 -50.5428 -50.5428 -50.5426 -50.5422 -50.5421 -50.5421
     0.4964   0.4964   1.3598   1.3598   1.3913   1.3914   1.4137   1.4137
     1.4334   1.4334   1.4452   1.4453   1.4558   1.4558   1.5432   1.5432
     1.5451   1.5451   1.6657   1.6657   1.6885   1.6885   1.6922   1.6922
     1.6932   1.6932   1.7079   1.7079   1.7482   1.7483   1.7788   1.7788
     1.7791   1.7792   1.7953   1.7953   1.7958   1.7959   1.8228   1.8228
     1.8378   1.8378   1.8480   1.8480   1.8738   1.8739   1.8853   1.8853
     1.8934   1.8935   1.9313   1.9314   1.9442   1.9443   1.9460   1.9460
     1.9569   1.9569   1.9614   1.9614   1.9644   1.9644   1.9667   1.9668
     2.0687   2.0687   2.0999   2.0999   2.1129   2.1129   2.1623   2.1623
     2.1985   2.1985   2.2006   2.2006   2.2413   2.2414   2.2694   2.2694
     2.2928   2.2928   2.5809   2.5809   3.0837   3.0837   3.5877   3.5877
     4.0980   4.0980

          k = 0.0377 0.1885 0.1885 ( 34995 PWs)   bands (ev):

   -84.4954 -84.4954 -84.4954 -84.4953 -84.4953 -84.4953 -84.4940 -84.4940
   -84.4940 -84.4940 -84.4940 -84.4940 -84.4940 -84.4940 -84.4902 -84.4897
   -50.5511 -50.5509 -50.5507 -50.5506 -50.5501 -50.5500 -50.5500 -50.5499
   -50.5497 -50.5495 -50.5490 -50.5489 -50.5488 -50.5486 -50.5486 -50.5485
   -50.5482 -50.5481 -50.5475 -50.5474 -50.5472 -50.5472 -50.5472 -50.5469
   -50.5468 -50.5468 -50.5466 -50.5465 -50.5464 -50.5464 -50.5462 -50.5460
   -50.5459 -50.5458 -50.5457 -50.5456 -50.5456 -50.5456 -50.5456 -50.5455
   -50.5454 -50.5452 -50.5432 -50.5428 -50.5426 -50.5422 -50.5421 -50.5419
     0.2119   1.1189   1.1194   1.3352   1.3499   1.3653   1.4129   1.4310
     1.4312   1.4400   1.4402   1.4644   1.4654   1.4897   1.5234   1.5241
     1.5322   1.5817   1.6201   1.6456   1.6619   1.6976   1.6983   1.7026
     1.7034   1.7040   1.7093   1.7113   1.7133   1.7137   1.7293   1.7745
     1.8143   1.8180   1.8186   1.8199   1.8212   1.8217   1.8233   1.8399
     1.8403   1.8482   1.8486   1.8569   1.8650   1.8750   1.8841   1.9110
     1.9202   1.9208   1.9388   1.9389   1.9447   1.9452   1.9529   1.9558
     1.9564   1.9598   1.9633   1.9643   1.9643   1.9671   1.9999   2.0002
     2.0235   2.0236   2.0432   2.0440   2.0985   2.0985   2.1156   2.1610
     2.1702   2.2017   2.2027   2.2168   2.2357   2.2366   2.2406   2.2514
     2.2531   2.3047   2.3341   2.7820   2.8156   3.2898   3.8561   3.8566
     4.2837   4.2842

          k = 0.0377 0.1885 0.2639 ( 35011 PWs)   bands (ev):

   -84.4954 -84.4954 -84.4954 -84.4953 -84.4953 -84.4953 -84.4940 -84.4940
   -84.4940 -84.4940 -84.4940 -84.4940 -84.4940 -84.4940 -84.4902 -84.4897
   -50.5510 -50.5507 -50.5505 -50.5504 -50.5504 -50.5502 -50.5502 -50.5499
   -50.5498 -50.5494 -50.5492 -50.5488 -50.5487 -50.5487 -50.5486 -50.5485
   -50.5484 -50.5482 -50.5475 -50.5474 -50.5473 -50.5472 -50.5471 -50.5470
   -50.5470 -50.5466 -50.5466 -50.5464 -50.5464 -50.5462 -50.5462 -50.5460
   -50.5458 -50.5458 -50.5457 -50.5457 -50.5456 -50.5456 -50.5455 -50.5455
   -50.5454 -50.5452 -50.5431 -50.5428 -50.5426 -50.5422 -50.5421 -50.5419
     0.3830   0.8587   1.2006   1.3113   1.3733   1.3993   1.4301   1.4337
     1.4525   1.4568   1.4652   1.4823   1.4904   1.4944   1.4948   1.5225
     1.5685   1.6121   1.6135   1.6210   1.6394   1.6764   1.6891   1.6895
     1.6918   1.6932   1.7002   1.7008   1.7269   1.7392   1.7466   1.7876
     1.7925   1.7975   1.8126   1.8131   1.8138   1.8159   1.8182   1.8196
     1.8205   1.8237   1.8501   1.8514   1.8539   1.8692   1.8960   1.9073
     1.9075   1.9110   1.9204   1.9391   1.9478   1.9481   1.9488   1.9640
     1.9644   1.9652   1.9664   1.9718   1.9720   1.9939   1.9984   2.0115
     2.0147   2.0436   2.0473   2.0794   2.0882   2.1125   2.1225   2.1286
     2.1657   2.1698   2.1747   2.1785   2.1788   2.1976   2.2191   2.2763
     2.2849   2.3035   2.3265   2.4798   2.9954   3.4794   3.5111   4.0223
     4.0521   4.4823

          k = 0.0377 0.1885-0.3393 ( 34982 PWs)   bands (ev):

   -84.4954 -84.4954 -84.4954 -84.4953 -84.4953 -84.4953 -84.4940 -84.4940
   -84.4940 -84.4940 -84.4940 -84.4940 -84.4940 -84.4940 -84.4902 -84.4897
   -50.5507 -50.5507 -50.5504 -50.5504 -50.5504 -50.5504 -50.5501 -50.5501
   -50.5496 -50.5495 -50.5490 -50.5489 -50.5487 -50.5487 -50.5485 -50.5485
   -50.5483 -50.5483 -50.5475 -50.5475 -50.5471 -50.5471 -50.5471 -50.5471
   -50.5469 -50.5468 -50.5465 -50.5465 -50.5464 -50.5463 -50.5460 -50.5459
   -50.5459 -50.5458 -50.5457 -50.5457 -50.5456 -50.5456 -50.5454 -50.5454
   -50.5453 -50.5453 -50.5430 -50.5430 -50.5426 -50.5422 -50.5419 -50.5419
     0.6030   0.6031   1.2686   1.2686   1.4019   1.4019   1.4396   1.4396
     1.4451   1.4452   1.4767   1.4767   1.4942   1.4943   1.5558   1.5558
     1.5576   1.5576   1.6211   1.6212   1.6636   1.6637   1.6784   1.6784
     1.6864   1.6864   1.6879   1.6879   1.7490   1.7490   1.7748   1.7749
     1.7960   1.7960   1.7979   1.7979   1.8098   1.8098   1.8115   1.8116
     1.8196   1.8196   1.8533   1.8533   1.8600   1.8600   1.8844   1.8844
     1.9094   1.9094   1.9149   1.9149   1.9501   1.9502   1.9556   1.9556
     1.9709   1.9710   1.9790   1.9790   1.9875   1.9875   2.0078   2.0079
     2.0573   2.0573   2.0619   2.0619   2.1027   2.1027   2.1346   2.1346
     2.1439   2.1439   2.1461   2.1461   2.1979   2.1979   2.2777   2.2777
     2.2937   2.2938   2.3101   2.3101   3.2256   3.2257   3.7233   3.7233
     4.2957   4.2958

          k = 0.0377 0.2639 0.2639 ( 35022 PWs)   bands (ev):

   -84.4954 -84.4954 -84.4954 -84.4953 -84.4953 -84.4953 -84.4940 -84.4940
   -84.4940 -84.4940 -84.4940 -84.4940 -84.4940 -84.4940 -84.4902 -84.4897
   -50.5509 -50.5506 -50.5506 -50.5505 -50.5505 -50.5503 -50.5503 -50.5500
   -50.5497 -50.5493 -50.5490 -50.5488 -50.5488 -50.5486 -50.5485 -50.5483
   -50.5482 -50.5482 -50.5476 -50.5475 -50.5475 -50.5474 -50.5472 -50.5471
   -50.5469 -50.5468 -50.5467 -50.5466 -50.5465 -50.5464 -50.5461 -50.5460
   -50.5459 -50.5458 -50.5457 -50.5456 -50.5456 -50.5455 -50.5454 -50.5453
   -50.5453 -50.5451 -50.5432 -50.5430 -50.5426 -50.5422 -50.5420 -50.5418
     0.5476   0.9855   0.9861   1.2361   1.3921   1.4348   1.4360   1.4362
     1.4372   1.5105   1.5106   1.5173   1.5174   1.5230   1.5237   1.5302
     1.5585   1.5991   1.6099   1.6147   1.6250   1.6282   1.6634   1.6694
     1.6773   1.6774   1.6823   1.6826   1.7368   1.7613   1.7620   1.7843
     1.7859   1.7909   1.7952   1.7975   1.7982   1.8039   1.8052   1.8224
     1.8285   1.8292   1.8404   1.8560   1.8641   1.8670   1.8724   1.8991
     1.8992   1.9143   1.9553   1.9561   1.9569   1.9569   1.9589   1.9709
     1.9783   1.9790   1.9792   1.9796   1.9869   1.9889   2.0026   2.0105
     2.0129   2.0538   2.0546   2.0605   2.0649   2.0952   2.0965   2.0967
     2.1081   2.1090   2.1331   2.1408   2.1558   2.1600   2.1609   2.2470
     2.3010   2.3028   2.3118   2.3274   3.1829   3.6708   3.7069   3.7074
     4.2133   4.2138

          k = 0.0377 0.2639-0.3393 ( 35008 PWs)   bands (ev):

   -84.4954 -84.4954 -84.4954 -84.4953 -84.4953 -84.4953 -84.4940 -84.4940
   -84.4940 -84.4940 -84.4940 -84.4940 -84.4940 -84.4940 -84.4902 -84.4897
   -50.5507 -50.5507 -50.5506 -50.5506 -50.5504 -50.5504 -50.5501 -50.5501
   -50.5496 -50.5494 -50.5488 -50.5487 -50.5486 -50.5486 -50.5484 -50.5483
   -50.5483 -50.5482 -50.5476 -50.5476 -50.5474 -50.5474 -50.5472 -50.5471
   -50.5470 -50.5470 -50.5466 -50.5466 -50.5465 -50.5465 -50.5460 -50.5459
   -50.5459 -50.5458 -50.5456 -50.5456 -50.5456 -50.5456 -50.5453 -50.5453
   -50.5452 -50.5451 -50.5431 -50.5431 -50.5426 -50.5422 -50.5418 -50.5418
     0.7550   0.7551   1.1222   1.1222   1.4139   1.4139   1.4379   1.4380
     1.4775   1.4775   1.5303   1.5303   1.5438   1.5438   1.5718   1.5719
     1.5725   1.5726   1.5731   1.5732   1.6371   1.6372   1.6526   1.6527
     1.6604   1.6604   1.6684   1.6685   1.7541   1.7541   1.7787   1.7787
     1.7878   1.7878   1.7955   1.7955   1.8008   1.8008   1.8106   1.8107
     1.8205   1.8205   1.8345   1.8345   1.8753   1.8754   1.8864   1.8865
     1.9044   1.9044   1.9364   1.9364   1.9608   1.9609   1.9658   1.9658
     1.9882   1.9883   1.9948   1.9948   2.0076   2.0077   2.0193   2.0194
     2.0419   2.0419   2.0508   2.0508   2.0518   2.0518   2.0934   2.0934
     2.0976   2.0976   2.1053   2.1053   2.1515   2.1515   2.1524   2.1525
     2.3110   2.3110   2.3193   2.3193   3.4189   3.4190   3.9154   3.9154
     3.9512   3.9513

          k = 0.0377-0.3393-0.3393 ( 35032 PWs)   bands (ev):

   -84.4954 -84.4954 -84.4954 -84.4953 -84.4953 -84.4953 -84.4940 -84.4940
   -84.4940 -84.4940 -84.4940 -84.4940 -84.4940 -84.4940 -84.4902 -84.4897
   -50.5508 -50.5508 -50.5507 -50.5507 -50.5504 -50.5504 -50.5502 -50.5501
   -50.5496 -50.5495 -50.5489 -50.5489 -50.5484 -50.5484 -50.5483 -50.5483
   -50.5482 -50.5481 -50.5477 -50.5477 -50.5475 -50.5475 -50.5474 -50.5474
   -50.5469 -50.5469 -50.5467 -50.5467 -50.5466 -50.5466 -50.5459 -50.5459
   -50.5459 -50.5458 -50.5456 -50.5456 -50.5456 -50.5456 -50.5453 -50.5452
   -50.5451 -50.5450 -50.5432 -50.5432 -50.5426 -50.5423 -50.5418 -50.5418
     0.9376   0.9376   0.9381   0.9382   1.4261   1.4261   1.4271   1.4271
     1.5229   1.5229   1.5236   1.5237   1.5715   1.5715   1.5717   1.5717
     1.5829   1.5829   1.5832   1.5832   1.6260   1.6260   1.6262   1.6263
     1.6441   1.6442   1.6442   1.6443   1.7651   1.7651   1.7668   1.7668
     1.7949   1.7949   1.7957   1.7957   1.8000   1.8000   1.8010   1.8011
     1.8253   1.8253   1.8262   1.8262   1.8691   1.8691   1.8698   1.8700
     1.9542   1.9542   1.9543   1.9543   1.9687   1.9688   1.9696   1.9696
     1.9726   1.9726   1.9733   1.9733   1.9987   1.9988   1.9999   1.9999
     2.0570   2.0570   2.0576   2.0576   2.0588   2.0588   2.0598   2.0598
     2.0979   2.0980   2.0982   2.0982   2.1183   2.1183   2.1190   2.1190
     2.3186   2.3187   2.3205   2.3205   3.6600   3.6600   3.6604   3.6605
     4.1595   4.1595

          k = 0.1131 0.1131 0.1131 ( 35015 PWs)   bands (ev):

   -84.4954 -84.4954 -84.4954 -84.4953 -84.4953 -84.4953 -84.4940 -84.4940
   -84.4940 -84.4940 -84.4940 -84.4940 -84.4940 -84.4940 -84.4902 -84.4897
   -50.5513 -50.5510 -50.5510 -50.5506 -50.5506 -50.5500 -50.5497 -50.5494
   -50.5494 -50.5491 -50.5491 -50.5488 -50.5488 -50.5488 -50.5485 -50.5485
   -50.5485 -50.5483 -50.5473 -50.5473 -50.5472 -50.5472 -50.5470 -50.5470
   -50.5470 -50.5470 -50.5465 -50.5465 -50.5464 -50.5464 -50.5464 -50.5462
   -50.5458 -50.5457 -50.5457 -50.5456 -50.5456 -50.5455 -50.5455 -50.5455
   -50.5452 -50.5452 -50.5431 -50.5431 -50.5427 -50.5421 -50.5419 -50.5419
     0.0368   1.3192   1.3192   1.3196   1.3269   1.3269   1.3715   1.3715
     1.3719   1.3949   1.3949   1.3950   1.5142   1.5144   1.5144   1.5253
     1.5262   1.5262   1.6605   1.6614   1.6614   1.6721   1.6911   1.6923
     1.6923   1.7110   1.7110   1.7121   1.7211   1.7211   1.7804   1.7804
     1.8178   1.8186   1.8186   1.8330   1.8330   1.8657   1.8657   1.8683
     1.8683   1.8701   1.8777   1.8786   1.8786   1.8827   1.9014   1.9014
     1.9070   1.9315   1.9322   1.9322   1.9338   1.9341   1.9341   1.9359
     1.9359   1.9361   1.9500   1.9500   1.9506   1.9576   1.9576   2.0344
     2.0357   2.0357   2.0524   2.0524   2.0526   2.1912   2.1912   2.1933
     2.2078   2.2458   2.2458   2.2460   2.2620   2.2620   2.2635   2.2850
     2.2850   2.3081   2.3096   2.3096   3.5853   3.5853   3.5859   3.6558
     3.6558   3.6566

          k = 0.1131 0.1131 0.1885 ( 34970 PWs)   bands (ev):

   -84.4954 -84.4954 -84.4954 -84.4953 -84.4953 -84.4953 -84.4940 -84.4940
   -84.4940 -84.4940 -84.4940 -84.4940 -84.4940 -84.4940 -84.4902 -84.4897
   -50.5511 -50.5509 -50.5508 -50.5505 -50.5503 -50.5499 -50.5498 -50.5498
   -50.5498 -50.5492 -50.5490 -50.5489 -50.5489 -50.5487 -50.5486 -50.5485
   -50.5485 -50.5482 -50.5473 -50.5472 -50.5472 -50.5472 -50.5470 -50.5469
   -50.5469 -50.5466 -50.5465 -50.5464 -50.5463 -50.5463 -50.5463 -50.5461
   -50.5457 -50.5457 -50.5457 -50.5456 -50.5456 -50.5456 -50.5455 -50.5455
   -50.5453 -50.5452 -50.5431 -50.5429 -50.5425 -50.5422 -50.5419 -50.5418
     0.1540   1.0886   1.3444   1.3511   1.3547   1.3550   1.3763   1.3766
     1.4152   1.4152   1.4178   1.4342   1.4812   1.4947   1.5066   1.5071
     1.5553   1.5563   1.6484   1.6654   1.6662   1.6899   1.6912   1.7019
     1.7021   1.7027   1.7045   1.7072   1.7316   1.7323   1.7326   1.7772
     1.7778   1.7960   1.8175   1.8185   1.8258   1.8426   1.8436   1.8571
     1.8661   1.8668   1.8692   1.8702   1.8799   1.8890   1.8893   1.8943
     1.9048   1.9103   1.9186   1.9299   1.9301   1.9334   1.9351   1.9355
     1.9370   1.9553   1.9557   1.9587   1.9712   1.9721   1.9729   1.9995
     2.0264   2.0274   2.0645   2.0651   2.0801   2.1028   2.1658   2.1934
     2.2142   2.2153   2.2246   2.2279   2.2290   2.2561   2.2581   2.2899
     2.3048   2.3057   2.3466   2.3468   3.2558   3.2563   3.7190   3.7195
     3.8003   4.2168

          k = 0.1131 0.1131 0.2639 ( 35034 PWs)   bands (ev):

   -84.4954 -84.4954 -84.4954 -84.4953 -84.4953 -84.4953 -84.4940 -84.4940
   -84.4940 -84.4940 -84.4940 -84.4940 -84.4940 -84.4940 -84.4902 -84.4897
   -50.5510 -50.5508 -50.5505 -50.5504 -50.5503 -50.5503 -50.5501 -50.5500
   -50.5497 -50.5495 -50.5493 -50.5490 -50.5489 -50.5488 -50.5487 -50.5486
   -50.5485 -50.5483 -50.5475 -50.5474 -50.5472 -50.5471 -50.5471 -50.5470
   -50.5467 -50.5467 -50.5465 -50.5465 -50.5464 -50.5462 -50.5461 -50.5460
   -50.5459 -50.5459 -50.5457 -50.5457 -50.5457 -50.5457 -50.5456 -50.5455
   -50.5454 -50.5453 -50.5430 -50.5427 -50.5427 -50.5422 -50.5421 -50.5419
     0.3271   0.8137   1.3695   1.3815   1.3817   1.3841   1.3842   1.3845
     1.4391   1.4392   1.4392   1.4615   1.4808   1.4876   1.4877   1.4880
     1.6034   1.6043   1.6076   1.6276   1.6905   1.6912   1.6915   1.6972
     1.6979   1.7022   1.7141   1.7149   1.7172   1.7181   1.7389   1.7722
     1.7727   1.7976   1.8062   1.8132   1.8141   1.8159   1.8238   1.8327
     1.8336   1.8426   1.8457   1.8461   1.8743   1.8780   1.8823   1.8893
     1.8938   1.9154   1.9290   1.9302   1.9304   1.9351   1.9352   1.9371
     1.9593   1.9642   1.9659   1.9664   1.9680   1.9766   2.0054   2.0064
     2.0187   2.0424   2.0552   2.0980   2.0990   2.1120   2.1185   2.1277
     2.1866   2.1877   2.1908   2.2198   2.2430   2.2439   2.2518   2.2853
     2.2915   2.2926   2.4847   2.4850   2.9286   2.9290   3.9132   3.9137
     3.9982   4.4730

          k = 0.1131 0.1131-0.3393 ( 35048 PWs)   bands (ev):

   -84.4954 -84.4954 -84.4954 -84.4953 -84.4953 -84.4953 -84.4940 -84.4940
   -84.4940 -84.4940 -84.4940 -84.4940 -84.4940 -84.4940 -84.4902 -84.4897
   -50.5507 -50.5507 -50.5505 -50.5505 -50.5503 -50.5503 -50.5502 -50.5502
   -50.5497 -50.5497 -50.5493 -50.5492 -50.5488 -50.5487 -50.5487 -50.5487
   -50.5484 -50.5484 -50.5475 -50.5475 -50.5472 -50.5472 -50.5469 -50.5469
   -50.5467 -50.5467 -50.5466 -50.5465 -50.5461 -50.5461 -50.5460 -50.5460
   -50.5459 -50.5458 -50.5458 -50.5458 -50.5457 -50.5456 -50.5456 -50.5456
   -50.5455 -50.5454 -50.5429 -50.5429 -50.5426 -50.5422 -50.5421 -50.5421
     0.5508   0.5508   1.3889   1.3889   1.3892   1.3892   1.4015   1.4015
     1.4226   1.4227   1.4643   1.4643   1.4644   1.4645   1.5487   1.5488
     1.5537   1.5538   1.6589   1.6590   1.6597   1.6598   1.6931   1.6931
     1.6943   1.6943   1.7205   1.7205   1.7214   1.7215   1.7709   1.7710
     1.8024   1.8024   1.8032   1.8033   1.8059   1.8059   1.8063   1.8063
     1.8124   1.8124   1.8295   1.8295   1.8821   1.8821   1.8854   1.8854
     1.8906   1.8906   1.9328   1.9328   1.9330   1.9330   1.9351   1.9352
     1.9745   1.9745   1.9833   1.9833   1.9841   1.9841   2.0001   2.0001
     2.0312   2.0313   2.0683   2.0683   2.1209   2.1209   2.1415   2.1415
     2.1426   2.1426   2.1753   2.1753   2.2703   2.2703   2.2705   2.2705
     2.2729   2.2729   2.6740   2.6740   2.6743   2.6743   4.1649   4.1649
     4.1654   4.1654

          k = 0.1131 0.1885 0.1885 ( 34993 PWs)   bands (ev):

   -84.4954 -84.4954 -84.4954 -84.4953 -84.4953 -84.4953 -84.4940 -84.4940
   -84.4940 -84.4940 -84.4940 -84.4940 -84.4940 -84.4940 -84.4902 -84.4897
   -50.5511 -50.5508 -50.5507 -50.5505 -50.5502 -50.5501 -50.5500 -50.5500
   -50.5495 -50.5494 -50.5489 -50.5489 -50.5489 -50.5488 -50.5487 -50.5485
   -50.5484 -50.5483 -50.5473 -50.5473 -50.5473 -50.5472 -50.5470 -50.5469
   -50.5467 -50.5467 -50.5466 -50.5465 -50.5465 -50.5464 -50.5463 -50.5460
   -50.5458 -50.5457 -50.5457 -50.5457 -50.5455 -50.5455 -50.5455 -50.5455
   -50.5454 -50.5452 -50.5430 -50.5428 -50.5426 -50.5422 -50.5420 -50.5419
     0.2696   1.1586   1.1591   1.3631   1.3648   1.3730   1.3973   1.4254
     1.4256   1.4319   1.4528   1.4529   1.4807   1.4817   1.5228   1.5234
     1.5424   1.5429   1.6374   1.6571   1.6836   1.6972   1.6983   1.6991
     1.7016   1.7022   1.7090   1.7155   1.7159   1.7162   1.7294   1.7585
     1.7734   1.7781   1.7787   1.8068   1.8120   1.8317   1.8332   1.8411
     1.8507   1.8692   1.8697   1.8698   1.8769   1.8774   1.8806   1.9118
     1.9125   1.9180   1.9189   1.9212   1.9234   1.9234   1.9312   1.9316
     1.9401   1.9657   1.9677   1.9695   1.9705   1.9763   1.9766   1.9965
     2.0267   2.0382   2.0389   2.0696   2.0704   2.1189   2.1537   2.1547
     2.1750   2.1751   2.1796   2.2100   2.2423   2.2440   2.2457   2.2564
     2.2574   2.2898   2.3098   2.4667   2.8771   3.4050   3.4055   3.8524
     4.3511   4.3516

          k = 0.1131 0.1885 0.2639 ( 35012 PWs)   bands (ev):

   -84.4954 -84.4954 -84.4954 -84.4953 -84.4953 -84.4953 -84.4940 -84.4940
   -84.4940 -84.4940 -84.4940 -84.4940 -84.4940 -84.4940 -84.4902 -84.4897
   -50.5509 -50.5506 -50.5504 -50.5504 -50.5504 -50.5503 -50.5502 -50.5499
   -50.5497 -50.5493 -50.5493 -50.5489 -50.5488 -50.5488 -50.5488 -50.5486
   -50.5484 -50.5482 -50.5475 -50.5474 -50.5472 -50.5472 -50.5471 -50.5469
   -50.5468 -50.5468 -50.5467 -50.5465 -50.5464 -50.5463 -50.5461 -50.5460
   -50.5459 -50.5459 -50.5457 -50.5457 -50.5456 -50.5455 -50.5455 -50.5454
   -50.5454 -50.5452 -50.5431 -50.5428 -50.5427 -50.5422 -50.5421 -50.5419
     0.4393   0.9077   1.2401   1.3451   1.3865   1.4063   1.4323   1.4362
     1.4478   1.4486   1.4740   1.4758   1.4860   1.4919   1.5039   1.5236
     1.5676   1.5910   1.6125   1.6377   1.6674   1.6762   1.6894   1.6917
     1.6948   1.6980   1.6991   1.7050   1.7173   1.7220   1.7348   1.7647
     1.7733   1.7781   1.7879   1.7909   1.8054   1.8065   1.8154   1.8189
     1.8288   1.8422   1.8533   1.8730   1.8735   1.8745   1.8788   1.8866
     1.9050   1.9076   1.9138   1.9201   1.9267   1.9321   1.9326   1.9404
     1.9418   1.9665   1.9851   1.9868   1.9878   2.0031   2.0033   2.0081
     2.0304   2.0434   2.0442   2.0677   2.0729   2.0734   2.0975   2.1118
     2.1164   2.1203   2.1963   2.2070   2.2177   2.2482   2.2659   2.2673
     2.2696   2.2901   2.3045   2.5894   2.6217   3.0802   3.6051   4.0455
     4.1401   4.5479

          k = 0.1131 0.1885-0.3393 ( 34984 PWs)   bands (ev):

   -84.4954 -84.4954 -84.4954 -84.4953 -84.4953 -84.4953 -84.4940 -84.4940
   -84.4940 -84.4940 -84.4940 -84.4940 -84.4940 -84.4940 -84.4902 -84.4897
   -50.5507 -50.5507 -50.5505 -50.5504 -50.5503 -50.5503 -50.5500 -50.5500
   -50.5496 -50.5496 -50.5491 -50.5490 -50.5489 -50.5488 -50.5487 -50.5487
   -50.5483 -50.5483 -50.5475 -50.5475 -50.5471 -50.5471 -50.5470 -50.5470
   -50.5469 -50.5469 -50.5466 -50.5465 -50.5462 -50.5462 -50.5460 -50.5460
   -50.5459 -50.5458 -50.5457 -50.5457 -50.5455 -50.5455 -50.5454 -50.5454
   -50.5453 -50.5452 -50.5430 -50.5430 -50.5425 -50.5422 -50.5419 -50.5419
     0.6568   0.6569   1.3063   1.3063   1.4152   1.4152   1.4427   1.4427
     1.4456   1.4457   1.4630   1.4630   1.5004   1.5004   1.5616   1.5616
     1.5668   1.5668   1.6204   1.6205   1.6461   1.6462   1.6873   1.6873
     1.6920   1.6920   1.6941   1.6941   1.7323   1.7323   1.7637   1.7637
     1.7763   1.7763   1.7854   1.7854   1.8078   1.8079   1.8109   1.8109
     1.8229   1.8229   1.8298   1.8298   1.8770   1.8771   1.8839   1.8839
     1.8966   1.8966   1.9148   1.9148   1.9314   1.9315   1.9365   1.9365
     1.9975   1.9975   1.9979   1.9979   2.0092   2.0092   2.0141   2.0141
     2.0159   2.0159   2.0460   2.0460   2.0591   2.0591   2.0724   2.0724
     2.1327   2.1327   2.1633   2.1634   2.2333   2.2333   2.2829   2.2830
     2.2904   2.2904   2.3937   2.3937   2.8220   2.8220   3.8499   3.8499
     4.2955   4.2955

          k = 0.1131 0.2639 0.2639 ( 34981 PWs)   bands (ev):

   -84.4954 -84.4954 -84.4954 -84.4953 -84.4953 -84.4953 -84.4940 -84.4940
   -84.4940 -84.4940 -84.4940 -84.4940 -84.4940 -84.4940 -84.4902 -84.4897
   -50.5508 -50.5506 -50.5506 -50.5505 -50.5503 -50.5502 -50.5502 -50.5498
   -50.5497 -50.5493 -50.5491 -50.5491 -50.5489 -50.5487 -50.5487 -50.5485
   -50.5483 -50.5482 -50.5476 -50.5475 -50.5472 -50.5471 -50.5470 -50.5469
   -50.5469 -50.5468 -50.5467 -50.5465 -50.5464 -50.5462 -50.5461 -50.5459
   -50.5458 -50.5458 -50.5458 -50.5456 -50.5456 -50.5455 -50.5453 -50.5453
   -50.5453 -50.5452 -50.5431 -50.5429 -50.5426 -50.5422 -50.5419 -50.5418
     0.6027   1.0337   1.0343   1.2767   1.4062   1.4407   1.4519   1.4529
     1.4535   1.4848   1.5047   1.5049   1.5253   1.5253   1.5257   1.5264
     1.5699   1.5741   1.6165   1.6268   1.6315   1.6563   1.6577   1.6762
     1.6763   1.6763   1.6910   1.6915   1.7324   1.7412   1.7420   1.7597
     1.7597   1.7605   1.7814   1.7867   1.7887   1.7956   1.7971   1.8235
     1.8342   1.8502   1.8508   1.8590   1.8621   1.8718   1.8754   1.8978
     1.8980   1.9007   1.9142   1.9142   1.9347   1.9354   1.9371   1.9409
     1.9414   1.9430   1.9457   2.0072   2.0082   2.0110   2.0143   2.0167
     2.0224   2.0370   2.0378   2.0404   2.0414   2.0480   2.0869   2.0876
     2.0980   2.1623   2.1624   2.1741   2.1941   2.1949   2.1969   2.2856
     2.2873   2.2960   2.3073   2.3696   2.7947   3.2770   3.2774   3.8029
     4.2367   4.7850

          k = 0.1131 0.2639-0.3393 ( 35016 PWs)   bands (ev):

   -84.4954 -84.4954 -84.4954 -84.4953 -84.4953 -84.4953 -84.4940 -84.4940
   -84.4940 -84.4940 -84.4940 -84.4940 -84.4940 -84.4940 -84.4902 -84.4897
   -50.5507 -50.5507 -50.5506 -50.5506 -50.5503 -50.5503 -50.5501 -50.5501
   -50.5495 -50.5495 -50.5490 -50.5490 -50.5488 -50.5488 -50.5487 -50.5487
   -50.5482 -50.5482 -50.5476 -50.5476 -50.5472 -50.5472 -50.5470 -50.5470
   -50.5470 -50.5469 -50.5466 -50.5466 -50.5464 -50.5464 -50.5460 -50.5460
   -50.5459 -50.5458 -50.5457 -50.5457 -50.5456 -50.5456 -50.5453 -50.5453
   -50.5452 -50.5452 -50.5431 -50.5431 -50.5426 -50.5422 -50.5419 -50.5419
     0.8078   0.8079   1.1679   1.1680   1.4286   1.4287   1.4546   1.4546
     1.4822   1.4823   1.5094   1.5094   1.5490   1.5490   1.5748   1.5749
     1.5779   1.5779   1.5802   1.5803   1.6265   1.6266   1.6563   1.6563
     1.6711   1.6712   1.6790   1.6791   1.7447   1.7448   1.7580   1.7580
     1.7635   1.7635   1.7688   1.7689   1.7864   1.7865   1.8083   1.8083
     1.8360   1.8360   1.8561   1.8561   1.8656   1.8656   1.8775   1.8776
     1.8864   1.8865   1.9163   1.9163   1.9371   1.9372   1.9418   1.9419
     1.9620   1.9620   1.9778   1.9778   1.9806   1.9806   2.0128   2.0128
     2.0219   2.0220   2.0300   2.0301   2.0515   2.0515   2.0988   2.0989
     2.1321   2.1321   2.1407   2.1407   2.1911   2.1911   2.2442   2.2442
     2.2952   2.2952   2.3009   2.3010   3.0099   3.0099   3.5169   3.5170
     4.4837   4.4837

          k = 0.1131-0.3393-0.3393 ( 35032 PWs)   bands (ev):

   -84.4954 -84.4954 -84.4954 -84.4953 -84.4953 -84.4953 -84.4940 -84.4940
   -84.4940 -84.4940 -84.4940 -84.4940 -84.4940 -84.4940 -84.4902 -84.4897
   -50.5507 -50.5507 -50.5507 -50.5507 -50.5503 -50.5503 -50.5501 -50.5501
   -50.5495 -50.5494 -50.5491 -50.5491 -50.5487 -50.5487 -50.5486 -50.5486
   -50.5483 -50.5482 -50.5476 -50.5476 -50.5473 -50.5473 -50.5471 -50.5471
   -50.5469 -50.5468 -50.5467 -50.5467 -50.5465 -50.5465 -50.5459 -50.5459
   -50.5459 -50.5458 -50.5457 -50.5457 -50.5456 -50.5456 -50.5452 -50.5452
   -50.5452 -50.5452 -50.5431 -50.5431 -50.5425 -50.5422 -50.5419 -50.5419
     0.9881   0.9881   0.9886   0.9888   1.4417   1.4417   1.4427   1.4428
     1.5268   1.5268   1.5274   1.5275   1.5649   1.5649   1.5651   1.5651
     1.5992   1.5992   1.5996   1.5996   1.6080   1.6080   1.6083   1.6084
     1.6620   1.6621   1.6622   1.6622   1.7582   1.7582   1.7584   1.7585
     1.7591   1.7592   1.7602   1.7602   1.7869   1.7869   1.7877   1.7878
     1.8432   1.8432   1.8441   1.8441   1.8733   1.8733   1.8738   1.8740
     1.9107   1.9107   1.9108   1.9108   1.9404   1.9404   1.9412   1.9412
     1.9448   1.9449   1.9458   1.9458   1.9771   1.9771   1.9779   1.9779
     2.0354   2.0355   2.0368   2.0368   2.0921   2.0921   2.0927   2.0928
     2.1570   2.1570   2.1575   2.1575   2.1606   2.1606   2.1607   2.1607
     2.3013   2.3013   2.3031   2.3031   3.2391   3.2391   3.2395   3.2395
     4.7257   4.7257

          k = 0.1885 0.1885 0.1885 ( 35009 PWs)   bands (ev):

   -84.4954 -84.4954 -84.4954 -84.4953 -84.4953 -84.4953 -84.4940 -84.4940
   -84.4940 -84.4940 -84.4940 -84.4940 -84.4940 -84.4940 -84.4902 -84.4897
   -50.5510 -50.5506 -50.5506 -50.5503 -50.5502 -50.5502 -50.5502 -50.5502
   -50.5493 -50.5492 -50.5492 -50.5489 -50.5489 -50.5489 -50.5488 -50.5488
   -50.5485 -50.5484 -50.5473 -50.5473 -50.5473 -50.5471 -50.5471 -50.5467
   -50.5467 -50.5467 -50.5466 -50.5466 -50.5465 -50.5462 -50.5462 -50.5462
   -50.5458 -50.5458 -50.5458 -50.5456 -50.5456 -50.5455 -50.5455 -50.5454
   -50.5454 -50.5454 -50.5429 -50.5429 -50.5428 -50.5421 -50.5420 -50.5420
     0.3835   1.2296   1.2296   1.2304   1.3880   1.3880   1.4204   1.4204
     1.4208   1.4680   1.4680   1.4680   1.5044   1.5053   1.5053   1.5283
     1.5286   1.5286   1.6352   1.6910   1.6919   1.6919   1.6942   1.6942
     1.7044   1.7056   1.7056   1.7219   1.7219   1.7289   1.7297   1.7297
     1.7340   1.7340   1.7346   1.7962   1.7962   1.8332   1.8332   1.8352
     1.8601   1.8756   1.8756   1.8757   1.8757   1.8759   1.8798   1.8807
     1.8807   1.9084   1.9084   1.9121   1.9122   1.9122   1.9184   1.9196
     1.9196   1.9504   1.9507   1.9507   1.9892   1.9892   1.9905   2.0039
     2.0393   2.0393   2.0679   2.0821   2.0835   2.0835   2.0939   2.0939
     2.0958   2.2386   2.2386   2.2408   2.2613   2.2613   2.2649   2.2665
     2.2665   2.2680   2.2680   2.2683   3.0329   3.0329   3.0335   4.0898
     4.4833   4.4833

          k = 0.1885 0.1885 0.2639 ( 35040 PWs)   bands (ev):

   -84.4954 -84.4954 -84.4954 -84.4953 -84.4953 -84.4953 -84.4940 -84.4940
   -84.4940 -84.4940 -84.4940 -84.4940 -84.4940 -84.4940 -84.4902 -84.4897
   -50.5508 -50.5505 -50.5505 -50.5504 -50.5504 -50.5503 -50.5502 -50.5500
   -50.5496 -50.5493 -50.5493 -50.5491 -50.5491 -50.5490 -50.5489 -50.5489
   -50.5484 -50.5483 -50.5475 -50.5475 -50.5473 -50.5471 -50.5470 -50.5469
   -50.5468 -50.5466 -50.5466 -50.5465 -50.5464 -50.5462 -50.5462 -50.5460
   -50.5460 -50.5460 -50.5458 -50.5456 -50.5456 -50.5455 -50.5455 -50.5454
   -50.5453 -50.5453 -50.5430 -50.5429 -50.5427 -50.5421 -50.5420 -50.5420
     0.5501   1.0009   1.3121   1.3125   1.4086   1.4090   1.4097   1.4218
     1.4693   1.4834   1.4835   1.4959   1.4984   1.5060   1.5062   1.5173
     1.5657   1.5663   1.6217   1.6572   1.6746   1.6753   1.6847   1.6941
     1.6949   1.6956   1.7006   1.7087   1.7130   1.7139   1.7232   1.7259
     1.7293   1.7587   1.7590   1.7758   1.7899   1.8122   1.8207   1.8219
     1.8305   1.8306   1.8571   1.8579   1.8637   1.8788   1.8830   1.8852
     1.8988   1.9018   1.9035   1.9069   1.9073   1.9102   1.9141   1.9204
     1.9207   1.9219   1.9548   1.9558   2.0105   2.0117   2.0143   2.0154
     2.0166   2.0333   2.0347   2.0396   2.0487   2.0717   2.0728   2.0913
     2.1303   2.1664   2.2098   2.2230   2.2439   2.2449   2.2594   2.2641
     2.2648   2.2710   2.3831   2.3833   2.7447   2.7450   3.2319   3.7554
     4.6765   4.6771

          k = 0.1885 0.1885-0.3393 ( 34990 PWs)   bands (ev):

   -84.4954 -84.4954 -84.4954 -84.4953 -84.4953 -84.4953 -84.4940 -84.4940
   -84.4940 -84.4940 -84.4940 -84.4940 -84.4940 -84.4940 -84.4902 -84.4897
   -50.5506 -50.5506 -50.5504 -50.5504 -50.5502 -50.5502 -50.5500 -50.5500
   -50.5496 -50.5496 -50.5491 -50.5490 -50.5490 -50.5490 -50.5490 -50.5490
   -50.5483 -50.5483 -50.5475 -50.5475 -50.5471 -50.5471 -50.5470 -50.5470
   -50.5467 -50.5467 -50.5465 -50.5465 -50.5461 -50.5461 -50.5461 -50.5460
   -50.5459 -50.5459 -50.5459 -50.5459 -50.5455 -50.5455 -50.5454 -50.5453
   -50.5453 -50.5453 -50.5429 -50.5429 -50.5425 -50.5422 -50.5419 -50.5419
     0.7617   0.7618   1.3765   1.3765   1.3768   1.3769   1.4371   1.4371
     1.4606   1.4606   1.4967   1.4968   1.4969   1.4970   1.5733   1.5734
     1.5805   1.5806   1.6181   1.6181   1.6188   1.6189   1.6881   1.6881
     1.6966   1.6966   1.7107   1.7108   1.7115   1.7116   1.7282   1.7283
     1.7514   1.7514   1.7910   1.7910   1.7911   1.7911   1.7940   1.7941
     1.8222   1.8222   1.8231   1.8232   1.8858   1.8859   1.8913   1.8913
     1.8918   1.8918   1.8969   1.8969   1.9142   1.9142   1.9146   1.9147
     1.9468   1.9468   1.9618   1.9619   1.9857   1.9857   1.9870   1.9870
     2.0294   2.0295   2.0454   2.0454   2.0465   2.0465   2.1008   2.1009
     2.1496   2.1496   2.1780   2.1780   2.2553   2.2553   2.2562   2.2562
     2.2700   2.2701   2.5347   2.5347   2.5349   2.5349   3.4713   3.4713
     4.9278   4.9283

          k = 0.1885 0.2639 0.2639 ( 35005 PWs)   bands (ev):

   -84.4954 -84.4954 -84.4954 -84.4953 -84.4953 -84.4953 -84.4940 -84.4940
   -84.4940 -84.4940 -84.4940 -84.4940 -84.4940 -84.4940 -84.4902 -84.4897
   -50.5507 -50.5505 -50.5504 -50.5504 -50.5502 -50.5502 -50.5501 -50.5498
   -50.5497 -50.5493 -50.5493 -50.5491 -50.5491 -50.5490 -50.5489 -50.5489
   -50.5485 -50.5483 -50.5475 -50.5474 -50.5472 -50.5471 -50.5470 -50.5469
   -50.5467 -50.5466 -50.5465 -50.5464 -50.5464 -50.5462 -50.5461 -50.5460
   -50.5460 -50.5459 -50.5459 -50.5457 -50.5456 -50.5455 -50.5454 -50.5454
   -50.5453 -50.5452 -50.5429 -50.5429 -50.5426 -50.5422 -50.5420 -50.5420
     0.7107   1.1253   1.1259   1.3544   1.3995   1.4327   1.4520   1.4810
     1.4820   1.4870   1.4945   1.4947   1.5316   1.5317   1.5317   1.5323
     1.5414   1.5711   1.6301   1.6336   1.6518   1.6600   1.6703   1.6706
     1.6832   1.6841   1.7026   1.7033   1.7065   1.7212   1.7220   1.7244
     1.7292   1.7297   1.7659   1.7720   1.7804   1.7893   1.7942   1.7956
     1.8232   1.8249   1.8418   1.8566   1.8568   1.8627   1.8628   1.8793
     1.8808   1.8913   1.8951   1.8954   1.9012   1.9039   1.9046   1.9154
     1.9161   1.9203   1.9256   1.9258   1.9594   1.9640   1.9651   1.9709
     2.0421   2.0432   2.0506   2.0655   2.0839   2.1026   2.1137   2.1177
     2.1185   2.2045   2.2134   2.2144   2.2227   2.2500   2.2502   2.2599
     2.2616   2.2659   2.2703   2.5112   2.5246   2.9332   2.9335   3.4301
     4.8651   5.3591

          k = 0.1885 0.2639-0.3393 ( 35014 PWs)   bands (ev):

   -84.4954 -84.4954 -84.4954 -84.4953 -84.4953 -84.4953 -84.4940 -84.4940
   -84.4940 -84.4940 -84.4940 -84.4940 -84.4940 -84.4940 -84.4902 -84.4897
   -50.5506 -50.5506 -50.5504 -50.5504 -50.5501 -50.5501 -50.5500 -50.5499
   -50.5496 -50.5496 -50.5493 -50.5493 -50.5491 -50.5491 -50.5490 -50.5490
   -50.5484 -50.5483 -50.5475 -50.5475 -50.5471 -50.5471 -50.5470 -50.5470
   -50.5467 -50.5467 -50.5465 -50.5465 -50.5463 -50.5463 -50.5460 -50.5460
   -50.5459 -50.5459 -50.5459 -50.5458 -50.5456 -50.5456 -50.5453 -50.5453
   -50.5453 -50.5452 -50.5429 -50.5429 -50.5426 -50.5422 -50.5419 -50.5419
     0.9104   0.9104   1.2555   1.2556   1.4562   1.4562   1.4682   1.4682
     1.4863   1.4863   1.4919   1.4919   1.5431   1.5432   1.5793   1.5793
     1.5876   1.5877   1.5884   1.5885   1.6143   1.6143   1.6583   1.6583
     1.6909   1.6909   1.6919   1.6919   1.7112   1.7112   1.7295   1.7295
     1.7460   1.7460   1.7550   1.7550   1.7734   1.7734   1.7945   1.7945
     1.8167   1.8168   1.8248   1.8248   1.8387   1.8387   1.8827   1.8827
     1.8874   1.8875   1.9002   1.9002   1.9022   1.9022   1.9075   1.9075
     1.9123   1.9123   1.9303   1.9304   1.9373   1.9374   1.9397   1.9397
     2.0616   2.0617   2.0710   2.0710   2.0872   2.0872   2.1598   2.1599
     2.1642   2.1642   2.1664   2.1665   2.2144   2.2144   2.2662   2.2663
     2.2680   2.2680   2.3576   2.3576   2.7025   2.7025   3.1589   3.1590
     5.1092   5.1092

          k = 0.1885-0.3393-0.3393 ( 35008 PWs)   bands (ev):

   -84.4954 -84.4954 -84.4954 -84.4953 -84.4953 -84.4953 -84.4940 -84.4940
   -84.4940 -84.4940 -84.4940 -84.4940 -84.4940 -84.4940 -84.4902 -84.4897
   -50.5505 -50.5505 -50.5505 -50.5505 -50.5500 -50.5500 -50.5500 -50.5500
   -50.5495 -50.5495 -50.5495 -50.5494 -50.5491 -50.5491 -50.5489 -50.5489
   -50.5484 -50.5483 -50.5474 -50.5474 -50.5471 -50.5471 -50.5470 -50.5469
   -50.5466 -50.5466 -50.5465 -50.5465 -50.5464 -50.5464 -50.5460 -50.5460
   -50.5459 -50.5459 -50.5458 -50.5457 -50.5457 -50.5457 -50.5454 -50.5454
   -50.5452 -50.5452 -50.5429 -50.5429 -50.5426 -50.5422 -50.5420 -50.5420
     1.0859   1.0859   1.0864   1.0865   1.4715   1.4715   1.4724   1.4725
[...]
   -46.9775 -46.9775 -46.9771 -46.9770 -46.9770 -46.9768 -46.9768 -46.9765
   -46.9754 -46.9754 -46.9752 -46.9752 -46.9751 -46.9751 -46.9749 -46.9749
   -46.9748 -46.9746 -46.9741 -46.9740 -46.9740 -46.9737 -46.9737 -46.9736
   -46.9736 -46.9735 -46.9733 -46.9733 -46.9733 -46.9728 -46.9726 -46.9726
     0.5773   1.6087   1.6114   1.6114   2.5235   2.5258   2.5258   3.3311
     3.6882   3.6898   3.6898   3.7289   3.7300   3.7300   4.0209   4.2567
     4.2567   4.2837   4.2837   4.3357   4.3357   4.3365   4.3502   4.3502
     4.3874   4.3882   4.3882   4.4504   4.4521   4.4521   4.4841   4.4841
     4.4849   4.4851   4.4863   4.4863   4.5095   4.5095   4.5111   4.5136
     4.5136   4.5144   4.5433   4.5433   4.6214   4.6222   4.6222   4.8037
     4.8099   5.0328   5.0336   5.0336   5.0384   5.0384   5.0392   5.2019
     5.2019   5.2207   5.2212   5.2212   5.2250   5.2259   5.2259   5.2376
     5.2376   5.2379   5.3226   5.3233   5.3233   5.3392   5.3392   5.3400
     5.3476   5.3479   5.3479   5.3927   5.3927   5.4102   5.4102   5.4496
     5.4496   5.4682   5.4682   5.4684   5.4902   5.4905   5.4905   5.8211
     5.9346   5.9358

          k = 0.1885 0.1885 0.2639 ( 35040 PWs)   bands (ev):

   -80.8469 -80.8468 -80.8468 -80.8468 -80.8468 -80.8468 -80.8462 -80.8462
   -80.8462 -80.8462 -80.8462 -80.8462 -80.8461 -80.8461 -80.8445 -80.8444
   -46.9800 -46.9799 -46.9797 -46.9797 -46.9796 -46.9794 -46.9794 -46.9790
   -46.9790 -46.9789 -46.9788 -46.9787 -46.9786 -46.9781 -46.9780 -46.9779
   -46.9778 -46.9775 -46.9774 -46.9773 -46.9772 -46.9772 -46.9766 -46.9764
   -46.9757 -46.9756 -46.9751 -46.9751 -46.9750 -46.9749 -46.9748 -46.9748
   -46.9747 -46.9744 -46.9741 -46.9740 -46.9739 -46.9738 -46.9737 -46.9737
   -46.9736 -46.9734 -46.9734 -46.9734 -46.9733 -46.9728 -46.9727 -46.9725
     0.7534   1.2729   1.7718   1.7736   2.2369   2.2385   2.6749   3.0900
     3.7512   3.7521   3.7944   3.7951   3.8177   3.9890   4.0079   4.2757
     4.2865   4.2934   4.3178   4.3252   4.3279   4.3532   4.3617   4.3622
     4.3829   4.3883   4.4247   4.4252   4.4429   4.4430   4.4435   4.4509
     4.4514   4.4517   4.4528   4.4560   4.4824   4.4835   4.4841   4.4849
     4.4861   4.5169   4.5190   4.5350   4.5618   4.5624   4.6420   4.7167
     4.8562   4.9725   5.0559   5.0870   5.0875   5.1043   5.1048   5.1470
     5.1791   5.1796   5.2247   5.2308   5.2538   5.2543   5.2545   5.2550
     5.2601   5.2719   5.2721   5.2916   5.3129   5.3134   5.3296   5.3298
     5.3493   5.3518   5.3584   5.3789   5.3795   5.4217   5.4297   5.4449
     5.4566   5.4657   5.4684   5.4686   5.4717   5.4828   5.4830   5.6820
     6.0448   6.0456

          k = 0.1885 0.1885-0.3393 ( 34990 PWs)   bands (ev):

   -80.8468 -80.8468 -80.8468 -80.8468 -80.8468 -80.8468 -80.8462 -80.8462
   -80.8462 -80.8462 -80.8462 -80.8462 -80.8461 -80.8461 -80.8445 -80.8443
   -46.9798 -46.9798 -46.9797 -46.9797 -46.9793 -46.9793 -46.9792 -46.9792
   -46.9789 -46.9789 -46.9785 -46.9785 -46.9784 -46.9784 -46.9781 -46.9781
   -46.9776 -46.9776 -46.9773 -46.9773 -46.9773 -46.9773 -46.9760 -46.9760
   -46.9760 -46.9759 -46.9751 -46.9751 -46.9748 -46.9748 -46.9747 -46.9747
   -46.9743 -46.9743 -46.9740 -46.9740 -46.9739 -46.9739 -46.9737 -46.9737
   -46.9734 -46.9734 -46.9732 -46.9732 -46.9731 -46.9730 -46.9725 -46.9725
     0.9860   0.9861   1.9828   1.9829   1.9845   1.9846   2.8663   2.8664
     3.7961   3.7962   3.7970   3.7970   3.9121   3.9121   4.2232   4.2232
     4.2969   4.2969   4.3188   4.3188   4.3315   4.3315   4.3793   4.3793
     4.3985   4.3985   4.3990   4.3990   4.4201   4.4201   4.4359   4.4360
     4.4366   4.4366   4.4639   4.4639   4.4648   4.4649   4.4971   4.4971
     4.5058   4.5059   4.5066   4.5066   4.5265   4.5265   4.6627   4.6628
     4.9130   4.9130   5.0948   5.0948   5.1342   5.1342   5.1347   5.1347
     5.1788   5.1789   5.1793   5.1793   5.2323   5.2323   5.2843   5.2843
     5.2848   5.2848   5.3039   5.3040   5.3051   5.3052   5.3053   5.3054
     5.3395   5.3395   5.3651   5.3651   5.3897   5.3898   5.4512   5.4513
     5.4619   5.4619   5.4747   5.4748   5.4749   5.4750   5.5592   5.5593
     6.1830   6.1838

          k = 0.1885 0.2639 0.2639 ( 35005 PWs)   bands (ev):

   -80.8468 -80.8468 -80.8468 -80.8468 -80.8468 -80.8468 -80.8462 -80.8462
   -80.8462 -80.8462 -80.8462 -80.8462 -80.8461 -80.8461 -80.8445 -80.8443
   -46.9800 -46.9797 -46.9796 -46.9796 -46.9795 -46.9794 -46.9794 -46.9789
   -46.9789 -46.9788 -46.9787 -46.9786 -46.9783 -46.9782 -46.9781 -46.9780
   -46.9778 -46.9777 -46.9774 -46.9774 -46.9773 -46.9772 -46.9770 -46.9760
   -46.9759 -46.9753 -46.9751 -46.9750 -46.9749 -46.9748 -46.9746 -46.9745
   -46.9744 -46.9744 -46.9741 -46.9739 -46.9739 -46.9738 -46.9738 -46.9737
   -46.9736 -46.9736 -46.9733 -46.9733 -46.9733 -46.9729 -46.9726 -46.9726
     0.9278   1.4398   1.4416   1.9286   1.9335   2.3920   2.3936   2.8292
     3.8174   3.8733   3.8740   3.9507   3.9981   4.0415   4.0422   4.3012
     4.3048   4.3128   4.3434   4.3437   4.3440   4.3526   4.3706   4.3792
     4.3799   4.3819   4.3947   4.3956   4.4139   4.4189   4.4317   4.4322
     4.4337   4.4344   4.4382   4.4494   4.4504   4.4517   4.4589   4.4672
     4.4919   4.4922   4.4925   4.5116   4.5163   4.5731   4.5736   4.6220
     4.9142   5.0397   5.0402   5.0879   5.0884   5.1360   5.1370   5.1456
     5.1800   5.1837   5.2238   5.2241   5.2266   5.2481   5.2488   5.2698
     5.2938   5.3023   5.3166   5.3166   5.3169   5.3201   5.3207   5.3385
     5.3390   5.3423   5.3495   5.3623   5.3626   5.3805   5.4115   5.4249
     5.4479   5.4552   5.4619   5.4621   5.4669   5.4669   5.4774   5.5643
     6.1662   6.4448

          k = 0.1885 0.2639-0.3393 ( 35014 PWs)   bands (ev):

   -80.8468 -80.8468 -80.8468 -80.8468 -80.8468 -80.8468 -80.8462 -80.8462
   -80.8462 -80.8462 -80.8462 -80.8462 -80.8461 -80.8461 -80.8445 -80.8443
   -46.9798 -46.9798 -46.9796 -46.9796 -46.9794 -46.9794 -46.9792 -46.9792
   -46.9789 -46.9788 -46.9784 -46.9784 -46.9783 -46.9783 -46.9780 -46.9780
   -46.9779 -46.9779 -46.9777 -46.9777 -46.9775 -46.9775 -46.9764 -46.9764
   -46.9757 -46.9757 -46.9750 -46.9750 -46.9749 -46.9749 -46.9745 -46.9745
   -46.9743 -46.9743 -46.9740 -46.9740 -46.9739 -46.9739 -46.9738 -46.9738
   -46.9736 -46.9736 -46.9732 -46.9732 -46.9732 -46.9731 -46.9725 -46.9725
     1.1577   1.1578   1.6606   1.6607   2.1422   2.1423   2.5925   2.5926
     3.8681   3.8682   3.9510   3.9511   4.0326   4.0326   4.2470   4.2470
     4.3229   4.3230   4.3386   4.3386   4.3438   4.3439   4.3799   4.3799
     4.3849   4.3849   4.3906   4.3907   4.4027   4.4028   4.4113   4.4113
     4.4122   4.4123   4.4274   4.4275   4.4629   4.4629   4.4669   4.4669
     4.4729   4.4729   4.5033   4.5033   4.5151   4.5151   4.5807   4.5807
     4.9761   4.9761   5.1071   5.1071   5.1113   5.1113   5.1153   5.1153
     5.1823   5.1823   5.2400   5.2400   5.2604   5.2604   5.2715   5.2715
     5.2720   5.2720   5.2926   5.2926   5.3321   5.3321   5.3328   5.3329
     5.3369   5.3370   5.3549   5.3550   5.3829   5.3829   5.4312   5.4312
     5.4409   5.4409   5.4543   5.4543   5.4714   5.4714   5.4793   5.4793
     6.3191   6.3192

          k = 0.1885-0.3393-0.3393 ( 35008 PWs)   bands (ev):

   -80.8468 -80.8468 -80.8468 -80.8468 -80.8468 -80.8468 -80.8462 -80.8462
   -80.8462 -80.8462 -80.8462 -80.8462 -80.8461 -80.8461 -80.8445 -80.8443
   -46.9798 -46.9798 -46.9796 -46.9796 -46.9794 -46.9794 -46.9793 -46.9793
   -46.9787 -46.9787 -46.9784 -46.9784 -46.9782 -46.9782 -46.9780 -46.9780
   -46.9780 -46.9780 -46.9778 -46.9778 -46.9772 -46.9772 -46.9768 -46.9768
   -46.9754 -46.9754 -46.9751 -46.9751 -46.9749 -46.9749 -46.9743 -46.9743
   -46.9742 -46.9742 -46.9740 -46.9740 -46.9740 -46.9740 -46.9738 -46.9738
   -46.9736 -46.9736 -46.9733 -46.9733 -46.9732 -46.9731 -46.9726 -46.9726
     1.3827   1.3829   1.3846   1.3846   2.3466   2.3468   2.3483   2.3483
     3.9296   3.9298   3.9303   3.9303   4.1902   4.1903   4.1908   4.1908
     4.3556   4.3556   4.3565   4.3565   4.3565   4.3566   4.3570   4.3570
     4.3659   4.3659   4.3669   4.3670   4.4039   4.4039   4.4044   4.4045
     4.4181   4.4181   4.4187   4.4187   4.4353   4.4353   4.4363   4.4364
     4.4861   4.4862   4.4865   4.4865   4.5346   4.5346   4.5351   4.5351
     5.0425   5.0426   5.0431   5.0431   5.1071   5.1072   5.1076   5.1076
     5.2297   5.2297   5.2300   5.2301   5.2568   5.2568   5.2575   5.2576
     5.3077   5.3077   5.3082   5.3082   5.3466   5.3467   5.3472   5.3472
     5.3563   5.3563   5.3563   5.3563   5.3616   5.3616   5.3618   5.3619
     5.4403   5.4403   5.4405   5.4406   5.4695   5.4696   5.4696   5.4696
     6.4864   6.4870

          k = 0.2639 0.2639 0.2639 ( 35031 PWs)   bands (ev):

   -80.8468 -80.8468 -80.8468 -80.8468 -80.8468 -80.8468 -80.8462 -80.8462
   -80.8462 -80.8462 -80.8462 -80.8462 -80.8461 -80.8461 -80.8445 -80.8444
   -46.9796 -46.9796 -46.9796 -46.9795 -46.9795 -46.9792 -46.9792 -46.9792
   -46.9787 -46.9787 -46.9785 -46.9785 -46.9784 -46.9784 -46.9782 -46.9781
   -46.9781 -46.9779 -46.9779 -46.9778 -46.9777 -46.9773 -46.9773 -46.9763
   -46.9758 -46.9750 -46.9747 -46.9747 -46.9747 -46.9747 -46.9746 -46.9744
   -46.9744 -46.9742 -46.9741 -46.9741 -46.9740 -46.9738 -46.9737 -46.9737
   -46.9736 -46.9736 -46.9736 -46.9734 -46.9734 -46.9728 -46.9728 -46.9728
     1.1004   1.6053   1.6079   1.6079   2.0873   2.0898   2.0898   2.5474
     4.0149   4.0157   4.0157   4.0674   4.0833   4.0842   4.0842   4.3233
     4.3233   4.3412   4.3412   4.3640   4.3640   4.3648   4.3843   4.3843
     4.4054   4.4069   4.4069   4.4075   4.4075   4.4085   4.4091   4.4100
     4.4100   4.4144   4.4144   4.4158   4.4268   4.4281   4.4281   4.4504
     4.4504   4.4512   4.4792   4.4792   4.4977   4.5047   4.5055   4.5055
     4.9764   5.1109   5.1117   5.1117   5.1362   5.1362   5.1370   5.1868
     5.1868   5.1974   5.1981   5.1981   5.2473   5.2481   5.2481   5.2662
     5.2669   5.2669   5.2893   5.2893   5.2900   5.3019   5.3019   5.3409
     5.3409   5.3411   5.3688   5.3691   5.3691   5.4033   5.4033   5.4263
     5.4263   5.4481   5.4481   5.4482   5.4530   5.4533   5.4533   5.4553
     6.5940   6.5951

          k = 0.2639 0.2639-0.3393 ( 35006 PWs)   bands (ev):

   -80.8468 -80.8468 -80.8468 -80.8468 -80.8468 -80.8468 -80.8462 -80.8462
   -80.8462 -80.8462 -80.8462 -80.8462 -80.8461 -80.8461 -80.8445 -80.8443
   -46.9795 -46.9795 -46.9795 -46.9795 -46.9792 -46.9792 -46.9791 -46.9791
   -46.9787 -46.9787 -46.9786 -46.9786 -46.9784 -46.9784 -46.9782 -46.9782
   -46.9781 -46.9781 -46.9779 -46.9779 -46.9777 -46.9777 -46.9769 -46.9769
   -46.9753 -46.9753 -46.9747 -46.9747 -46.9745 -46.9745 -46.9745 -46.9745
   -46.9743 -46.9743 -46.9740 -46.9740 -46.9739 -46.9739 -46.9737 -46.9737
   -46.9736 -46.9736 -46.9734 -46.9734 -46.9731 -46.9731 -46.9727 -46.9727
     1.3278   1.3279   1.8237   1.8238   1.8255   1.8255   2.2973   2.2973
     4.0670   4.0671   4.0860   4.0861   4.0866   4.0866   4.2852   4.2853
     4.3441   4.3441   4.3594   4.3595   4.3611   4.3611   4.3763   4.3764
     4.3944   4.3944   4.3950   4.3950   4.3964   4.3965   4.3969   4.3970
     4.3978   4.3979   4.4237   4.4237   4.4246   4.4246   4.4485   4.4485
     4.4510   4.4511   4.4517   4.4517   4.4649   4.4649   4.4783   4.4784
     5.0427   5.0428   5.1543   5.1544   5.1707   5.1708   5.1713   5.1713
     5.1876   5.1876   5.1881   5.1881   5.2221   5.2222   5.2509   5.2510
     5.2629   5.2629   5.2634   5.2634   5.2924   5.2924   5.3567   5.3568
     5.3621   5.3622   5.3623   5.3624   5.3752   5.3752   5.3994   5.3995
     5.4285   5.4286   5.4386   5.4386   5.4458   5.4458   5.4460   5.4460
     6.7845   6.7854

          k = 0.2639-0.3393-0.3393 ( 35000 PWs)   bands (ev):

   -80.8468 -80.8468 -80.8468 -80.8468 -80.8468 -80.8468 -80.8462 -80.8462
   -80.8462 -80.8462 -80.8462 -80.8462 -80.8462 -80.8462 -80.8445 -80.8443
   -46.9795 -46.9795 -46.9793 -46.9793 -46.9792 -46.9792 -46.9790 -46.9790
   -46.9786 -46.9786 -46.9786 -46.9786 -46.9785 -46.9785 -46.9783 -46.9783
   -46.9783 -46.9783 -46.9781 -46.9781 -46.9775 -46.9775 -46.9772 -46.9772
   -46.9750 -46.9750 -46.9747 -46.9747 -46.9743 -46.9743 -46.9743 -46.9743
   -46.9742 -46.9742 -46.9740 -46.9740 -46.9739 -46.9739 -46.9737 -46.9737
   -46.9736 -46.9735 -46.9734 -46.9734 -46.9731 -46.9731 -46.9728 -46.9728
     1.5503   1.5505   1.5522   1.5522   2.0376   2.0378   2.0394   2.0394
     4.1117   4.1118   4.1122   4.1122   4.2398   4.2399   4.2402   4.2402
     4.3681   4.3681   4.3689   4.3690   4.3725   4.3726   4.3730   4.3730
     4.3827   4.3827   4.3837   4.3838   4.3942   4.3942   4.3948   4.3949
     4.4022   4.4023   4.4029   4.4029   4.4195   4.4195   4.4205   4.4206
     4.4364   4.4365   4.4371   4.4371   4.4409   4.4409   4.4413   4.4413
     5.1140   5.1141   5.1145   5.1145   5.1681   5.1681   5.1686   5.1686
     5.2195   5.2195   5.2199   5.2200   5.2344   5.2344   5.2350   5.2351
     5.2665   5.2666   5.2671   5.2671   5.2705   5.2706   5.2710   5.2710
     5.3815   5.3815   5.3815   5.3815   5.3872   5.3872   5.3874   5.3875
     5.4269   5.4269   5.4272   5.4273   5.4371   5.4372   5.4372   5.4372
     6.9647   6.9655

          k =-0.3393-0.3393-0.3393 ( 35016 PWs)   bands (ev):

   -80.8468 -80.8468 -80.8468 -80.8467 -80.8467 -80.8467 -80.8462 -80.8462
   -80.8462 -80.8462 -80.8462 -80.8462 -80.8462 -80.8462 -80.8445 -80.8444
   -46.9793 -46.9793 -46.9793 -46.9793 -46.9791 -46.9791 -46.9791 -46.9791
   -46.9791 -46.9791 -46.9788 -46.9788 -46.9788 -46.9788 -46.9788 -46.9788
   -46.9782 -46.9782 -46.9776 -46.9776 -46.9776 -46.9776 -46.9776 -46.9776
   -46.9749 -46.9749 -46.9744 -46.9744 -46.9744 -46.9744 -46.9744 -46.9744
   -46.9738 -46.9738 -46.9738 -46.9738 -46.9737 -46.9737 -46.9737 -46.9737
   -46.9737 -46.9737 -46.9731 -46.9731 -46.9731 -46.9730 -46.9730 -46.9730
     1.7682   1.7685   1.7718   1.7718   1.7718   1.7719   1.7719   1.7719
     4.2319   4.2320   4.2324   4.2324   4.2324   4.2325   4.2325   4.2325
     4.3813   4.3813   4.3813   4.3813   4.3813   4.3813   4.3820   4.3820
     4.3821   4.3821   4.3828   4.3828   4.3828   4.3828   4.3828   4.3828
     4.4009   4.4009   4.4009   4.4009   4.4009   4.4009   4.4023   4.4023
     4.4024   4.4024   4.4024   4.4024   4.4024   4.4024   4.4024   4.4024
     5.1904   5.1905   5.1914   5.1914   5.1914   5.1914   5.1914   5.1914
     5.2207   5.2207   5.2207   5.2207   5.2207   5.2207   5.2212   5.2212
     5.2213   5.2213   5.2217   5.2217   5.2217   5.2217   5.2217   5.2217
     5.4092   5.4092   5.4092   5.4092   5.4092   5.4092   5.4095   5.4095
     5.4095   5.4095   5.4095   5.4095   5.4095   5.4095   5.4096   5.4096
     7.3151   7.3165

     the Fermi energy is     4.6591 ev

!    total energy              =   -5264.93889819 Ry

     total all-electron energy =    -40725.683427 Ry
     estimated scf accuracy    <       0.00000003 Ry
     smearing contrib. (-TS)   =      -0.14614141 Ry
     internal energy E=F+TS    =   -5264.79275679 Ry

     The total energy is F=E-TS. E is the sum of the following terms:
     one-electron contribution =   -3118.18788239 Ry
     hartree contribution      =    1587.95590836 Ry
     xc contribution           =    -440.23555078 Ry
     ewald contribution        =   -1969.99681483 Ry
     one-center paw contrib.   =   -1324.32841714 Ry

     total magnetization       =    51.26 Bohr mag/cell
     absolute magnetization    =    55.13 Bohr mag/cell

     convergence has been achieved in  48 iterations

     negative rho (up, down):  0.000E+00 6.148E-03

     Forces acting on atoms (cartesian axes, Ry/au):

     atom    1 type  1   force =     0.00000000    0.00000000    0.00000000
     atom    2 type  2   force =    -0.00002756   -0.00002756   -0.00002756
     atom    3 type  1   force =     0.00000000    0.00000000    0.00000000
     atom    4 type  2   force =    -0.00002756   -0.00002756    0.00002756
     atom    5 type  1   force =     0.00000000    0.00000000    0.00000000
     atom    6 type  2   force =    -0.00002756    0.00002756   -0.00002756
     atom    7 type  1   force =     0.00000000    0.00000000    0.00000000
     atom    8 type  2   force =    -0.00002756    0.00002756    0.00002756
     atom    9 type  1   force =     0.00000000    0.00000000    0.00000000
     atom   10 type  2   force =     0.00002756   -0.00002756   -0.00002756
     atom   11 type  1   force =     0.00000000    0.00000000    0.00000000
     atom   12 type  2   force =     0.00002756   -0.00002756    0.00002756
     atom   13 type  1   force =     0.00000000    0.00000000    0.00000000
     atom   14 type  2   force =     0.00002756    0.00002756   -0.00002756
     atom   15 type  1   force =     0.00000000    0.00000000    0.00000000
     atom   16 type  2   force =     0.00002756    0.00002756    0.00002756

     Total force =     0.000135     Total SCF correction =     0.000343
     SCF correction compared to forces is large: reduce conv_thr to get better values


     Computing stress (Cartesian axis) and pressure


     negative rho (up, down):  0.000E+00 6.148E-03
          total   stress  (Ry/bohr**3)                   (kbar)     P=     -175.09
  -0.00119023   0.00000000   0.00000000         -175.09        0.00        0.00
   0.00000000  -0.00119023   0.00000000            0.00     -175.09        0.00
   0.00000000   0.00000000  -0.00119023            0.00        0.00     -175.09


     Writing output data file /scratch/sgRwWoFkvddguqNZ.save/
 
     init_run     :      9.88s CPU     10.23s WALL (       1 calls)
     electrons    :   1352.45s CPU   1370.95s WALL (       1 calls)
     forces       :      3.03s CPU      3.08s WALL (       1 calls)
     stress       :     15.02s CPU     15.14s WALL (       1 calls)

     Called by init_run:
     wfcinit      :      8.91s CPU      9.17s WALL (       1 calls)
     potinit      :      0.20s CPU      0.23s WALL (       1 calls)
     hinit0       :      0.52s CPU      0.52s WALL (       1 calls)

     Called by electrons:
     c_bands      :   1167.00s CPU   1180.21s WALL (      48 calls)
     sum_band     :    174.40s CPU    178.05s WALL (      48 calls)
     v_of_rho     :      1.47s CPU      1.57s WALL (      49 calls)
     newd         :      2.44s CPU      3.22s WALL (      49 calls)
     PAW_pot      :      5.63s CPU      6.29s WALL (      49 calls)
     mix_rho      :      1.38s CPU      1.50s WALL (      48 calls)

     Called by c_bands:
     init_us_2    :      7.49s CPU      7.71s WALL (    6930 calls)
     cegterg      :   1138.75s CPU   1151.17s WALL (    3360 calls)

     Called by *egterg:
     cdiaghg      :    132.61s CPU    133.28s WALL (   14176 calls)
     h_psi        :    728.94s CPU    738.78s WALL (   14246 calls)
     s_psi        :     32.50s CPU     32.77s WALL (   14246 calls)
     g_psi        :      1.61s CPU      1.63s WALL (   10816 calls)

     Called by h_psi:
     h_psi:calbec :     60.02s CPU     60.52s WALL (   14246 calls)
     vloc_psi     :    630.14s CPU    639.12s WALL (   14246 calls)
     add_vuspsi   :     34.90s CPU     35.24s WALL (   14246 calls)

     General routines
     calbec       :     87.52s CPU     88.24s WALL (   17956 calls)
     fft          :      1.30s CPU      1.33s WALL (    1263 calls)
     ffts         :      0.74s CPU      0.76s WALL (    1397 calls)
     fftw         :    739.55s CPU    749.99s WALL ( 3009396 calls)
     interpolate  :      0.16s CPU      0.16s WALL (      98 calls)
 
     Parallel routines
     fft_scatt_xy :     57.45s CPU     58.28s WALL ( 3012056 calls)
     fft_scatt_yz :    510.22s CPU    517.51s WALL ( 3012056 calls)
 
     PWSCF        :  23m10.28s CPU  23m31.33s WALL

 
   This run was terminated on:  15:19:40  17Jan2022            

=------------------------------------------------------------------------------=
   JOB DONE.
=------------------------------------------------------------------------------=
