
     Program PWSCF v.6.7MaX starts on 20Mar2022 at 16: 5:47 

     This program is part of the open-source Quantum ESPRESSO suite
     for quantum simulation of materials; please cite
         "P. Giannozzi et al., J. Phys.:Condens. Matter 21 395502 (2009);
         "P. Giannozzi et al., J. Phys.:Condens. Matter 29 465901 (2017);
          URL http://www.quantum-espresso.org", 
     in publications or presentations arising from this work. More details at
     http://www.quantum-espresso.org/quote

     Parallel version (MPI & OpenMP), running on      72 processor cores
     Number of MPI processes:                72
     Threads/MPI process:                     1

     MPI processes distributed on     1 nodes
     R & G space division:  proc/nbgrp/npool/nimage =      72
     Reading input from bcc_20.in
Warning: card &CELL ignored
Warning: card CELL_DYNAMICS = 'BFGS', ignored
Warning: card CELL_FACTOR = 2.0, ignored
Warning: card PRESS = 0.0, ignored
Warning: card / ignored

     Current dimensions of program PWSCF are:
     Max number of different atomic species (ntypx) = 10
     Max number of k-points (npk) =  40000
     Max angular momentum in pseudopotentials (lmaxx) =  3
     file Fe.pbe-spn-kjpaw_psl.1.0.0.UPF: wavefunction(s)  3P 3D renormalized
     file Fe.pbe-spn-kjpaw_psl.1.0.0.UPF: wavefunction(s)  3P 3D renormalized

     Subspace diagonalization in iterative solution of the eigenvalue problem:
     one sub-group per band group will be used
     ELPA distributed-memory algorithm (size of sub-group:  8*  8 procs)

     Found symmetry operation: I + (  0.0000  0.0000 -0.5000)
     This is a supercell, fractional translations are disabled
     Message from routine setup:
     using ibrav=0 with symmetry is DISCOURAGED, use correct ibrav instead
 
     Parallelization info
     --------------------
     sticks:   dense  smooth     PW     G-vecs:    dense   smooth      PW
     Min         200     132     35                18116     9722    1333
     Max         201     133     36                18121     9727    1338
     Sum       14433    9541   2537              1304503   700155   96105
 


     bravais-lattice index     =            0
     lattice parameter (alat)  =      10.2690  a.u.
     unit-cell volume          =    8663.2271 (a.u.)^3
     number of atoms/cell      =           16
     number of atomic types    =            2
     number of electrons       =       256.00
     number of Kohn-Sham states=          154
     kinetic-energy cutoff     =      71.0000  Ry
     charge density cutoff     =     430.0000  Ry
     scf convergence threshold =      1.0E-07
     mixing beta               =       0.3000
     number of iterations used =           10  plain     mixing
     Exchange-correlation= SLA  PW   PBX  PBC
                           (   1   4   3   4   0   0   0)

     celldm(1)=  10.269041  celldm(2)=   0.000000  celldm(3)=   0.000000
     celldm(4)=   0.000000  celldm(5)=   0.000000  celldm(6)=   0.000000

     crystal axes: (cart. coord. in units of alat)
               a(1) = (   2.000000   0.000000   0.000000 )  
               a(2) = (   0.000000   2.000000   0.000000 )  
               a(3) = (   0.000000   0.000000   2.000000 )  

     reciprocal axes: (cart. coord. in units 2 pi/alat)
               b(1) = (  0.500000  0.000000  0.000000 )  
               b(2) = (  0.000000  0.500000  0.000000 )  
               b(3) = (  0.000000  0.000000  0.500000 )  


     PseudoPot. # 1 for Fe read from file:
     /rds/homes/b/bxp912/pp/Fe.pbe-spn-kjpaw_psl.1.0.0.UPF
     MD5 check sum: 42f43b795421b414b0dc916aa790dbcb
     Pseudo is Projector augmented-wave + core cor, Zval = 16.0
     Generated using &quot;atomic&quot; code by A. Dal Corso  v.6.3
     Shape of augmentation charge: PSQ
     Using radial grid of 1191 points,  6 beta functions with: 
                l(1) =   0
                l(2) =   0
                l(3) =   1
                l(4) =   1
                l(5) =   2
                l(6) =   2
     Q(r) pseudized with 0 coefficients 


     PseudoPot. # 2 for Fe read from file:
     /rds/homes/b/bxp912/pp/Fe.pbe-spn-kjpaw_psl.1.0.0.UPF
     MD5 check sum: 42f43b795421b414b0dc916aa790dbcb
     Pseudo is Projector augmented-wave + core cor, Zval = 16.0
     Generated using &quot;atomic&quot; code by A. Dal Corso  v.6.3
     Shape of augmentation charge: PSQ
     Using radial grid of 1191 points,  6 beta functions with: 
                l(1) =   0
                l(2) =   0
                l(3) =   1
                l(4) =   1
                l(5) =   2
                l(6) =   2
     Q(r) pseudized with 0 coefficients 


     atomic species   valence    mass     pseudopotential
        Fe1           16.00    55.84500     Fe( 1.00)
        Fe2           16.00    55.84500     Fe( 1.00)

     Starting magnetic structure 
     atomic species   magnetization
        Fe1          0.100
        Fe2          0.100

     48 Sym. Ops., with inversion, found



   Cartesian axes

     site n.     atom                  positions (alat units)
         1           Fe1 tau(   1) = (   0.0000000   0.0000000   0.0000000  )
         2           Fe2 tau(   2) = (   0.5000000   0.5000000   0.5000000  )
         3           Fe1 tau(   3) = (   0.0000000   0.0000000   1.0000000  )
         4           Fe2 tau(   4) = (   0.5000000   0.5000000   1.5000000  )
         5           Fe1 tau(   5) = (   0.0000000   1.0000000   0.0000000  )
         6           Fe2 tau(   6) = (   0.5000000   1.5000000   0.5000000  )
         7           Fe1 tau(   7) = (   0.0000000   1.0000000   1.0000000  )
         8           Fe2 tau(   8) = (   0.5000000   1.5000000   1.5000000  )
         9           Fe1 tau(   9) = (   1.0000000   0.0000000   0.0000000  )
        10           Fe2 tau(  10) = (   1.5000000   0.5000000   0.5000000  )
        11           Fe1 tau(  11) = (   1.0000000   0.0000000   1.0000000  )
        12           Fe2 tau(  12) = (   1.5000000   0.5000000   1.5000000  )
        13           Fe1 tau(  13) = (   1.0000000   1.0000000   0.0000000  )
        14           Fe2 tau(  14) = (   1.5000000   1.5000000   0.5000000  )
        15           Fe1 tau(  15) = (   1.0000000   1.0000000   1.0000000  )
        16           Fe2 tau(  16) = (   1.5000000   1.5000000   1.5000000  )

     number of k points=    35  Marzari-Vanderbilt smearing, width (Ry)=  0.0400
                       cart. coord. in units 2pi/alat
        k(    1) = (   0.0277778   0.0277778   0.0277778), wk =   0.0109739
        k(    2) = (   0.0277778   0.0277778   0.0833333), wk =   0.0329218
        k(    3) = (   0.0277778   0.0277778   0.1388889), wk =   0.0329218
        k(    4) = (   0.0277778   0.0277778   0.1944444), wk =   0.0329218
        k(    5) = (   0.0277778   0.0277778  -0.2500000), wk =   0.0164609
        k(    6) = (   0.0277778   0.0833333   0.0833333), wk =   0.0329218
        k(    7) = (   0.0277778   0.0833333   0.1388889), wk =   0.0658436
        k(    8) = (   0.0277778   0.0833333   0.1944444), wk =   0.0658436
        k(    9) = (   0.0277778   0.0833333  -0.2500000), wk =   0.0329218
        k(   10) = (   0.0277778   0.1388889   0.1388889), wk =   0.0329218
        k(   11) = (   0.0277778   0.1388889   0.1944444), wk =   0.0658436
        k(   12) = (   0.0277778   0.1388889  -0.2500000), wk =   0.0329218
        k(   13) = (   0.0277778   0.1944444   0.1944444), wk =   0.0329218
        k(   14) = (   0.0277778   0.1944444  -0.2500000), wk =   0.0329218
        k(   15) = (   0.0277778  -0.2500000  -0.2500000), wk =   0.0082305
        k(   16) = (   0.0833333   0.0833333   0.0833333), wk =   0.0109739
        k(   17) = (   0.0833333   0.0833333   0.1388889), wk =   0.0329218
        k(   18) = (   0.0833333   0.0833333   0.1944444), wk =   0.0329218
        k(   19) = (   0.0833333   0.0833333  -0.2500000), wk =   0.0164609
        k(   20) = (   0.0833333   0.1388889   0.1388889), wk =   0.0329218
        k(   21) = (   0.0833333   0.1388889   0.1944444), wk =   0.0658436
        k(   22) = (   0.0833333   0.1388889  -0.2500000), wk =   0.0329218
        k(   23) = (   0.0833333   0.1944444   0.1944444), wk =   0.0329218
        k(   24) = (   0.0833333   0.1944444  -0.2500000), wk =   0.0329218
        k(   25) = (   0.0833333  -0.2500000  -0.2500000), wk =   0.0082305
        k(   26) = (   0.1388889   0.1388889   0.1388889), wk =   0.0109739
        k(   27) = (   0.1388889   0.1388889   0.1944444), wk =   0.0329218
        k(   28) = (   0.1388889   0.1388889  -0.2500000), wk =   0.0164609
        k(   29) = (   0.1388889   0.1944444   0.1944444), wk =   0.0329218
        k(   30) = (   0.1388889   0.1944444  -0.2500000), wk =   0.0329218
        k(   31) = (   0.1388889  -0.2500000  -0.2500000), wk =   0.0082305
        k(   32) = (   0.1944444   0.1944444   0.1944444), wk =   0.0109739
        k(   33) = (   0.1944444   0.1944444  -0.2500000), wk =   0.0164609
        k(   34) = (   0.1944444  -0.2500000  -0.2500000), wk =   0.0082305
        k(   35) = (  -0.2500000  -0.2500000  -0.2500000), wk =   0.0013717

     Dense  grid:  1304503 G-vectors     FFT dimensions: ( 135, 135, 135)

     Smooth grid:   700155 G-vectors     FFT dimensions: ( 120, 120, 120)

     Estimated max dynamical RAM per process >     288.89 MB

     Estimated total dynamical RAM >      20.31 GB

     Check: negative core charge=   -0.000002
     Generating pointlists ...
     new r_m :   0.3572 (alat units)  3.6685 (a.u.) for type    1
     new r_m :   0.3572 (alat units)  3.6685 (a.u.) for type    2

     Initial potential from superposition of free atoms

     starting charge  255.99300, renormalised to  256.00000
     Starting wfcs are  160 randomized atomic wfcs
     Checking if some PAW data can be deallocated... 

     total cpu time spent up to now is       19.1 secs

     Self-consistent Calculation

     iteration #  1     ecut=    71.00 Ry     beta= 0.30
     Davidson diagonalization with overlap
     ethr =  1.00E-02,  avg # of iterations =  2.0

     total cpu time spent up to now is       65.9 secs

     total energy              =   -5254.04105619 Ry
     estimated scf accuracy    <      21.77115879 Ry

     total magnetization       =    33.84 Bohr mag/cell
     absolute magnetization    =    33.84 Bohr mag/cell

     iteration #  2     ecut=    71.00 Ry     beta= 0.30
     Davidson diagonalization with overlap
     ethr =  8.50E-03,  avg # of iterations =  6.5

     total cpu time spent up to now is      131.5 secs

     total energy              =   -5261.83567798 Ry
     estimated scf accuracy    <      16.55103709 Ry

     total magnetization       =    62.47 Bohr mag/cell
     absolute magnetization    =    67.87 Bohr mag/cell

     iteration #  3     ecut=    71.00 Ry     beta= 0.30
     Davidson diagonalization with overlap
     ethr =  6.47E-03,  avg # of iterations =  1.8

     total cpu time spent up to now is      174.0 secs

     total energy              =   -5261.64986912 Ry
     estimated scf accuracy    <      18.24034644 Ry

     total magnetization       =    47.24 Bohr mag/cell
     absolute magnetization    =    51.06 Bohr mag/cell

     iteration #  4     ecut=    71.00 Ry     beta= 0.30
     Davidson diagonalization with overlap
     ethr =  6.47E-03,  avg # of iterations =  1.5

     total cpu time spent up to now is      215.4 secs

     total energy              =   -5261.41333431 Ry
     estimated scf accuracy    <      14.96833827 Ry

     total magnetization       =    52.56 Bohr mag/cell
     absolute magnetization    =    55.94 Bohr mag/cell

     iteration #  5     ecut=    71.00 Ry     beta= 0.30
     Davidson diagonalization with overlap
     ethr =  5.85E-03,  avg # of iterations =  2.1

     total cpu time spent up to now is      258.5 secs

     total energy              =   -5261.51255924 Ry
     estimated scf accuracy    <      35.93292706 Ry

     total magnetization       =    52.93 Bohr mag/cell
     absolute magnetization    =    54.76 Bohr mag/cell

     iteration #  6     ecut=    71.00 Ry     beta= 0.30
     Davidson diagonalization with overlap
     ethr =  5.85E-03,  avg # of iterations =  1.4

     total cpu time spent up to now is      299.1 secs

     total energy              =   -5262.21954123 Ry
     estimated scf accuracy    <      12.25974720 Ry

     total magnetization       =    48.28 Bohr mag/cell
     absolute magnetization    =    48.32 Bohr mag/cell

     iteration #  7     ecut=    71.00 Ry     beta= 0.30
     Davidson diagonalization with overlap
     ethr =  4.79E-03,  avg # of iterations =  1.2

     negative rho (up, down):  0.000E+00 1.999E-04

     total cpu time spent up to now is      338.8 secs

     total energy              =   -5262.62156153 Ry
     estimated scf accuracy    <       6.03521810 Ry

     total magnetization       =    47.12 Bohr mag/cell
     absolute magnetization    =    47.13 Bohr mag/cell

     iteration #  8     ecut=    71.00 Ry     beta= 0.30
     Davidson diagonalization with overlap
     ethr =  2.36E-03,  avg # of iterations =  1.4

     negative rho (up, down):  0.000E+00 2.034E-04

     total cpu time spent up to now is      378.1 secs

     total energy              =   -5262.67980247 Ry
     estimated scf accuracy    <       5.18887536 Ry

     total magnetization       =    49.45 Bohr mag/cell
     absolute magnetization    =    49.45 Bohr mag/cell

     iteration #  9     ecut=    71.00 Ry     beta= 0.30
     Davidson diagonalization with overlap
     ethr =  2.03E-03,  avg # of iterations =  1.3

     negative rho (up, down):  0.000E+00 3.632E-04

     total cpu time spent up to now is      417.3 secs

     total energy              =   -5262.22334653 Ry
     estimated scf accuracy    <       4.93661067 Ry

     total magnetization       =    49.55 Bohr mag/cell
     absolute magnetization    =    49.56 Bohr mag/cell

     iteration # 10     ecut=    71.00 Ry     beta= 0.30
     Davidson diagonalization with overlap
     ethr =  1.93E-03,  avg # of iterations =  1.0

     negative rho (up, down):  0.000E+00 1.736E-03

     total cpu time spent up to now is      455.7 secs

     total energy              =   -5262.39737108 Ry
     estimated scf accuracy    <       0.73399020 Ry

     total magnetization       =    52.79 Bohr mag/cell
     absolute magnetization    =    53.81 Bohr mag/cell

     iteration # 11     ecut=    71.00 Ry     beta= 0.30
     Davidson diagonalization with overlap
     ethr =  2.87E-04,  avg # of iterations =  1.7

     negative rho (up, down):  0.000E+00 1.740E-03

     total cpu time spent up to now is      499.2 secs

     total energy              =   -5262.44159343 Ry
     estimated scf accuracy    <       0.06420106 Ry

     total magnetization       =    52.48 Bohr mag/cell
     absolute magnetization    =    54.90 Bohr mag/cell

     iteration # 12     ecut=    71.00 Ry     beta= 0.30
     Davidson diagonalization with overlap
     c_bands:  1 eigenvalues not converged
     c_bands:  1 eigenvalues not converged
     ethr =  2.51E-05,  avg # of iterations =  9.0

     negative rho (up, down):  0.000E+00 1.621E-03

     total cpu time spent up to now is      573.5 secs

     total energy              =   -5262.55306089 Ry
     estimated scf accuracy    <       0.07588910 Ry

     total magnetization       =    52.22 Bohr mag/cell
     absolute magnetization    =    56.11 Bohr mag/cell

     iteration # 13     ecut=    71.00 Ry     beta= 0.30
     Davidson diagonalization with overlap
     ethr =  2.51E-05,  avg # of iterations =  2.4

     negative rho (up, down):  0.000E+00 2.229E-03

     total cpu time spent up to now is      617.9 secs

     total energy              =   -5262.56081945 Ry
     estimated scf accuracy    <       0.03749515 Ry

     total magnetization       =    52.41 Bohr mag/cell
     absolute magnetization    =    55.70 Bohr mag/cell

     iteration # 14     ecut=    71.00 Ry     beta= 0.30
     Davidson diagonalization with overlap
     ethr =  1.46E-05,  avg # of iterations =  2.1

     negative rho (up, down):  0.000E+00 1.978E-03

     total cpu time spent up to now is      661.3 secs

     total energy              =   -5262.56797507 Ry
     estimated scf accuracy    <       0.01309131 Ry

     total magnetization       =    52.41 Bohr mag/cell
     absolute magnetization    =    56.00 Bohr mag/cell

     iteration # 15     ecut=    71.00 Ry     beta= 0.30
     Davidson diagonalization with overlap
     c_bands:  5 eigenvalues not converged
     c_bands:  3 eigenvalues not converged
     c_bands:  1 eigenvalues not converged
     c_bands:  1 eigenvalues not converged
     ethr =  5.11E-06,  avg # of iterations =  5.3

     negative rho (up, down):  0.000E+00 1.975E-03

     total cpu time spent up to now is      714.3 secs

     total energy              =   -5262.57530247 Ry
     estimated scf accuracy    <       0.00669534 Ry

     total magnetization       =    52.37 Bohr mag/cell
     absolute magnetization    =    56.02 Bohr mag/cell

     iteration # 16     ecut=    71.00 Ry     beta= 0.30
     Davidson diagonalization with overlap
     c_bands:  2 eigenvalues not converged
     c_bands:  1 eigenvalues not converged
     c_bands:  5 eigenvalues not converged
     c_bands:  1 eigenvalues not converged
     c_bands:  3 eigenvalues not converged
     c_bands:  1 eigenvalues not converged
     c_bands:  1 eigenvalues not converged
     c_bands:  5 eigenvalues not converged
     ethr =  2.62E-06,  avg # of iterations =  6.0

     negative rho (up, down):  0.000E+00 1.904E-03

     total cpu time spent up to now is      766.3 secs

     total energy              =   -5262.57681622 Ry
     estimated scf accuracy    <       0.00647988 Ry

     total magnetization       =    52.36 Bohr mag/cell
     absolute magnetization    =    56.04 Bohr mag/cell

     iteration # 17     ecut=    71.00 Ry     beta= 0.30
     Davidson diagonalization with overlap
     c_bands:  1 eigenvalues not converged
     c_bands:  1 eigenvalues not converged
     ethr =  2.53E-06,  avg # of iterations =  2.3

     negative rho (up, down):  0.000E+00 1.959E-03

     total cpu time spent up to now is      806.4 secs

     total energy              =   -5262.57688837 Ry
     estimated scf accuracy    <       0.01033141 Ry

     total magnetization       =    52.36 Bohr mag/cell
     absolute magnetization    =    56.04 Bohr mag/cell

     iteration # 18     ecut=    71.00 Ry     beta= 0.30
     Davidson diagonalization with overlap
     ethr =  2.53E-06,  avg # of iterations =  1.1

     negative rho (up, down):  0.000E+00 2.050E-03

     total cpu time spent up to now is      846.3 secs

     total energy              =   -5262.57628247 Ry
     estimated scf accuracy    <       0.00945788 Ry

     total magnetization       =    52.36 Bohr mag/cell
     absolute magnetization    =    56.06 Bohr mag/cell

     iteration # 19     ecut=    71.00 Ry     beta= 0.30
     Davidson diagonalization with overlap
     ethr =  2.53E-06,  avg # of iterations =  1.2

     negative rho (up, down):  0.000E+00 2.041E-03

     total cpu time spent up to now is      885.0 secs

     total energy              =   -5262.57819770 Ry
     estimated scf accuracy    <       0.00835367 Ry

     total magnetization       =    52.34 Bohr mag/cell
     absolute magnetization    =    56.09 Bohr mag/cell

     iteration # 20     ecut=    71.00 Ry     beta= 0.30
     Davidson diagonalization with overlap
     ethr =  2.53E-06,  avg # of iterations =  1.0

     negative rho (up, down):  0.000E+00 2.211E-03

     total cpu time spent up to now is      923.4 secs

     total energy              =   -5262.57791357 Ry
     estimated scf accuracy    <       0.00907477 Ry

     total magnetization       =    52.34 Bohr mag/cell
     absolute magnetization    =    56.10 Bohr mag/cell

     iteration # 21     ecut=    71.00 Ry     beta= 0.30
     Davidson diagonalization with overlap
     c_bands:  3 eigenvalues not converged
     c_bands:  1 eigenvalues not converged
     c_bands:  2 eigenvalues not converged
     ethr =  2.53E-06,  avg # of iterations =  5.2

     negative rho (up, down):  0.000E+00 2.172E-03

     total cpu time spent up to now is      973.9 secs

     total energy              =   -5262.57695998 Ry
     estimated scf accuracy    <       0.01355961 Ry

     total magnetization       =    52.33 Bohr mag/cell
     absolute magnetization    =    56.24 Bohr mag/cell

     iteration # 22     ecut=    71.00 Ry     beta= 0.30
     Davidson diagonalization with overlap
     c_bands:  5 eigenvalues not converged
     ethr =  2.53E-06,  avg # of iterations =  3.4

     negative rho (up, down):  0.000E+00 2.073E-03

     total cpu time spent up to now is     1020.1 secs

     total energy              =   -5262.57754064 Ry
     estimated scf accuracy    <       0.01065288 Ry

     total magnetization       =    52.38 Bohr mag/cell
     absolute magnetization    =    56.15 Bohr mag/cell

     iteration # 23     ecut=    71.00 Ry     beta= 0.30
     Davidson diagonalization with overlap
     ethr =  2.53E-06,  avg # of iterations =  1.1

     negative rho (up, down):  0.000E+00 2.027E-03

     total cpu time spent up to now is     1059.2 secs

     total energy              =   -5262.57662447 Ry
     estimated scf accuracy    <       0.00838686 Ry

     total magnetization       =    52.38 Bohr mag/cell
     absolute magnetization    =    56.15 Bohr mag/cell

     iteration # 24     ecut=    71.00 Ry     beta= 0.30
     Davidson diagonalization with overlap
     c_bands:  1 eigenvalues not converged
     c_bands:  1 eigenvalues not converged
     ethr =  2.53E-06,  avg # of iterations =  4.7

     negative rho (up, down):  0.000E+00 1.968E-03

     total cpu time spent up to now is     1108.0 secs

     total energy              =   -5262.57758719 Ry
     estimated scf accuracy    <       0.01107867 Ry

     total magnetization       =    52.40 Bohr mag/cell
     absolute magnetization    =    56.02 Bohr mag/cell

     iteration # 25     ecut=    71.00 Ry     beta= 0.30
     Davidson diagonalization with overlap
     ethr =  2.53E-06,  avg # of iterations =  1.1

     negative rho (up, down):  0.000E+00 2.018E-03

     total cpu time spent up to now is     1146.6 secs

     total energy              =   -5262.57688181 Ry
     estimated scf accuracy    <       0.00528451 Ry

     total magnetization       =    52.41 Bohr mag/cell
     absolute magnetization    =    56.01 Bohr mag/cell

     iteration # 26     ecut=    71.00 Ry     beta= 0.30
     Davidson diagonalization with overlap
     ethr =  2.06E-06,  avg # of iterations =  1.1

     negative rho (up, down):  0.000E+00 1.995E-03

     total cpu time spent up to now is     1185.4 secs

     total energy              =   -5262.57737059 Ry
     estimated scf accuracy    <       0.00353655 Ry

     total magnetization       =    52.39 Bohr mag/cell
     absolute magnetization    =    56.07 Bohr mag/cell

     iteration # 27     ecut=    71.00 Ry     beta= 0.30
     Davidson diagonalization with overlap
     c_bands:  2 eigenvalues not converged
     c_bands:  3 eigenvalues not converged
     ethr =  1.38E-06,  avg # of iterations =  3.0

     negative rho (up, down):  0.000E+00 1.986E-03

     total cpu time spent up to now is     1231.9 secs

     total energy              =   -5262.57778588 Ry
     estimated scf accuracy    <       0.00176844 Ry

     total magnetization       =    52.40 Bohr mag/cell
     absolute magnetization    =    56.06 Bohr mag/cell

     iteration # 28     ecut=    71.00 Ry     beta= 0.30
     Davidson diagonalization with overlap
     c_bands:  1 eigenvalues not converged
     c_bands:  2 eigenvalues not converged
     c_bands:  3 eigenvalues not converged
     c_bands:  1 eigenvalues not converged
     c_bands:  5 eigenvalues not converged
     ethr =  6.91E-07,  avg # of iterations =  4.0

     negative rho (up, down):  0.000E+00 1.995E-03

     total cpu time spent up to now is     1280.5 secs

     total energy              =   -5262.57803293 Ry
     estimated scf accuracy    <       0.00236640 Ry

     total magnetization       =    52.40 Bohr mag/cell
     absolute magnetization    =    56.04 Bohr mag/cell

     iteration # 29     ecut=    71.00 Ry     beta= 0.30
     Davidson diagonalization with overlap
     c_bands:  5 eigenvalues not converged
     c_bands:  4 eigenvalues not converged
     c_bands:  1 eigenvalues not converged
     c_bands:  1 eigenvalues not converged
     c_bands:  2 eigenvalues not converged
     c_bands:  4 eigenvalues not converged
     c_bands:  1 eigenvalues not converged
     ethr =  6.91E-07,  avg # of iterations =  6.1

     negative rho (up, down):  0.000E+00 1.939E-03

     total cpu time spent up to now is     1337.8 secs

     total energy              =   -5262.57861897 Ry
     estimated scf accuracy    <       0.00846067 Ry

     total magnetization       =    52.41 Bohr mag/cell
     absolute magnetization    =    56.02 Bohr mag/cell

     iteration # 30     ecut=    71.00 Ry     beta= 0.30
     Davidson diagonalization with overlap
     ethr =  6.91E-07,  avg # of iterations =  1.9

     negative rho (up, down):  0.000E+00 1.971E-03

     total cpu time spent up to now is     1378.4 secs

     total energy              =   -5262.57855388 Ry
     estimated scf accuracy    <       0.00956531 Ry

     total magnetization       =    52.41 Bohr mag/cell
     absolute magnetization    =    56.01 Bohr mag/cell

     iteration # 31     ecut=    71.00 Ry     beta= 0.30
     Davidson diagonalization with overlap
     c_bands:  2 eigenvalues not converged
     ethr =  6.91E-07,  avg # of iterations =  1.8

     negative rho (up, down):  0.000E+00 1.948E-03

     total cpu time spent up to now is     1418.1 secs

     total energy              =   -5262.57872580 Ry
     estimated scf accuracy    <       0.00973324 Ry

     total magnetization       =    52.40 Bohr mag/cell
     absolute magnetization    =    56.02 Bohr mag/cell

     iteration # 32     ecut=    71.00 Ry     beta= 0.30
     Davidson diagonalization with overlap
     ethr =  6.91E-07,  avg # of iterations =  1.3

     negative rho (up, down):  0.000E+00 1.921E-03

     total cpu time spent up to now is     1457.2 secs

     total energy              =   -5262.57893821 Ry
     estimated scf accuracy    <       0.00645720 Ry

     total magnetization       =    52.41 Bohr mag/cell
     absolute magnetization    =    56.01 Bohr mag/cell

     iteration # 33     ecut=    71.00 Ry     beta= 0.30
     Davidson diagonalization with overlap
     c_bands:  2 eigenvalues not converged
     c_bands:  1 eigenvalues not converged
     c_bands:  1 eigenvalues not converged
     ethr =  6.91E-07,  avg # of iterations =  5.1

     negative rho (up, down):  0.000E+00 1.984E-03

     total cpu time spent up to now is     1503.0 secs

     total energy              =   -5262.57784076 Ry
     estimated scf accuracy    <       0.01256782 Ry

     total magnetization       =    52.42 Bohr mag/cell
     absolute magnetization    =    56.01 Bohr mag/cell

     iteration # 34     ecut=    71.00 Ry     beta= 0.30
     Davidson diagonalization with overlap
     ethr =  6.91E-07,  avg # of iterations =  1.3

     negative rho (up, down):  0.000E+00 1.997E-03

     total cpu time spent up to now is     1542.9 secs

     total energy              =   -5262.57870836 Ry
     estimated scf accuracy    <       0.00676155 Ry

     total magnetization       =    52.41 Bohr mag/cell
     absolute magnetization    =    56.02 Bohr mag/cell

     iteration # 35     ecut=    71.00 Ry     beta= 0.30
     Davidson diagonalization with overlap
     ethr =  6.91E-07,  avg # of iterations =  1.0

     negative rho (up, down):  0.000E+00 1.983E-03

     total cpu time spent up to now is     1581.8 secs

     total energy              =   -5262.57792736 Ry
     estimated scf accuracy    <       0.01235189 Ry

     total magnetization       =    52.42 Bohr mag/cell
     absolute magnetization    =    56.00 Bohr mag/cell

     iteration # 36     ecut=    71.00 Ry     beta= 0.30
     Davidson diagonalization with overlap
     ethr =  6.91E-07,  avg # of iterations =  1.0

     negative rho (up, down):  0.000E+00 1.975E-03

     total cpu time spent up to now is     1620.6 secs

     total energy              =   -5262.57665396 Ry
     estimated scf accuracy    <       0.00633764 Ry

     total magnetization       =    52.41 Bohr mag/cell
     absolute magnetization    =    56.02 Bohr mag/cell

     iteration # 37     ecut=    71.00 Ry     beta= 0.30
     Davidson diagonalization with overlap
     c_bands:  1 eigenvalues not converged
     c_bands:  1 eigenvalues not converged
     ethr =  6.91E-07,  avg # of iterations =  5.9

     negative rho (up, down):  0.000E+00 2.009E-03

     total cpu time spent up to now is     1682.0 secs

     total energy              =   -5262.57696577 Ry
     estimated scf accuracy    <       0.00102242 Ry

     total magnetization       =    52.40 Bohr mag/cell
     absolute magnetization    =    56.05 Bohr mag/cell

     iteration # 38     ecut=    71.00 Ry     beta= 0.30
     Davidson diagonalization with overlap
     c_bands:  1 eigenvalues not converged
     c_bands:  1 eigenvalues not converged
     c_bands:  1 eigenvalues not converged
     c_bands:  1 eigenvalues not converged
     c_bands:  3 eigenvalues not converged
     c_bands:  3 eigenvalues not converged
     c_bands:  2 eigenvalues not converged
     c_bands:  4 eigenvalues not converged
     c_bands:  5 eigenvalues not converged
     c_bands:  2 eigenvalues not converged
     c_bands:  3 eigenvalues not converged
     c_bands:  2 eigenvalues not converged
     ethr =  3.99E-07,  avg # of iterations =  9.6

     negative rho (up, down):  0.000E+00 1.947E-03

     total cpu time spent up to now is     1754.6 secs

     total energy              =   -5262.57636706 Ry
     estimated scf accuracy    <       0.00403671 Ry

     total magnetization       =    52.40 Bohr mag/cell
     absolute magnetization    =    56.04 Bohr mag/cell

     iteration # 39     ecut=    71.00 Ry     beta= 0.30
     Davidson diagonalization with overlap
     c_bands:  1 eigenvalues not converged
     c_bands:  1 eigenvalues not converged
     c_bands:  2 eigenvalues not converged
     c_bands:  2 eigenvalues not converged
     c_bands:  1 eigenvalues not converged
     ethr =  3.99E-07,  avg # of iterations =  9.9

     negative rho (up, down):  0.000E+00 1.959E-03

     total cpu time spent up to now is     1817.5 secs

     total energy              =   -5262.57732421 Ry
     estimated scf accuracy    <       0.00260789 Ry

     total magnetization       =    52.42 Bohr mag/cell
     absolute magnetization    =    56.04 Bohr mag/cell

     iteration # 40     ecut=    71.00 Ry     beta= 0.30
     Davidson diagonalization with overlap
     c_bands:  1 eigenvalues not converged
     c_bands:  4 eigenvalues not converged
     c_bands:  3 eigenvalues not converged
     c_bands:  5 eigenvalues not converged
     c_bands:  2 eigenvalues not converged
     c_bands:  4 eigenvalues not converged
     c_bands:  2 eigenvalues not converged
     c_bands:  3 eigenvalues not converged
     c_bands:  1 eigenvalues not converged
     c_bands:  2 eigenvalues not converged
     c_bands:  5 eigenvalues not converged
     ethr =  3.99E-07,  avg # of iterations = 11.0

     negative rho (up, down):  0.000E+00 1.934E-03

     total cpu time spent up to now is     1901.2 secs

     total energy              =   -5262.57785865 Ry
     estimated scf accuracy    <       0.00813232 Ry

     total magnetization       =    52.41 Bohr mag/cell
     absolute magnetization    =    56.01 Bohr mag/cell

     iteration # 41     ecut=    71.00 Ry     beta= 0.30
     Davidson diagonalization with overlap
     ethr =  3.99E-07,  avg # of iterations =  1.7

     negative rho (up, down):  0.000E+00 1.936E-03

     total cpu time spent up to now is     1941.8 secs

     total energy              =   -5262.57753498 Ry
     estimated scf accuracy    <       0.01169889 Ry

     total magnetization       =    52.43 Bohr mag/cell
     absolute magnetization    =    56.02 Bohr mag/cell

     iteration # 42     ecut=    71.00 Ry     beta= 0.30
     Davidson diagonalization with overlap
     ethr =  3.99E-07,  avg # of iterations =  2.0

     negative rho (up, down):  0.000E+00 1.934E-03

     total cpu time spent up to now is     1983.6 secs

     total energy              =   -5262.57787220 Ry
     estimated scf accuracy    <       0.00900870 Ry

     total magnetization       =    52.43 Bohr mag/cell
     absolute magnetization    =    56.02 Bohr mag/cell

     iteration # 43     ecut=    71.00 Ry     beta= 0.30
     Davidson diagonalization with overlap
     ethr =  3.99E-07,  avg # of iterations =  1.0

     negative rho (up, down):  0.000E+00 1.934E-03

     total cpu time spent up to now is     2022.3 secs

     total energy              =   -5262.57783776 Ry
     estimated scf accuracy    <       0.00934504 Ry

     total magnetization       =    52.43 Bohr mag/cell
     absolute magnetization    =    56.01 Bohr mag/cell

     iteration # 44     ecut=    71.00 Ry     beta= 0.30
     Davidson diagonalization with overlap
     ethr =  3.99E-07,  avg # of iterations =  1.0

     negative rho (up, down):  0.000E+00 1.962E-03

     total cpu time spent up to now is     2060.3 secs

     total energy              =   -5262.57682800 Ry
     estimated scf accuracy    <       0.00868584 Ry

     total magnetization       =    52.43 Bohr mag/cell
     absolute magnetization    =    56.01 Bohr mag/cell

     iteration # 45     ecut=    71.00 Ry     beta= 0.30
     Davidson diagonalization with overlap
     c_bands:  4 eigenvalues not converged
     c_bands:  3 eigenvalues not converged
     c_bands:  5 eigenvalues not converged
     c_bands:  1 eigenvalues not converged
     c_bands:  2 eigenvalues not converged
     c_bands:  3 eigenvalues not converged
     c_bands:  4 eigenvalues not converged
     c_bands:  3 eigenvalues not converged
     c_bands:  3 eigenvalues not converged
     c_bands:  1 eigenvalues not converged
     ethr =  3.99E-07,  avg # of iterations =  8.1

     negative rho (up, down):  0.000E+00 1.968E-03

     total cpu time spent up to now is     2124.9 secs

     total energy              =   -5262.57735855 Ry
     estimated scf accuracy    <       0.00544682 Ry

     total magnetization       =    52.43 Bohr mag/cell
     absolute magnetization    =    56.01 Bohr mag/cell

     iteration # 46     ecut=    71.00 Ry     beta= 0.30
     Davidson diagonalization with overlap
     c_bands:  1 eigenvalues not converged
     c_bands:  1 eigenvalues not converged
     ethr =  3.99E-07,  avg # of iterations =  2.0

     negative rho (up, down):  0.000E+00 1.973E-03

     total cpu time spent up to now is     2165.6 secs

     total energy              =   -5262.57722942 Ry
     estimated scf accuracy    <       0.00249955 Ry

     total magnetization       =    52.42 Bohr mag/cell
     absolute magnetization    =    56.02 Bohr mag/cell

     iteration # 47     ecut=    71.00 Ry     beta= 0.30
     Davidson diagonalization with overlap
     c_bands:  1 eigenvalues not converged
     ethr =  3.99E-07,  avg # of iterations =  2.3

     negative rho (up, down):  0.000E+00 1.964E-03

     total cpu time spent up to now is     2208.0 secs

     total energy              =   -5262.57723547 Ry
     estimated scf accuracy    <       0.00074841 Ry

     total magnetization       =    52.41 Bohr mag/cell
     absolute magnetization    =    56.03 Bohr mag/cell

     iteration # 48     ecut=    71.00 Ry     beta= 0.30
     Davidson diagonalization with overlap
     c_bands:  1 eigenvalues not converged
     c_bands:  1 eigenvalues not converged
     c_bands:  2 eigenvalues not converged
     ethr =  2.92E-07,  avg # of iterations =  5.1

     negative rho (up, down):  0.000E+00 1.964E-03

     total cpu time spent up to now is     2257.4 secs

     total energy              =   -5262.57733149 Ry
     estimated scf accuracy    <       0.00033314 Ry

     total magnetization       =    52.41 Bohr mag/cell
     absolute magnetization    =    56.04 Bohr mag/cell

     iteration # 49     ecut=    71.00 Ry     beta= 0.30
     Davidson diagonalization with overlap
     c_bands:  1 eigenvalues not converged
     c_bands:  4 eigenvalues not converged
     c_bands:  4 eigenvalues not converged
     ethr =  1.30E-07,  avg # of iterations =  3.8

     negative rho (up, down):  0.000E+00 1.961E-03

     total cpu time spent up to now is     2304.3 secs

     total energy              =   -5262.57736365 Ry
     estimated scf accuracy    <       0.00027686 Ry

     total magnetization       =    52.42 Bohr mag/cell
     absolute magnetization    =    56.04 Bohr mag/cell

     iteration # 50     ecut=    71.00 Ry     beta= 0.30
     Davidson diagonalization with overlap
     c_bands:  2 eigenvalues not converged
     ethr =  1.08E-07,  avg # of iterations =  1.5

     negative rho (up, down):  0.000E+00 1.962E-03

     total cpu time spent up to now is     2344.2 secs

     total energy              =   -5262.57734967 Ry
     estimated scf accuracy    <       0.00036444 Ry

     total magnetization       =    52.42 Bohr mag/cell
     absolute magnetization    =    56.03 Bohr mag/cell

     iteration # 51     ecut=    71.00 Ry     beta= 0.30
     Davidson diagonalization with overlap
     c_bands:  2 eigenvalues not converged
     c_bands:  3 eigenvalues not converged
     c_bands:  1 eigenvalues not converged
     ethr =  1.08E-07,  avg # of iterations =  5.1

     negative rho (up, down):  0.000E+00 1.963E-03

     total cpu time spent up to now is     2394.1 secs

     total energy              =   -5262.57742334 Ry
     estimated scf accuracy    <       0.00026418 Ry

     total magnetization       =    52.41 Bohr mag/cell
     absolute magnetization    =    56.04 Bohr mag/cell

     iteration # 52     ecut=    71.00 Ry     beta= 0.30
     Davidson diagonalization with overlap
     c_bands:  1 eigenvalues not converged
     c_bands:  1 eigenvalues not converged
     ethr =  1.03E-07,  avg # of iterations =  1.6

     negative rho (up, down):  0.000E+00 1.953E-03

     total cpu time spent up to now is     2433.6 secs

     total energy              =   -5262.57723033 Ry
     estimated scf accuracy    <       0.00021506 Ry

     total magnetization       =    52.41 Bohr mag/cell
     absolute magnetization    =    56.04 Bohr mag/cell

     iteration # 53     ecut=    71.00 Ry     beta= 0.30
     Davidson diagonalization with overlap
     c_bands:  1 eigenvalues not converged
     c_bands:  1 eigenvalues not converged
     ethr =  8.40E-08,  avg # of iterations =  5.0

     negative rho (up, down):  0.000E+00 1.947E-03

     total cpu time spent up to now is     2484.4 secs

     total energy              =   -5262.57731868 Ry
     estimated scf accuracy    <       0.00067037 Ry

     total magnetization       =    52.42 Bohr mag/cell
     absolute magnetization    =    56.05 Bohr mag/cell

     iteration # 54     ecut=    71.00 Ry     beta= 0.30
     Davidson diagonalization with overlap
     c_bands:  1 eigenvalues not converged
     ethr =  8.40E-08,  avg # of iterations =  2.3

     negative rho (up, down):  0.000E+00 1.947E-03

     total cpu time spent up to now is     2526.1 secs

     total energy              =   -5262.57733312 Ry
     estimated scf accuracy    <       0.00086313 Ry

     total magnetization       =    52.42 Bohr mag/cell
     absolute magnetization    =    56.04 Bohr mag/cell

     iteration # 55     ecut=    71.00 Ry     beta= 0.30
     Davidson diagonalization with overlap
     ethr =  8.40E-08,  avg # of iterations =  1.0

     negative rho (up, down):  0.000E+00 1.942E-03

     total cpu time spent up to now is     2564.7 secs

     total energy              =   -5262.57729718 Ry
     estimated scf accuracy    <       0.00092355 Ry

     total magnetization       =    52.42 Bohr mag/cell
     absolute magnetization    =    56.04 Bohr mag/cell

     iteration # 56     ecut=    71.00 Ry     beta= 0.30
     Davidson diagonalization with overlap
     c_bands:  1 eigenvalues not converged
     ethr =  8.40E-08,  avg # of iterations =  1.9

     negative rho (up, down):  0.000E+00 1.936E-03

     total cpu time spent up to now is     2605.0 secs

     total energy              =   -5262.57731103 Ry
     estimated scf accuracy    <       0.00081828 Ry

     total magnetization       =    52.41 Bohr mag/cell
     absolute magnetization    =    56.04 Bohr mag/cell

     iteration # 57     ecut=    71.00 Ry     beta= 0.30
     Davidson diagonalization with overlap
     c_bands:  1 eigenvalues not converged
     c_bands:  1 eigenvalues not converged
     ethr =  8.40E-08,  avg # of iterations =  3.4

     negative rho (up, down):  0.000E+00 1.930E-03

     total cpu time spent up to now is     2652.2 secs

     total energy              =   -5262.57723756 Ry
     estimated scf accuracy    <       0.00034719 Ry

     total magnetization       =    52.42 Bohr mag/cell
     absolute magnetization    =    56.04 Bohr mag/cell

     iteration # 58     ecut=    71.00 Ry     beta= 0.30
     Davidson diagonalization with overlap
     c_bands:  1 eigenvalues not converged
     c_bands:  2 eigenvalues not converged
     c_bands:  1 eigenvalues not converged
     c_bands:  1 eigenvalues not converged
     c_bands:  1 eigenvalues not converged
     c_bands:  1 eigenvalues not converged
     c_bands:  1 eigenvalues not converged
     c_bands:  5 eigenvalues not converged
     c_bands:  5 eigenvalues not converged
     c_bands:  2 eigenvalues not converged
     c_bands:  1 eigenvalues not converged
     c_bands:  5 eigenvalues not converged
     c_bands:  4 eigenvalues not converged
     c_bands:  1 eigenvalues not converged
     c_bands:  2 eigenvalues not converged
     c_bands:  3 eigenvalues not converged
     c_bands:  4 eigenvalues not converged
     c_bands:  2 eigenvalues not converged
     c_bands:  3 eigenvalues not converged
     c_bands:  1 eigenvalues not converged
     c_bands:  1 eigenvalues not converged
     c_bands:  1 eigenvalues not converged
     c_bands:  2 eigenvalues not converged
     ethr =  8.40E-08,  avg # of iterations = 14.6

     negative rho (up, down):  0.000E+00 1.946E-03

     total cpu time spent up to now is     2745.3 secs

     total energy              =   -5262.57729505 Ry
     estimated scf accuracy    <       0.00122472 Ry

     total magnetization       =    52.42 Bohr mag/cell
     absolute magnetization    =    56.03 Bohr mag/cell

     iteration # 59     ecut=    71.00 Ry     beta= 0.30
     Davidson diagonalization with overlap
     c_bands:  1 eigenvalues not converged
     c_bands:  1 eigenvalues not converged
     c_bands:  1 eigenvalues not converged
     c_bands:  3 eigenvalues not converged
     ethr =  8.40E-08,  avg # of iterations =  8.3

     negative rho (up, down):  0.000E+00 1.936E-03

     total cpu time spent up to now is     2803.9 secs

     total energy              =   -5262.57718639 Ry
     estimated scf accuracy    <       0.00052759 Ry

     total magnetization       =    52.41 Bohr mag/cell
     absolute magnetization    =    56.04 Bohr mag/cell

     iteration # 60     ecut=    71.00 Ry     beta= 0.30
     Davidson diagonalization with overlap
     c_bands:  1 eigenvalues not converged
     c_bands:  1 eigenvalues not converged
     c_bands:  3 eigenvalues not converged
     c_bands:  2 eigenvalues not converged
     ethr =  8.40E-08,  avg # of iterations =  7.3

     negative rho (up, down):  0.000E+00 1.927E-03

     total cpu time spent up to now is     2866.1 secs

     total energy              =   -5262.57730675 Ry
     estimated scf accuracy    <       0.00073995 Ry

     total magnetization       =    52.42 Bohr mag/cell
     absolute magnetization    =    56.04 Bohr mag/cell

     iteration # 61     ecut=    71.00 Ry     beta= 0.30
     Davidson diagonalization with overlap
     c_bands:  1 eigenvalues not converged
     c_bands:  1 eigenvalues not converged
     ethr =  8.40E-08,  avg # of iterations =  5.5

     negative rho (up, down):  0.000E+00 1.919E-03

     total cpu time spent up to now is     2915.0 secs

     total energy              =   -5262.57730341 Ry
     estimated scf accuracy    <       0.00103440 Ry

     total magnetization       =    52.42 Bohr mag/cell
     absolute magnetization    =    56.04 Bohr mag/cell

     iteration # 62     ecut=    71.00 Ry     beta= 0.30
     Davidson diagonalization with overlap
     ethr =  8.40E-08,  avg # of iterations =  1.7

     negative rho (up, down):  0.000E+00 1.918E-03

     total cpu time spent up to now is     2955.7 secs

     total energy              =   -5262.57731628 Ry
     estimated scf accuracy    <       0.00039488 Ry

     total magnetization       =    52.42 Bohr mag/cell
     absolute magnetization    =    56.03 Bohr mag/cell

     iteration # 63     ecut=    71.00 Ry     beta= 0.30
     Davidson diagonalization with overlap
     ethr =  8.40E-08,  avg # of iterations =  1.4

     negative rho (up, down):  0.000E+00 1.931E-03

     total cpu time spent up to now is     2995.5 secs

     total energy              =   -5262.57734451 Ry
     estimated scf accuracy    <       0.00050319 Ry

     total magnetization       =    52.42 Bohr mag/cell
     absolute magnetization    =    56.03 Bohr mag/cell

     iteration # 64     ecut=    71.00 Ry     beta= 0.30
     Davidson diagonalization with overlap
     ethr =  8.40E-08,  avg # of iterations =  1.2

     negative rho (up, down):  0.000E+00 1.930E-03

     total cpu time spent up to now is     3035.3 secs

     total energy              =   -5262.57738810 Ry
     estimated scf accuracy    <       0.00023529 Ry

     total magnetization       =    52.42 Bohr mag/cell
     absolute magnetization    =    56.03 Bohr mag/cell

     iteration # 65     ecut=    71.00 Ry     beta= 0.30
     Davidson diagonalization with overlap
     ethr =  8.40E-08,  avg # of iterations =  1.3

     negative rho (up, down):  0.000E+00 1.933E-03

     total cpu time spent up to now is     3074.6 secs

     total energy              =   -5262.57739235 Ry
     estimated scf accuracy    <       0.00025883 Ry

     total magnetization       =    52.42 Bohr mag/cell
     absolute magnetization    =    56.03 Bohr mag/cell

     iteration # 66     ecut=    71.00 Ry     beta= 0.30
     Davidson diagonalization with overlap
     ethr =  8.40E-08,  avg # of iterations =  1.0

     negative rho (up, down):  0.000E+00 1.932E-03

     total cpu time spent up to now is     3112.8 secs

     total energy              =   -5262.57735408 Ry
     estimated scf accuracy    <       0.00030072 Ry

     total magnetization       =    52.42 Bohr mag/cell
     absolute magnetization    =    56.03 Bohr mag/cell

     iteration # 67     ecut=    71.00 Ry     beta= 0.30
     Davidson diagonalization with overlap
     ethr =  8.40E-08,  avg # of iterations =  1.0

     negative rho (up, down):  0.000E+00 1.937E-03

     total cpu time spent up to now is     3151.6 secs

     total energy              =   -5262.57735463 Ry
     estimated scf accuracy    <       0.00025072 Ry

     total magnetization       =    52.42 Bohr mag/cell
     absolute magnetization    =    56.04 Bohr mag/cell

     iteration # 68     ecut=    71.00 Ry     beta= 0.30
     Davidson diagonalization with overlap
     ethr =  8.40E-08,  avg # of iterations =  1.9

     negative rho (up, down):  0.000E+00 1.944E-03

     total cpu time spent up to now is     3192.8 secs

     total energy              =   -5262.57734008 Ry
     estimated scf accuracy    <       0.00028368 Ry

     total magnetization       =    52.42 Bohr mag/cell
     absolute magnetization    =    56.04 Bohr mag/cell

     iteration # 69     ecut=    71.00 Ry     beta= 0.30
     Davidson diagonalization with overlap
     c_bands:  1 eigenvalues not converged
     ethr =  8.40E-08,  avg # of iterations =  4.7

     negative rho (up, down):  0.000E+00 1.941E-03

     total cpu time spent up to now is     3242.2 secs

     total energy              =   -5262.57740163 Ry
     estimated scf accuracy    <       0.00020537 Ry

     total magnetization       =    52.41 Bohr mag/cell
     absolute magnetization    =    56.04 Bohr mag/cell

     iteration # 70     ecut=    71.00 Ry     beta= 0.30
     Davidson diagonalization with overlap
     ethr =  8.02E-08,  avg # of iterations =  1.0

     negative rho (up, down):  0.000E+00 1.940E-03

     total cpu time spent up to now is     3280.8 secs

     total energy              =   -5262.57740748 Ry
     estimated scf accuracy    <       0.00023240 Ry

     total magnetization       =    52.41 Bohr mag/cell
     absolute magnetization    =    56.04 Bohr mag/cell

     iteration # 71     ecut=    71.00 Ry     beta= 0.30
     Davidson diagonalization with overlap
     ethr =  8.02E-08,  avg # of iterations =  1.0

     negative rho (up, down):  0.000E+00 1.937E-03

     total cpu time spent up to now is     3319.0 secs

     total energy              =   -5262.57740610 Ry
     estimated scf accuracy    <       0.00032726 Ry

     total magnetization       =    52.41 Bohr mag/cell
     absolute magnetization    =    56.04 Bohr mag/cell

     iteration # 72     ecut=    71.00 Ry     beta= 0.30
     Davidson diagonalization with overlap
     ethr =  8.02E-08,  avg # of iterations =  1.6

     negative rho (up, down):  0.000E+00 1.934E-03

     total cpu time spent up to now is     3360.2 secs

     total energy              =   -5262.57734974 Ry
     estimated scf accuracy    <       0.00031412 Ry

     total magnetization       =    52.42 Bohr mag/cell
     absolute magnetization    =    56.04 Bohr mag/cell

     iteration # 73     ecut=    71.00 Ry     beta= 0.30
     Davidson diagonalization with overlap
     ethr =  8.02E-08,  avg # of iterations =  1.1

     negative rho (up, down):  0.000E+00 1.936E-03

     total cpu time spent up to now is     3399.1 secs

     total energy              =   -5262.57734901 Ry
     estimated scf accuracy    <       0.00036286 Ry

     total magnetization       =    52.42 Bohr mag/cell
     absolute magnetization    =    56.04 Bohr mag/cell

     iteration # 74     ecut=    71.00 Ry     beta= 0.30
     Davidson diagonalization with overlap
     ethr =  8.02E-08,  avg # of iterations =  1.0

     negative rho (up, down):  0.000E+00 1.945E-03

     total cpu time spent up to now is     3437.4 secs

     total energy              =   -5262.57725445 Ry
     estimated scf accuracy    <       0.00041872 Ry

     total magnetization       =    52.42 Bohr mag/cell
     absolute magnetization    =    56.04 Bohr mag/cell

     iteration # 75     ecut=    71.00 Ry     beta= 0.30
     Davidson diagonalization with overlap
     c_bands:  1 eigenvalues not converged
     c_bands:  3 eigenvalues not converged
     ethr =  8.02E-08,  avg # of iterations =  4.4

     negative rho (up, down):  0.000E+00 1.942E-03

     total cpu time spent up to now is     3489.8 secs

     total energy              =   -5262.57743951 Ry
     estimated scf accuracy    <       0.00030328 Ry

     total magnetization       =    52.41 Bohr mag/cell
     absolute magnetization    =    56.04 Bohr mag/cell

     iteration # 76     ecut=    71.00 Ry     beta= 0.30
     Davidson diagonalization with overlap
     ethr =  8.02E-08,  avg # of iterations =  1.1

     negative rho (up, down):  0.000E+00 1.943E-03

     total cpu time spent up to now is     3528.3 secs

     total energy              =   -5262.57746048 Ry
     estimated scf accuracy    <       0.00020607 Ry

     total magnetization       =    52.41 Bohr mag/cell
     absolute magnetization    =    56.04 Bohr mag/cell

     iteration # 77     ecut=    71.00 Ry     beta= 0.30
     Davidson diagonalization with overlap
     ethr =  8.02E-08,  avg # of iterations =  1.1

     negative rho (up, down):  0.000E+00 1.940E-03

     total cpu time spent up to now is     3569.3 secs

     total energy              =   -5262.57741558 Ry
     estimated scf accuracy    <       0.00027493 Ry

     total magnetization       =    52.41 Bohr mag/cell
     absolute magnetization    =    56.04 Bohr mag/cell

     iteration # 78     ecut=    71.00 Ry     beta= 0.30
     Davidson diagonalization with overlap
     ethr =  8.02E-08,  avg # of iterations =  1.0

     negative rho (up, down):  0.000E+00 1.939E-03

     total cpu time spent up to now is     3607.9 secs

     total energy              =   -5262.57737581 Ry
     estimated scf accuracy    <       0.00035071 Ry

     total magnetization       =    52.42 Bohr mag/cell
     absolute magnetization    =    56.04 Bohr mag/cell

     iteration # 79     ecut=    71.00 Ry     beta= 0.30
     Davidson diagonalization with overlap
     ethr =  8.02E-08,  avg # of iterations =  3.2

     negative rho (up, down):  0.000E+00 1.939E-03

     total cpu time spent up to now is     3652.0 secs

     total energy              =   -5262.57739122 Ry
     estimated scf accuracy    <       0.00030217 Ry

     total magnetization       =    52.42 Bohr mag/cell
     absolute magnetization    =    56.04 Bohr mag/cell

     iteration # 80     ecut=    71.00 Ry     beta= 0.30
     Davidson diagonalization with overlap
     ethr =  8.02E-08,  avg # of iterations =  1.1

     negative rho (up, down):  0.000E+00 1.940E-03

     total cpu time spent up to now is     3691.5 secs

     total energy              =   -5262.57739299 Ry
     estimated scf accuracy    <       0.00039981 Ry

     total magnetization       =    52.42 Bohr mag/cell
     absolute magnetization    =    56.04 Bohr mag/cell

     iteration # 81     ecut=    71.00 Ry     beta= 0.30
     Davidson diagonalization with overlap
     ethr =  8.02E-08,  avg # of iterations =  1.0

     negative rho (up, down):  0.000E+00 1.937E-03

     total cpu time spent up to now is     3730.1 secs

     total energy              =   -5262.57721280 Ry
     estimated scf accuracy    <       0.00029975 Ry

     total magnetization       =    52.42 Bohr mag/cell
     absolute magnetization    =    56.04 Bohr mag/cell

     iteration # 82     ecut=    71.00 Ry     beta= 0.30
     Davidson diagonalization with overlap
     c_bands:  3 eigenvalues not converged
     c_bands:  5 eigenvalues not converged
     c_bands:  1 eigenvalues not converged
     c_bands:  4 eigenvalues not converged
     c_bands:  5 eigenvalues not converged
     c_bands:  4 eigenvalues not converged
     c_bands:  2 eigenvalues not converged
     ethr =  8.02E-08,  avg # of iterations =  7.2

     negative rho (up, down):  0.000E+00 1.937E-03

     total cpu time spent up to now is     3790.8 secs

     total energy              =   -5262.57721188 Ry
     estimated scf accuracy    <       0.00143439 Ry

     total magnetization       =    52.42 Bohr mag/cell
     absolute magnetization    =    56.03 Bohr mag/cell

     iteration # 83     ecut=    71.00 Ry     beta= 0.30
     Davidson diagonalization with overlap
     c_bands:  2 eigenvalues not converged
     ethr =  8.02E-08,  avg # of iterations =  3.9

     negative rho (up, down):  0.000E+00 1.935E-03

     total cpu time spent up to now is     3836.7 secs

     total energy              =   -5262.57699987 Ry
     estimated scf accuracy    <       0.00045455 Ry

     total magnetization       =    52.42 Bohr mag/cell
     absolute magnetization    =    56.04 Bohr mag/cell

     iteration # 84     ecut=    71.00 Ry     beta= 0.30
     Davidson diagonalization with overlap
     c_bands:  1 eigenvalues not converged
     c_bands:  4 eigenvalues not converged
     c_bands:  2 eigenvalues not converged
     c_bands:  1 eigenvalues not converged
     c_bands:  2 eigenvalues not converged
     c_bands:  3 eigenvalues not converged
     c_bands:  2 eigenvalues not converged
     c_bands:  5 eigenvalues not converged
     c_bands:  3 eigenvalues not converged
     c_bands:  3 eigenvalues not converged
     c_bands:  2 eigenvalues not converged
     c_bands:  2 eigenvalues not converged
     c_bands:  5 eigenvalues not converged
     c_bands:  2 eigenvalues not converged
     c_bands:  2 eigenvalues not converged
     c_bands:  5 eigenvalues not converged
     c_bands:  4 eigenvalues not converged
     c_bands:  5 eigenvalues not converged
     ethr =  8.02E-08,  avg # of iterations = 14.6

     negative rho (up, down):  0.000E+00 1.935E-03

     total cpu time spent up to now is     3939.4 secs

     total energy              =   -5262.57722531 Ry
     estimated scf accuracy    <       0.00129361 Ry

     total magnetization       =    52.42 Bohr mag/cell
     absolute magnetization    =    56.04 Bohr mag/cell

     iteration # 85     ecut=    71.00 Ry     beta= 0.30
     Davidson diagonalization with overlap
     c_bands:  1 eigenvalues not converged
     c_bands:  1 eigenvalues not converged
     c_bands:  1 eigenvalues not converged
     ethr =  8.02E-08,  avg # of iterations =  2.8

     negative rho (up, down):  0.000E+00 1.938E-03

     total cpu time spent up to now is     3980.6 secs

     total energy              =   -5262.57721840 Ry
     estimated scf accuracy    <       0.00035929 Ry

     total magnetization       =    52.42 Bohr mag/cell
     absolute magnetization    =    56.04 Bohr mag/cell

     iteration # 86     ecut=    71.00 Ry     beta= 0.30
     Davidson diagonalization with overlap
     c_bands:  2 eigenvalues not converged
     c_bands:  1 eigenvalues not converged
     ethr =  8.02E-08,  avg # of iterations =  6.0

     negative rho (up, down):  0.000E+00 1.939E-03

     total cpu time spent up to now is     4037.0 secs

     total energy              =   -5262.57727789 Ry
     estimated scf accuracy    <       0.00008620 Ry

     total magnetization       =    52.42 Bohr mag/cell
     absolute magnetization    =    56.04 Bohr mag/cell

     iteration # 87     ecut=    71.00 Ry     beta= 0.30
     Davidson diagonalization with overlap
     c_bands:  2 eigenvalues not converged
     c_bands:  2 eigenvalues not converged
     c_bands:  4 eigenvalues not converged
     c_bands:  1 eigenvalues not converged
     c_bands:  1 eigenvalues not converged
     ethr =  3.37E-08,  avg # of iterations =  3.4

     negative rho (up, down):  0.000E+00 1.939E-03

     total cpu time spent up to now is     4083.4 secs

     total energy              =   -5262.57727602 Ry
     estimated scf accuracy    <       0.00008695 Ry

     total magnetization       =    52.42 Bohr mag/cell
     absolute magnetization    =    56.04 Bohr mag/cell

     iteration # 88     ecut=    71.00 Ry     beta= 0.30
     Davidson diagonalization with overlap
     c_bands:  1 eigenvalues not converged
     ethr =  3.37E-08,  avg # of iterations =  1.4

     negative rho (up, down):  0.000E+00 1.939E-03

     total cpu time spent up to now is     4122.6 secs

     total energy              =   -5262.57727278 Ry
     estimated scf accuracy    <       0.00004328 Ry

     total magnetization       =    52.41 Bohr mag/cell
     absolute magnetization    =    56.04 Bohr mag/cell

     iteration # 89     ecut=    71.00 Ry     beta= 0.30
     Davidson diagonalization with overlap
     c_bands:  1 eigenvalues not converged
     c_bands:  2 eigenvalues not converged
     c_bands:  3 eigenvalues not converged
     c_bands:  1 eigenvalues not converged
     c_bands:  3 eigenvalues not converged
     c_bands:  4 eigenvalues not converged
     c_bands:  3 eigenvalues not converged
     c_bands:  1 eigenvalues not converged
     c_bands:  2 eigenvalues not converged
     c_bands:  1 eigenvalues not converged
     ethr =  1.69E-08,  avg # of iterations =  6.1

     negative rho (up, down):  0.000E+00 1.939E-03

     total cpu time spent up to now is     4173.4 secs

     total energy              =   -5262.57728850 Ry
     estimated scf accuracy    <       0.00020716 Ry

     total magnetization       =    52.42 Bohr mag/cell
     absolute magnetization    =    56.03 Bohr mag/cell

     iteration # 90     ecut=    71.00 Ry     beta= 0.30
     Davidson diagonalization with overlap
     c_bands:  2 eigenvalues not converged
     c_bands:  2 eigenvalues not converged
     ethr =  1.69E-08,  avg # of iterations =  1.8

     negative rho (up, down):  0.000E+00 1.939E-03

     total cpu time spent up to now is     4213.1 secs

     total energy              =   -5262.57727561 Ry
     estimated scf accuracy    <       0.00018853 Ry

     total magnetization       =    52.42 Bohr mag/cell
     absolute magnetization    =    56.03 Bohr mag/cell

     iteration # 91     ecut=    71.00 Ry     beta= 0.30
     Davidson diagonalization with overlap
     ethr =  1.69E-08,  avg # of iterations =  1.1

     negative rho (up, down):  0.000E+00 1.941E-03

     total cpu time spent up to now is     4251.7 secs

     total energy              =   -5262.57727807 Ry
     estimated scf accuracy    <       0.00014404 Ry

     total magnetization       =    52.41 Bohr mag/cell
     absolute magnetization    =    56.03 Bohr mag/cell

     iteration # 92     ecut=    71.00 Ry     beta= 0.30
     Davidson diagonalization with overlap
     c_bands:  1 eigenvalues not converged
     ethr =  1.69E-08,  avg # of iterations =  2.0

     negative rho (up, down):  0.000E+00 1.940E-03

     total cpu time spent up to now is     4292.5 secs

     total energy              =   -5262.57727619 Ry
     estimated scf accuracy    <       0.00021540 Ry

     total magnetization       =    52.41 Bohr mag/cell
     absolute magnetization    =    56.03 Bohr mag/cell

     iteration # 93     ecut=    71.00 Ry     beta= 0.30
     Davidson diagonalization with overlap
     c_bands:  1 eigenvalues not converged
     ethr =  1.69E-08,  avg # of iterations =  2.1

     negative rho (up, down):  0.000E+00 1.940E-03

     total cpu time spent up to now is     4334.5 secs

     total energy              =   -5262.57729473 Ry
     estimated scf accuracy    <       0.00017922 Ry

     total magnetization       =    52.41 Bohr mag/cell
     absolute magnetization    =    56.03 Bohr mag/cell

     iteration # 94     ecut=    71.00 Ry     beta= 0.30
     Davidson diagonalization with overlap
     c_bands:  1 eigenvalues not converged
     c_bands:  1 eigenvalues not converged
     ethr =  1.69E-08,  avg # of iterations =  3.6

     negative rho (up, down):  0.000E+00 1.939E-03

     total cpu time spent up to now is     4381.9 secs

     total energy              =   -5262.57726602 Ry
     estimated scf accuracy    <       0.00026394 Ry

     total magnetization       =    52.41 Bohr mag/cell
     absolute magnetization    =    56.03 Bohr mag/cell

     iteration # 95     ecut=    71.00 Ry     beta= 0.30
     Davidson diagonalization with overlap
     ethr =  1.69E-08,  avg # of iterations =  1.2

     negative rho (up, down):  0.000E+00 1.939E-03

     total cpu time spent up to now is     4421.7 secs

     total energy              =   -5262.57728294 Ry
     estimated scf accuracy    <       0.00008214 Ry

     total magnetization       =    52.41 Bohr mag/cell
     absolute magnetization    =    56.03 Bohr mag/cell

     iteration # 96     ecut=    71.00 Ry     beta= 0.30
     Davidson diagonalization with overlap
     ethr =  1.69E-08,  avg # of iterations =  1.0

     negative rho (up, down):  0.000E+00 1.939E-03

     total cpu time spent up to now is     4459.6 secs

     total energy              =   -5262.57727266 Ry
     estimated scf accuracy    <       0.00012657 Ry

     total magnetization       =    52.41 Bohr mag/cell
     absolute magnetization    =    56.03 Bohr mag/cell

     iteration # 97     ecut=    71.00 Ry     beta= 0.30
     Davidson diagonalization with overlap
     c_bands:  2 eigenvalues not converged
     ethr =  1.69E-08,  avg # of iterations =  2.1

     negative rho (up, down):  0.000E+00 1.939E-03

     total cpu time spent up to now is     4500.8 secs

     total energy              =   -5262.57726478 Ry
     estimated scf accuracy    <       0.00005103 Ry

     total magnetization       =    52.41 Bohr mag/cell
     absolute magnetization    =    56.03 Bohr mag/cell

     iteration # 98     ecut=    71.00 Ry     beta= 0.30
     Davidson diagonalization with overlap
     c_bands:  2 eigenvalues not converged
     ethr =  1.69E-08,  avg # of iterations =  4.7

     negative rho (up, down):  0.000E+00 1.940E-03

     total cpu time spent up to now is     4551.1 secs

     total energy              =   -5262.57727587 Ry
     estimated scf accuracy    <       0.00000785 Ry

     total magnetization       =    52.41 Bohr mag/cell
     absolute magnetization    =    56.03 Bohr mag/cell

     iteration # 99     ecut=    71.00 Ry     beta= 0.30
     Davidson diagonalization with overlap
     c_bands:  1 eigenvalues not converged
     c_bands:  1 eigenvalues not converged
     c_bands:  1 eigenvalues not converged
     c_bands:  1 eigenvalues not converged
     c_bands:  1 eigenvalues not converged
     c_bands:  2 eigenvalues not converged
     c_bands:  2 eigenvalues not converged
     c_bands:  1 eigenvalues not converged
     c_bands:  1 eigenvalues not converged
     c_bands:  2 eigenvalues not converged
     c_bands:  5 eigenvalues not converged
     c_bands:  2 eigenvalues not converged
     c_bands:  3 eigenvalues not converged
     c_bands:  4 eigenvalues not converged
     c_bands:  4 eigenvalues not converged
     c_bands:  1 eigenvalues not converged
     c_bands:  1 eigenvalues not converged
     ethr =  3.07E-09,  avg # of iterations = 10.6

     negative rho (up, down):  0.000E+00 1.940E-03

     total cpu time spent up to now is     4618.7 secs

     total energy              =   -5262.57727953 Ry
     estimated scf accuracy    <       0.00001638 Ry

     total magnetization       =    52.41 Bohr mag/cell
     absolute magnetization    =    56.03 Bohr mag/cell

     iteration #100     ecut=    71.00 Ry     beta= 0.30
     Davidson diagonalization with overlap
     c_bands:  1 eigenvalues not converged
     c_bands:  1 eigenvalues not converged
     c_bands:  1 eigenvalues not converged
     c_bands:  1 eigenvalues not converged
     c_bands:  5 eigenvalues not converged
     c_bands:  1 eigenvalues not converged
     c_bands:  1 eigenvalues not converged
     c_bands:  5 eigenvalues not converged
     ethr =  3.07E-09,  avg # of iterations =  7.3

     negative rho (up, down):  0.000E+00 1.940E-03

     total cpu time spent up to now is     4673.1 secs

     total energy              =   -5262.57728198 Ry
     estimated scf accuracy    <       0.00001616 Ry

     total magnetization       =    52.41 Bohr mag/cell
     absolute magnetization    =    56.03 Bohr mag/cell

     End of self-consistent calculation

     convergence NOT achieved after 100 iterations: stopping

     Writing output data file /scratch/lVOoJpTMvAjKHtIR.save/
 
     init_run     :     17.06s CPU     17.59s WALL (       1 calls)
     electrons    :   4597.27s CPU   4654.06s WALL (       1 calls)

     Called by init_run:
     wfcinit      :     15.08s CPU     15.43s WALL (       1 calls)
     potinit      :      0.26s CPU      0.32s WALL (       1 calls)
     hinit0       :      0.54s CPU      0.55s WALL (       1 calls)

     Called by electrons:
     c_bands      :   3940.13s CPU   3979.18s WALL (     100 calls)
     sum_band     :    621.41s CPU    633.97s WALL (     100 calls)
     v_of_rho     :      6.34s CPU      6.72s WALL (     101 calls)
     newd         :     13.71s CPU     17.82s WALL (     101 calls)
     PAW_pot      :     12.25s CPU     12.72s WALL (     101 calls)
     mix_rho      :      2.50s CPU      2.71s WALL (     100 calls)

     Called by c_bands:
     init_us_2    :     40.16s CPU     40.63s WALL (   14070 calls)
     cegterg      :   3789.77s CPU   3827.10s WALL (    7074 calls)

     Called by *egterg:
     cdiaghg      :    280.47s CPU    282.08s WALL (   30314 calls)
     h_psi        :   2276.79s CPU   2302.73s WALL (   30384 calls)
     s_psi        :    164.34s CPU    165.44s WALL (   30384 calls)
     g_psi        :      8.59s CPU      8.78s WALL (   23240 calls)

     Called by h_psi:
     h_psi:calbec :    229.71s CPU    231.51s WALL (   30384 calls)
     vloc_psi     :   1870.30s CPU   1892.94s WALL (   30384 calls)
     add_vuspsi   :    153.51s CPU    154.65s WALL (   30384 calls)

     General routines
     calbec       :    320.79s CPU    323.27s WALL (   37384 calls)
     fft          :      4.86s CPU      4.93s WALL (    2523 calls)
     ffts         :      0.53s CPU      0.55s WALL (     402 calls)
     fftw         :   2206.33s CPU   2233.13s WALL ( 5847910 calls)
     interpolate  :      0.71s CPU      0.73s WALL (     202 calls)
     davcio       :      0.01s CPU      0.20s WALL (      92 calls)
 
     Parallel routines
     fft_scatt_xy :    224.55s CPU    227.19s WALL ( 5850835 calls)
     fft_scatt_yz :   1555.26s CPU   1574.66s WALL ( 5850835 calls)
 
     PWSCF        :      1h16m CPU      1h17m WALL

 
   This run was terminated on:  17:23:41  20Mar2022            

=------------------------------------------------------------------------------=
   JOB DONE.
=------------------------------------------------------------------------------=
