
     Program PWSCF v.6.7MaX starts on 17Jan2022 at 13:48:51 

     This program is part of the open-source Quantum ESPRESSO suite
     for quantum simulation of materials; please cite
         "P. Giannozzi et al., J. Phys.:Condens. Matter 21 395502 (2009);
         "P. Giannozzi et al., J. Phys.:Condens. Matter 29 465901 (2017);
          URL http://www.quantum-espresso.org", 
     in publications or presentations arising from this work. More details at
     http://www.quantum-espresso.org/quote

     Parallel version (MPI & OpenMP), running on      72 processor cores
     Number of MPI processes:                72
     Threads/MPI process:                     1

     MPI processes distributed on     1 nodes
     R & G space division:  proc/nbgrp/npool/nimage =      72
     Reading input from bcc_5.in
Warning: card &CELL ignored
Warning: card CELL_DYNAMICS = 'BFGS', ignored
Warning: card CELL_FACTOR = 2.0, ignored
Warning: card PRESS = 0.0, ignored
Warning: card / ignored

     Current dimensions of program PWSCF are:
     Max number of different atomic species (ntypx) = 10
     Max number of k-points (npk) =  40000
     Max angular momentum in pseudopotentials (lmaxx) =  3
     file Fe.pbe-spn-kjpaw_psl.1.0.0.UPF: wavefunction(s)  3P 3D renormalized
     file Fe.pbe-spn-kjpaw_psl.1.0.0.UPF: wavefunction(s)  3P 3D renormalized

     Subspace diagonalization in iterative solution of the eigenvalue problem:
     one sub-group per band group will be used
     ELPA distributed-memory algorithm (size of sub-group:  8*  8 procs)

     Found symmetry operation: I + (  0.0000  0.0000  0.5000)
     This is a supercell, fractional translations are disabled
     Message from routine setup:
     using ibrav=0 with symmetry is DISCOURAGED, use correct ibrav instead
 
     Parallelization info
     --------------------
     sticks:   dense  smooth     PW     G-vecs:    dense   smooth      PW
     Min          51      34      9                 2355     1260     187
     Max          52      35     10                 2362     1266     192
     Sum        3705    2449    681               169797    91047   13613
 


     bravais-lattice index     =            0
     lattice parameter (alat)  =      10.2690  a.u.
     unit-cell volume          =    1126.2145 (a.u.)^3
     number of atoms/cell      =           16
     number of atomic types    =            2
     number of electrons       =       256.00
     number of Kohn-Sham states=          154
     kinetic-energy cutoff     =      71.0000  Ry
     charge density cutoff     =     430.0000  Ry
     scf convergence threshold =      1.0E-07
     mixing beta               =       0.1000
     number of iterations used =           10  local-TF  mixing
     Exchange-correlation= SLA  PW   PBX  PBC
                           (   1   4   3   4   0   0   0)

     celldm(1)=  10.269041  celldm(2)=   0.000000  celldm(3)=   0.000000
     celldm(4)=   0.000000  celldm(5)=   0.000000  celldm(6)=   0.000000

     crystal axes: (cart. coord. in units of alat)
               a(1) = (   1.013158   0.000000   0.000000 )  
               a(2) = (   0.000000   1.013158   0.000000 )  
               a(3) = (   0.000000   0.000000   1.013158 )  

     reciprocal axes: (cart. coord. in units 2 pi/alat)
               b(1) = (  0.987013  0.000000  0.000000 )  
               b(2) = (  0.000000  0.987013  0.000000 )  
               b(3) = (  0.000000  0.000000  0.987013 )  


     PseudoPot. # 1 for Fe read from file:
     /rds/homes/b/bxp912/pp/Fe.pbe-spn-kjpaw_psl.1.0.0.UPF
     MD5 check sum: 42f43b795421b414b0dc916aa790dbcb
     Pseudo is Projector augmented-wave + core cor, Zval = 16.0
     Generated using &quot;atomic&quot; code by A. Dal Corso  v.6.3
     Shape of augmentation charge: PSQ
     Using radial grid of 1191 points,  6 beta functions with: 
                l(1) =   0
                l(2) =   0
                l(3) =   1
                l(4) =   1
                l(5) =   2
                l(6) =   2
     Q(r) pseudized with 0 coefficients 


     PseudoPot. # 2 for Fe read from file:
     /rds/homes/b/bxp912/pp/Fe.pbe-spn-kjpaw_psl.1.0.0.UPF
     MD5 check sum: 42f43b795421b414b0dc916aa790dbcb
     Pseudo is Projector augmented-wave + core cor, Zval = 16.0
     Generated using &quot;atomic&quot; code by A. Dal Corso  v.6.3
     Shape of augmentation charge: PSQ
     Using radial grid of 1191 points,  6 beta functions with: 
                l(1) =   0
                l(2) =   0
                l(3) =   1
                l(4) =   1
                l(5) =   2
                l(6) =   2
     Q(r) pseudized with 0 coefficients 


     atomic species   valence    mass     pseudopotential
        Fe1           16.00    55.84500     Fe( 1.00)
        Fe2           16.00    55.84500     Fe( 1.00)

     Starting magnetic structure 
     atomic species   magnetization
        Fe1          0.100
        Fe2          0.100

     48 Sym. Ops., with inversion, found



   Cartesian axes

     site n.     atom                  positions (alat units)
         1           Fe1 tau(   1) = (   0.0000000   0.0000000   0.0000000  )
         2           Fe2 tau(   2) = (   0.2532895   0.2532895   0.2532895  )
         3           Fe1 tau(   3) = (   0.0000000   0.0000000   0.5065789  )
         4           Fe2 tau(   4) = (   0.2532895   0.2532895   0.7598684  )
         5           Fe1 tau(   5) = (   0.0000000   0.5065789   0.0000000  )
         6           Fe2 tau(   6) = (   0.2532895   0.7598684   0.2532895  )
         7           Fe1 tau(   7) = (   0.0000000   0.5065789   0.5065789  )
         8           Fe2 tau(   8) = (   0.2532895   0.7598684   0.7598684  )
         9           Fe1 tau(   9) = (   0.5065789   0.0000000   0.0000000  )
        10           Fe2 tau(  10) = (   0.7598684   0.2532895   0.2532895  )
        11           Fe1 tau(  11) = (   0.5065789   0.0000000   0.5065789  )
        12           Fe2 tau(  12) = (   0.7598684   0.2532895   0.7598684  )
        13           Fe1 tau(  13) = (   0.5065789   0.5065789   0.0000000  )
        14           Fe2 tau(  14) = (   0.7598684   0.7598684   0.2532895  )
        15           Fe1 tau(  15) = (   0.5065789   0.5065789   0.5065789  )
        16           Fe2 tau(  16) = (   0.7598684   0.7598684   0.7598684  )

     number of k points=    35  Marzari-Vanderbilt smearing, width (Ry)=  0.0400
                       cart. coord. in units 2pi/alat
        k(    1) = (   0.0548341   0.0548341   0.0548341), wk =   0.0109739
        k(    2) = (   0.0548341   0.0548341   0.1645022), wk =   0.0329218
        k(    3) = (   0.0548341   0.0548341   0.2741703), wk =   0.0329218
        k(    4) = (   0.0548341   0.0548341   0.3838384), wk =   0.0329218
        k(    5) = (   0.0548341   0.0548341  -0.4935065), wk =   0.0164609
        k(    6) = (   0.0548341   0.1645022   0.1645022), wk =   0.0329218
        k(    7) = (   0.0548341   0.1645022   0.2741703), wk =   0.0658436
        k(    8) = (   0.0548341   0.1645022   0.3838384), wk =   0.0658436
        k(    9) = (   0.0548341   0.1645022  -0.4935065), wk =   0.0329218
        k(   10) = (   0.0548341   0.2741703   0.2741703), wk =   0.0329218
        k(   11) = (   0.0548341   0.2741703   0.3838384), wk =   0.0658436
        k(   12) = (   0.0548341   0.2741703  -0.4935065), wk =   0.0329218
        k(   13) = (   0.0548341   0.3838384   0.3838384), wk =   0.0329218
        k(   14) = (   0.0548341   0.3838384  -0.4935065), wk =   0.0329218
        k(   15) = (   0.0548341  -0.4935065  -0.4935065), wk =   0.0082305
        k(   16) = (   0.1645022   0.1645022   0.1645022), wk =   0.0109739
        k(   17) = (   0.1645022   0.1645022   0.2741703), wk =   0.0329218
        k(   18) = (   0.1645022   0.1645022   0.3838384), wk =   0.0329218
        k(   19) = (   0.1645022   0.1645022  -0.4935065), wk =   0.0164609
        k(   20) = (   0.1645022   0.2741703   0.2741703), wk =   0.0329218
        k(   21) = (   0.1645022   0.2741703   0.3838384), wk =   0.0658436
        k(   22) = (   0.1645022   0.2741703  -0.4935065), wk =   0.0329218
        k(   23) = (   0.1645022   0.3838384   0.3838384), wk =   0.0329218
        k(   24) = (   0.1645022   0.3838384  -0.4935065), wk =   0.0329218
        k(   25) = (   0.1645022  -0.4935065  -0.4935065), wk =   0.0082305
        k(   26) = (   0.2741703   0.2741703   0.2741703), wk =   0.0109739
        k(   27) = (   0.2741703   0.2741703   0.3838384), wk =   0.0329218
        k(   28) = (   0.2741703   0.2741703  -0.4935065), wk =   0.0164609
        k(   29) = (   0.2741703   0.3838384   0.3838384), wk =   0.0329218
        k(   30) = (   0.2741703   0.3838384  -0.4935065), wk =   0.0329218
        k(   31) = (   0.2741703  -0.4935065  -0.4935065), wk =   0.0082305
        k(   32) = (   0.3838384   0.3838384   0.3838384), wk =   0.0109739
        k(   33) = (   0.3838384   0.3838384  -0.4935065), wk =   0.0164609
        k(   34) = (   0.3838384  -0.4935065  -0.4935065), wk =   0.0082305
        k(   35) = (  -0.4935065  -0.4935065  -0.4935065), wk =   0.0013717

     Dense  grid:   169797 G-vectors     FFT dimensions: (  72,  72,  72)

     Smooth grid:    91047 G-vectors     FFT dimensions: (  60,  60,  60)

     Estimated max dynamical RAM per process >      40.57 MB

     Estimated total dynamical RAM >       2.85 GB

     Check: negative core charge=   -0.000006
     Generating pointlists ...
     new r_m :   0.1810 (alat units)  1.8584 (a.u.) for type    1
     new r_m :   0.1810 (alat units)  1.8584 (a.u.) for type    2

     Initial potential from superposition of free atoms

     starting charge  255.99300, renormalised to  256.00000
     Starting wfcs are  160 randomized atomic wfcs
     Checking if some PAW data can be deallocated... 

     total cpu time spent up to now is        6.3 secs

     Self-consistent Calculation

     iteration #  1     ecut=    71.00 Ry     beta= 0.10
     Davidson diagonalization with overlap
     ethr =  1.00E-02,  avg # of iterations =  3.4

     Threshold (ethr) on eigenvalues was too large:
     Diagonalizing with lowered threshold

     Davidson diagonalization with overlap
     ethr =  1.36E-04,  avg # of iterations =  5.3

     total cpu time spent up to now is       34.4 secs

     total energy              =   -5267.99859855 Ry
     estimated scf accuracy    <       0.64000847 Ry

     total magnetization       =    26.95 Bohr mag/cell
     absolute magnetization    =    27.03 Bohr mag/cell

     iteration #  2     ecut=    71.00 Ry     beta= 0.10
     Davidson diagonalization with overlap
     ethr =  2.50E-04,  avg # of iterations =  1.0

     total cpu time spent up to now is       43.6 secs

     total energy              =   -5267.92407963 Ry
     estimated scf accuracy    <       0.49744263 Ry

     total magnetization       =    27.41 Bohr mag/cell
     absolute magnetization    =    27.51 Bohr mag/cell

     iteration #  3     ecut=    71.00 Ry     beta= 0.10
     Davidson diagonalization with overlap
     ethr =  1.94E-04,  avg # of iterations =  3.7

     total cpu time spent up to now is       57.0 secs

     total energy              =   -5268.02916164 Ry
     estimated scf accuracy    <       0.09135575 Ry

     total magnetization       =    29.94 Bohr mag/cell
     absolute magnetization    =    30.51 Bohr mag/cell

     iteration #  4     ecut=    71.00 Ry     beta= 0.10
     Davidson diagonalization with overlap
     ethr =  3.57E-05,  avg # of iterations =  3.3

     negative rho (up, down):  0.000E+00 9.164E-04

     total cpu time spent up to now is       68.5 secs

     total energy              =   -5268.11663346 Ry
     estimated scf accuracy    <       0.07094051 Ry

     total magnetization       =    29.50 Bohr mag/cell
     absolute magnetization    =    29.95 Bohr mag/cell

     iteration #  5     ecut=    71.00 Ry     beta= 0.10
     Davidson diagonalization with overlap
     ethr =  2.77E-05,  avg # of iterations =  3.9

     negative rho (up, down):  0.000E+00 2.427E-03

     total cpu time spent up to now is       84.1 secs

     total energy              =   -5268.10646888 Ry
     estimated scf accuracy    <       0.16834123 Ry

     total magnetization       =    31.30 Bohr mag/cell
     absolute magnetization    =    32.52 Bohr mag/cell

     iteration #  6     ecut=    71.00 Ry     beta= 0.10
     Davidson diagonalization with overlap
     ethr =  2.77E-05,  avg # of iterations =  4.3

     negative rho (up, down):  0.000E+00 1.750E-03

     total cpu time spent up to now is      100.3 secs

     total energy              =   -5268.13725038 Ry
     estimated scf accuracy    <       0.00389566 Ry

     total magnetization       =    31.54 Bohr mag/cell
     absolute magnetization    =    32.85 Bohr mag/cell

     iteration #  7     ecut=    71.00 Ry     beta= 0.10
     Davidson diagonalization with overlap
     ethr =  1.52E-06,  avg # of iterations =  2.8

     negative rho (up, down):  0.000E+00 1.930E-03

     total cpu time spent up to now is      112.3 secs

     total energy              =   -5268.13933985 Ry
     estimated scf accuracy    <       0.00321158 Ry

     total magnetization       =    31.51 Bohr mag/cell
     absolute magnetization    =    32.79 Bohr mag/cell

     iteration #  8     ecut=    71.00 Ry     beta= 0.10
     Davidson diagonalization with overlap
     ethr =  1.25E-06,  avg # of iterations =  2.8

     negative rho (up, down):  0.000E+00 1.993E-03

     total cpu time spent up to now is      123.7 secs

     total energy              =   -5268.13964209 Ry
     estimated scf accuracy    <       0.00144349 Ry

     total magnetization       =    31.72 Bohr mag/cell
     absolute magnetization    =    33.08 Bohr mag/cell

     iteration #  9     ecut=    71.00 Ry     beta= 0.10
     Davidson diagonalization with overlap
     ethr =  5.64E-07,  avg # of iterations =  3.2

     negative rho (up, down):  0.000E+00 2.039E-03

     total cpu time spent up to now is      137.3 secs

     total energy              =   -5268.14013541 Ry
     estimated scf accuracy    <       0.00082260 Ry

     total magnetization       =    31.87 Bohr mag/cell
     absolute magnetization    =    33.30 Bohr mag/cell

     iteration # 10     ecut=    71.00 Ry     beta= 0.10
     Davidson diagonalization with overlap
     ethr =  3.21E-07,  avg # of iterations =  2.2

     negative rho (up, down):  0.000E+00 2.006E-03

     total cpu time spent up to now is      148.0 secs

     total energy              =   -5268.14030338 Ry
     estimated scf accuracy    <       0.00018596 Ry

     total magnetization       =    31.90 Bohr mag/cell
     absolute magnetization    =    33.35 Bohr mag/cell

     iteration # 11     ecut=    71.00 Ry     beta= 0.10
     Davidson diagonalization with overlap
     ethr =  7.26E-08,  avg # of iterations =  5.0

     negative rho (up, down):  0.000E+00 2.128E-03

     total cpu time spent up to now is      165.7 secs

     total energy              =   -5268.14014542 Ry
     estimated scf accuracy    <       0.00125834 Ry

     total magnetization       =    31.94 Bohr mag/cell
     absolute magnetization    =    33.39 Bohr mag/cell

     iteration # 12     ecut=    71.00 Ry     beta= 0.10
     Davidson diagonalization with overlap
     ethr =  7.26E-08,  avg # of iterations =  4.6

     negative rho (up, down):  0.000E+00 2.109E-03

     total cpu time spent up to now is      182.4 secs

     total energy              =   -5268.14036180 Ry
     estimated scf accuracy    <       0.00002019 Ry

     total magnetization       =    32.02 Bohr mag/cell
     absolute magnetization    =    33.52 Bohr mag/cell

     iteration # 13     ecut=    71.00 Ry     beta= 0.10
     Davidson diagonalization with overlap
     ethr =  7.89E-09,  avg # of iterations =  5.5

     negative rho (up, down):  0.000E+00 2.125E-03

     total cpu time spent up to now is      201.7 secs

     total energy              =   -5268.14034313 Ry
     estimated scf accuracy    <       0.00008891 Ry

     total magnetization       =    32.00 Bohr mag/cell
     absolute magnetization    =    33.50 Bohr mag/cell

     iteration # 14     ecut=    71.00 Ry     beta= 0.10
     Davidson diagonalization with overlap
     ethr =  7.89E-09,  avg # of iterations =  5.7

     negative rho (up, down):  0.000E+00 2.150E-03

     total cpu time spent up to now is      221.0 secs

     total energy              =   -5268.14035510 Ry
     estimated scf accuracy    <       0.00005200 Ry

     total magnetization       =    32.01 Bohr mag/cell
     absolute magnetization    =    33.50 Bohr mag/cell

     iteration # 15     ecut=    71.00 Ry     beta= 0.10
     Davidson diagonalization with overlap
     ethr =  7.89E-09,  avg # of iterations =  5.6

     negative rho (up, down):  0.000E+00 2.162E-03

     total cpu time spent up to now is      239.7 secs

     total energy              =   -5268.14037129 Ry
     estimated scf accuracy    <       0.00005680 Ry

     total magnetization       =    32.01 Bohr mag/cell
     absolute magnetization    =    33.51 Bohr mag/cell

     iteration # 16     ecut=    71.00 Ry     beta= 0.10
     Davidson diagonalization with overlap
     ethr =  7.89E-09,  avg # of iterations =  4.0

     negative rho (up, down):  0.000E+00 2.164E-03

     total cpu time spent up to now is      254.9 secs

     total energy              =   -5268.14037979 Ry
     estimated scf accuracy    <       0.00000035 Ry

     total magnetization       =    32.01 Bohr mag/cell
     absolute magnetization    =    33.51 Bohr mag/cell

     iteration # 17     ecut=    71.00 Ry     beta= 0.10
     Davidson diagonalization with overlap
     ethr =  1.38E-10,  avg # of iterations =  5.5

     negative rho (up, down):  0.000E+00 2.165E-03

     total cpu time spent up to now is      274.4 secs

     total energy              =   -5268.14038027 Ry
     estimated scf accuracy    <       0.00000219 Ry

     total magnetization       =    32.01 Bohr mag/cell
     absolute magnetization    =    33.51 Bohr mag/cell

     iteration # 18     ecut=    71.00 Ry     beta= 0.10
     Davidson diagonalization with overlap
     ethr =  1.38E-10,  avg # of iterations =  4.1

     negative rho (up, down):  0.000E+00 2.164E-03

     total cpu time spent up to now is      288.0 secs

     total energy              =   -5268.14038046 Ry
     estimated scf accuracy    <       0.00000050 Ry

     total magnetization       =    32.01 Bohr mag/cell
     absolute magnetization    =    33.51 Bohr mag/cell

     iteration # 19     ecut=    71.00 Ry     beta= 0.10
     Davidson diagonalization with overlap
     ethr =  1.38E-10,  avg # of iterations =  1.5

     negative rho (up, down):  0.000E+00 2.164E-03

     total cpu time spent up to now is      297.7 secs

     total energy              =   -5268.14038050 Ry
     estimated scf accuracy    <       0.00000030 Ry

     total magnetization       =    32.01 Bohr mag/cell
     absolute magnetization    =    33.51 Bohr mag/cell

     iteration # 20     ecut=    71.00 Ry     beta= 0.10
     Davidson diagonalization with overlap
     ethr =  1.17E-10,  avg # of iterations =  2.0

     negative rho (up, down):  0.000E+00 2.167E-03
 
     Magnetic moment per site:
     atom:    1    charge:   14.3225    magn:    2.0341    constr:    0.0000
     atom:    2    charge:   14.3225    magn:    2.0342    constr:    0.0000
     atom:    3    charge:   14.3225    magn:    2.0341    constr:    0.0000
     atom:    4    charge:   14.3225    magn:    2.0342    constr:    0.0000
     atom:    5    charge:   14.3225    magn:    2.0341    constr:    0.0000
     atom:    6    charge:   14.3225    magn:    2.0342    constr:    0.0000
     atom:    7    charge:   14.3225    magn:    2.0342    constr:    0.0000
     atom:    8    charge:   14.3225    magn:    2.0342    constr:    0.0000
     atom:    9    charge:   14.3225    magn:    2.0341    constr:    0.0000
     atom:   10    charge:   14.3225    magn:    2.0342    constr:    0.0000
     atom:   11    charge:   14.3225    magn:    2.0342    constr:    0.0000
     atom:   12    charge:   14.3225    magn:    2.0342    constr:    0.0000
     atom:   13    charge:   14.3225    magn:    2.0342    constr:    0.0000
     atom:   14    charge:   14.3225    magn:    2.0342    constr:    0.0000
     atom:   15    charge:   14.3225    magn:    2.0343    constr:    0.0000
     atom:   16    charge:   14.3225    magn:    2.0342    constr:    0.0000

     total cpu time spent up to now is      308.2 secs

     End of self-consistent calculation

 ------ SPIN UP ------------


          k = 0.0548 0.0548 0.0548 ( 11342 PWs)   bands (ev):

   -67.8449 -67.7494 -67.7494 -67.7494 -67.7336 -67.7336 -67.7336 -67.7325
   -67.7325 -67.7325 -67.7321 -67.7321 -67.7321 -67.7250 -67.7250 -67.6516
   -34.1090 -34.1090 -34.1090 -34.1062 -34.1062 -34.1062 -33.9496 -33.9496
   -33.9439 -33.8757 -33.8725 -33.8725 -33.8725 -33.8519 -33.8519 -33.8386
   -33.8386 -33.8386 -33.8033 -33.8033 -33.7798 -33.7650 -33.7650 -33.7650
   -33.7540 -33.7540 -33.7540 -33.7414 -33.7414 -33.7414 -33.7385 -33.7385
   -33.7385 -33.7306 -33.7306 -33.7306 -33.7202 -33.7202 -33.7202 -33.5627
   -33.5608 -33.5608 -33.5608 -33.5581 -33.5581 -33.5581 -33.5563 -33.5563
    11.3234  14.9027  14.9027  14.9027  14.9217  14.9217  14.9217  14.9246
    14.9246  15.0397  15.0397  15.0397  15.4450  15.4450  15.4450  16.6423
    16.6485  16.6485  16.6485  16.6624  16.6624  16.6624  16.7345  16.7345
    16.8103  16.8103  16.8103  16.8905  16.8905  16.9516  17.1799  17.1799
    17.1799  17.8871  17.8871  17.9324  18.2353  18.2353  18.2353  18.3217
    18.3217  18.3218  18.4220  18.4220  18.4220  18.5103  18.5103  18.5103
    19.2019  19.2019  19.2019  19.2307  19.2307  19.2715  19.2715  19.2715
    19.3258  19.3258  19.3259  19.3330  19.3330  19.3330  19.4427  19.4427
    19.4427  19.4652  19.4652  19.4652  19.5090  19.5090  19.5098  19.5098
    20.4019  20.4019  20.4019  20.4426  20.4426  20.4426  20.5953  20.6377
    20.6377  20.6377  20.6681  20.6681  21.0473  21.0473  21.0473  21.2065
    21.2065  21.2065

          k = 0.0548 0.0548 0.1645 ( 11345 PWs)   bands (ev):

   -67.8415 -67.7665 -67.7487 -67.7487 -67.7355 -67.7355 -67.7330 -67.7323
   -67.7323 -67.7316 -67.7311 -67.7311 -67.7257 -67.7253 -67.7163 -67.6541
   -34.1014 -34.1014 -34.1002 -34.0976 -34.0928 -34.0928 -33.9529 -33.9435
   -33.9341 -33.9111 -33.9026 -33.9026 -33.9004 -33.8999 -33.8699 -33.8699
   -33.8365 -33.8099 -33.7996 -33.7994 -33.7877 -33.7649 -33.7649 -33.7562
   -33.7471 -33.7449 -33.7449 -33.7433 -33.7433 -33.7356 -33.7356 -33.7311
   -33.7311 -33.7269 -33.7269 -33.6971 -33.6942 -33.6942 -33.6874 -33.5770
   -33.5700 -33.5700 -33.5686 -33.5659 -33.5617 -33.5611 -33.5611 -33.5587
    11.4606  14.4842  14.9264  14.9264  14.9843  14.9843  14.9855  14.9904
    15.0019  15.0196  15.0868  15.0868  15.4808  15.4808  15.6602  16.4465
    16.5276  16.6311  16.6346  16.6468  16.6578  16.6970  16.6970  16.7381
    16.7381  16.7700  16.7921  16.7921  17.1049  17.1051  17.1261  17.1261
    17.5353  17.8636  17.8840  17.9936  18.0257  18.0257  18.0880  18.1905
    18.2009  18.2009  18.4513  18.4513  18.5850  18.5850  18.6507  18.7480
    18.8479  18.8479  18.9665  19.1417  19.1417  19.1647  19.2039  19.2580
    19.2781  19.2781  19.3399  19.3423  19.3630  19.3630  19.4231  19.4231
    19.4680  19.5027  19.5051  19.5062  19.5094  19.6570  19.6570  19.6822
    19.7579  20.0448  20.0454  20.3459  20.3459  20.4343  20.4647  20.4647
    20.5409  20.6607  20.7742  20.7742  21.0833  21.0833  21.1109  21.1109
    21.5117  21.5117

          k = 0.0548 0.0548 0.2742 ( 11363 PWs)   bands (ev):

   -67.8349 -67.7833 -67.7472 -67.7472 -67.7378 -67.7378 -67.7321 -67.7318
   -67.7318 -67.7308 -67.7307 -67.7307 -67.7267 -67.7261 -67.7012 -67.6591
   -34.0838 -34.0838 -34.0830 -34.0811 -34.0698 -34.0698 -33.9538 -33.9513
   -33.9459 -33.9428 -33.9428 -33.9315 -33.9218 -33.9199 -33.9125 -33.9125
   -33.8325 -33.8219 -33.8204 -33.8052 -33.7630 -33.7630 -33.7576 -33.7570
   -33.7533 -33.7488 -33.7488 -33.7338 -33.7338 -33.7311 -33.7311 -33.7115
   -33.7041 -33.6929 -33.6929 -33.6655 -33.6621 -33.6621 -33.6565 -33.6017
   -33.5849 -33.5849 -33.5834 -33.5817 -33.5730 -33.5701 -33.5701 -33.5679
    11.7308  13.8521  14.9854  14.9854  15.0864  15.0864  15.1055  15.1139
    15.1480  15.1480  15.1925  15.2077  15.5063  15.5063  15.6997  16.1018
    16.3700  16.4237  16.5734  16.6097  16.6199  16.6294  16.8053  16.8053
    16.8305  16.8305  16.8730  16.8730  17.1147  17.1147  17.3697  17.3812
    17.7440  17.7440  17.8183  17.8502  17.8798  17.9026  17.9026  17.9793
    18.0837  18.1595  18.3402  18.3402  18.6115  18.6115  18.6560  18.6560
    18.7109  18.7109  18.7432  18.9217  18.9680  19.0290  19.0349  19.1355
    19.2038  19.2038  19.2964  19.2964  19.3106  19.3664  19.3824  19.4730
    19.4890  19.4917  19.5011  19.5085  19.6785  19.7100  19.7100  19.7904
    19.9126  19.9362  19.9362  20.1902  20.3098  20.3802  20.3802  20.5094
    20.5094  20.5915  20.7553  20.7553  20.9472  20.9472  21.2276  21.2276
    21.6213  21.6213

          k = 0.0548 0.0548 0.3838 ( 11381 PWs)   bands (ev):

   -67.8255 -67.7991 -67.7453 -67.7452 -67.7403 -67.7403 -67.7313 -67.7313
   -67.7309 -67.7306 -67.7306 -67.7297 -67.7280 -67.7272 -67.6877 -67.6664
   -34.0582 -34.0572 -34.0572 -34.0571 -34.0379 -34.0379 -33.9907 -33.9884
   -33.9845 -33.9845 -33.9572 -33.9572 -33.9521 -33.9370 -33.9134 -33.9011
   -33.8632 -33.8507 -33.8062 -33.7947 -33.7723 -33.7662 -33.7601 -33.7601
   -33.7527 -33.7527 -33.7324 -33.7324 -33.7312 -33.7312 -33.7139 -33.6708
   -33.6667 -33.6598 -33.6598 -33.6366 -33.6340 -33.6319 -33.6319 -33.6282
   -33.6052 -33.6050 -33.6049 -33.6049 -33.5898 -33.5851 -33.5851 -33.5835
    12.1247  13.2152  15.0651  15.0651  15.1735  15.1735  15.2168  15.2168
    15.2779  15.2824  15.4589  15.4647  15.4647  15.4696  15.6133  15.7872
    16.1002  16.1125  16.5525  16.5707  16.5813  16.5898  16.9683  16.9684
    17.0092  17.0092  17.0610  17.0610  17.2276  17.2276  17.4806  17.4806
    17.6036  17.6036  17.7104  17.7192  17.8305  17.8305  17.8489  17.8793
    17.8965  17.9068  18.0541  18.0541  18.2051  18.3439  18.5384  18.5528
    18.5984  18.8463  18.8519  18.8519  18.8682  18.8682  19.1056  19.1056
    19.1977  19.1977  19.2290  19.3442  19.3875  19.4001  19.4055  19.4664
    19.4678  19.4796  19.4946  19.5102  19.5548  19.6167  19.8881  19.9868
    19.9868  20.0106  20.1265  20.2092  20.2092  20.3471  20.3471  20.4737
    20.5778  20.5778  20.6363  20.6363  20.8024  20.8024  21.3752  21.3752
    21.6171  21.6171

          k = 0.0548 0.0548-0.4935 ( 11364 PWs)   bands (ev):

   -67.8133 -67.8133 -67.7429 -67.7429 -67.7428 -67.7428 -67.7309 -67.7309
   -67.7308 -67.7308 -67.7295 -67.7295 -67.7285 -67.7284 -67.6761 -67.6760
   -34.0266 -34.0265 -34.0263 -34.0263 -34.0232 -34.0232 -34.0232 -34.0232
   -33.9998 -33.9997 -33.9997 -33.9997 -33.9467 -33.9467 -33.8904 -33.8904
   -33.8780 -33.8780 -33.7892 -33.7892 -33.7809 -33.7809 -33.7565 -33.7565
   -33.7565 -33.7565 -33.7317 -33.7317 -33.7316 -33.7316 -33.6716 -33.6716
   -33.6349 -33.6348 -33.6334 -33.6333 -33.6301 -33.6301 -33.6301 -33.6300
   -33.6112 -33.6112 -33.6058 -33.6058 -33.6058 -33.6058 -33.6036 -33.6036
    12.6274  12.6274  15.1392  15.1392  15.1392  15.1392  15.3548  15.3548
    15.3548  15.3548  15.4567  15.4567  15.5116  15.5116  15.7767  15.7767
    15.7797  15.7797  16.5588  16.5589  16.5680  16.5681  17.1733  17.1733
    17.1733  17.1733  17.2509  17.2509  17.2509  17.2509  17.4248  17.4248
    17.4248  17.4248  17.5940  17.5940  17.5940  17.5941  17.8657  17.8657
    17.8875  17.8875  18.1151  18.1151  18.1208  18.1208  18.3575  18.3575
    18.6083  18.6083  18.9868  18.9868  18.9869  18.9869  19.0541  19.0541
    19.0541  19.0541  19.4356  19.4356  19.4368  19.4368  19.4871  19.4872
    19.4883  19.4884  19.5200  19.5200  19.5583  19.5583  19.6787  19.6787
    20.2117  20.2117  20.2117  20.2117  20.3159  20.3160  20.4483  20.4483
    20.4483  20.4483  20.6742  20.6742  20.6742  20.6742  21.5197  21.5197
    21.5197  21.5197

          k = 0.0548 0.1645 0.1645 ( 11361 PWs)   bands (ev):

   -67.8383 -67.7653 -67.7653 -67.7479 -67.7403 -67.7350 -67.7350 -67.7320
   -67.7307 -67.7307 -67.7273 -67.7265 -67.7254 -67.7165 -67.7165 -67.6566
   -34.0995 -34.0930 -34.0930 -34.0852 -34.0852 -34.0740 -33.9598 -33.9399
   -33.9336 -33.9286 -33.9286 -33.9213 -33.9191 -33.9144 -33.8905 -33.8467
   -33.8317 -33.8317 -33.7993 -33.7986 -33.7985 -33.7705 -33.7596 -33.7596
   -33.7543 -33.7514 -33.7514 -33.7409 -33.7409 -33.7375 -33.7352 -33.7271
   -33.7168 -33.7052 -33.6983 -33.6983 -33.6751 -33.6628 -33.6628 -33.5974
   -33.5847 -33.5760 -33.5760 -33.5685 -33.5685 -33.5666 -33.5578 -33.5564
    11.5962  14.5515  14.5515  14.8999  15.0270  15.0270  15.0452  15.0558
    15.0776  15.0814  15.0814  15.1426  15.5290  15.6970  15.6970  16.4250
    16.4541  16.4541  16.5367  16.6797  16.6797  16.7105  16.7163  16.7163
    16.7174  16.7540  16.8376  16.8402  17.0542  17.1060  17.1169  17.4286
    17.4286  17.8052  17.8696  17.8903  17.8903  17.9468  18.0770  18.0934
    18.3715  18.3715  18.4153  18.4153  18.4484  18.4964  18.6332  18.7670
    18.7670  18.7689  18.7689  19.0576  19.0576  19.1552  19.1897  19.1907
    19.1907  19.2010  19.2390  19.2948  19.2948  19.3564  19.3564  19.4444
    19.4939  19.5012  19.5040  19.5136  19.5705  19.7630  19.7719  19.8610
    19.8610  19.8875  19.8875  20.0375  20.0375  20.2208  20.2678  20.2678
    20.4459  20.5249  20.6862  20.8553  20.8909  21.2124  21.7750  21.7750
    21.9975  21.9975

          k = 0.0548 0.1645 0.2742 ( 11374 PWs)   bands (ev):

   -67.8319 -67.7815 -67.7629 -67.7465 -67.7453 -67.7373 -67.7340 -67.7316
   -67.7303 -67.7300 -67.7278 -67.7259 -67.7241 -67.7171 -67.7020 -67.6613
   -34.0876 -34.0767 -34.0765 -34.0707 -34.0638 -34.0460 -33.9660 -33.9654
   -33.9625 -33.9516 -33.9496 -33.9479 -33.9280 -33.9236 -33.9000 -33.8757
   -33.8359 -33.8309 -33.7956 -33.7946 -33.7921 -33.7893 -33.7721 -33.7638
   -33.7636 -33.7565 -33.7505 -33.7394 -33.7374 -33.7250 -33.7196 -33.7018
   -33.7004 -33.6860 -33.6778 -33.6673 -33.6507 -33.6337 -33.6335 -33.6266
   -33.6045 -33.5883 -33.5880 -33.5832 -33.5775 -33.5758 -33.5609 -33.5600
    11.8629  13.9404  14.6632  14.8939  15.0874  15.1589  15.1828  15.1832
    15.2034  15.2200  15.2203  15.2673  15.5768  15.7108  15.7433  16.1293
    16.3091  16.3977  16.5344  16.6343  16.6496  16.6790  16.7275  16.7547
    16.7788  16.7976  16.8369  17.0006  17.0050  17.2736  17.3095  17.3594
    17.6329  17.6522  17.7517  17.7529  17.7976  17.8541  17.8587  17.9978
    18.1047  18.2222  18.2762  18.3808  18.5109  18.5769  18.6217  18.6599
    18.6704  18.7454  18.7540  18.7759  18.7996  18.9641  19.0069  19.0581
    19.0951  19.2238  19.2787  19.2937  19.3271  19.3497  19.3593  19.4761
    19.4819  19.4856  19.5031  19.5234  19.6042  19.7251  19.7504  19.7682
    19.8981  19.9358  19.9404  19.9762  20.0240  20.1061  20.1531  20.2225
    20.3544  20.6447  20.6541  20.6707  20.8764  21.3966  21.5646  22.1785
    22.2011  22.4942

          k = 0.0548 0.1645 0.3838 ( 11368 PWs)   bands (ev):

   -67.8226 -67.7969 -67.7594 -67.7504 -67.7446 -67.7397 -67.7326 -67.7311
   -67.7303 -67.7293 -67.7290 -67.7268 -67.7215 -67.7181 -67.6889 -67.6684
   -34.0667 -34.0529 -34.0517 -34.0495 -34.0346 -34.0098 -34.0033 -33.9933
   -33.9877 -33.9864 -33.9684 -33.9614 -33.9603 -33.9226 -33.9105 -33.8778
   -33.8610 -33.8229 -33.8187 -33.7887 -33.7878 -33.7803 -33.7729 -33.7703
   -33.7629 -33.7616 -33.7458 -33.7385 -33.7380 -33.7132 -33.7036 -33.6900
   -33.6652 -33.6619 -33.6559 -33.6507 -33.6391 -33.6289 -33.6265 -33.6081
   -33.6070 -33.6055 -33.6050 -33.6046 -33.5936 -33.5882 -33.5702 -33.5700
    12.2512  13.3205  14.7779  14.8885  15.1675  15.2630  15.3136  15.3200
    15.3528  15.3568  15.4897  15.5239  15.5537  15.6425  15.6616  15.8315
    16.1070  16.1353  16.5845  16.6153  16.6287  16.6381  16.7548  16.8813
    16.9193  16.9332  16.9879  17.0478  17.2092  17.3184  17.4885  17.5445
    17.5632  17.5684  17.5977  17.6257  17.7194  17.7237  17.7833  17.7864
    17.8069  17.8371  17.9865  18.1685  18.2790  18.3564  18.3749  18.5083
    18.7489  18.8493  18.8608  18.8697  18.8818  18.8987  18.9643  19.0022
    19.1294  19.1923  19.2442  19.2932  19.3569  19.3701  19.3820  19.4489
    19.4564  19.5037  19.5292  19.5444  19.5899  19.6201  19.6900  19.7546
    19.8132  19.8914  19.9300  20.0096  20.0256  20.1006  20.3038  20.3345
    20.4075  20.4113  20.5960  20.7822  20.8512  21.3339  21.6297  22.0747
    22.3920  22.6413

          k = 0.0548 0.1645-0.4935 ( 11366 PWs)   bands (ev):

   -67.8107 -67.8107 -67.7552 -67.7551 -67.7422 -67.7422 -67.7310 -67.7310
   -67.7305 -67.7305 -67.7279 -67.7279 -67.7195 -67.7195 -67.6776 -67.6776
   -34.0380 -34.0380 -34.0232 -34.0232 -34.0229 -34.0228 -34.0206 -34.0206
   -33.9994 -33.9994 -33.9681 -33.9681 -33.9669 -33.9669 -33.8878 -33.8878
   -33.8519 -33.8519 -33.7996 -33.7996 -33.7814 -33.7814 -33.7762 -33.7761
   -33.7663 -33.7663 -33.7383 -33.7383 -33.7077 -33.7077 -33.7024 -33.7024
   -33.6578 -33.6578 -33.6325 -33.6324 -33.6285 -33.6285 -33.6259 -33.6259
   -33.6142 -33.6142 -33.6053 -33.6053 -33.5866 -33.5866 -33.5855 -33.5855
    12.7452  12.7452  14.8563  14.8564  15.2388  15.2388  15.4505  15.4505
    15.5038  15.5038  15.5089  15.5089  15.5718  15.5718  15.8086  15.8086
    15.8209  15.8209  16.5880  16.5880  16.6115  16.6115  17.0549  17.0549
    17.0567  17.0567  17.0968  17.0968  17.1166  17.1166  17.4927  17.4927
    17.5205  17.5205  17.6073  17.6073  17.7097  17.7097  17.7215  17.7215
    17.8175  17.8175  17.9328  17.9328  17.9374  17.9374  18.5510  18.5510
    18.7037  18.7038  18.9181  18.9181  19.0140  19.0140  19.0457  19.0457
    19.0835  19.0836  19.2868  19.2868  19.4151  19.4152  19.4157  19.4158
    19.4595  19.4595  19.5088  19.5088  19.5903  19.5903  19.6093  19.6093
    19.8585  19.8585  19.9779  19.9779  20.1670  20.1670  20.2411  20.2411
    20.4704  20.4704  20.6222  20.6222  21.0890  21.0890  21.8703  21.8703
    22.5745  22.5745

          k = 0.0548 0.2742 0.2742 ( 11367 PWs)   bands (ev):

   -67.8258 -67.7781 -67.7781 -67.7530 -67.7452 -67.7361 -67.7361 -67.7312
   -67.7296 -67.7296 -67.7293 -67.7262 -67.7182 -67.7035 -67.7035 -67.6657
   -34.0817 -34.0622 -34.0622 -34.0523 -34.0523 -34.0134 -33.9813 -33.9813
   -33.9781 -33.9778 -33.9687 -33.9656 -33.9439 -33.9170 -33.8761 -33.8369
   -33.8337 -33.8337 -33.8251 -33.8251 -33.7910 -33.7806 -33.7787 -33.7704
   -33.7704 -33.7573 -33.7573 -33.7490 -33.7490 -33.7437 -33.7065 -33.6789
   -33.6713 -33.6713 -33.6640 -33.6607 -33.6579 -33.6346 -33.6285 -33.6080
   -33.6079 -33.5954 -33.5954 -33.5878 -33.5874 -33.5874 -33.5580 -33.5570
    12.1222  14.1013  14.1013  14.7967  15.2574  15.2829  15.2829  15.3178
    15.3315  15.3351  15.3673  15.3673  15.6736  15.7627  15.7627  16.2452
    16.2452  16.2478  16.3203  16.6793  16.6818  16.7331  16.7331  16.7559
    16.7756  16.7756  16.8484  16.8966  17.1848  17.2262  17.2858  17.5071
    17.5072  17.6000  17.6000  17.6109  17.6544  17.6749  17.7465  17.8201
    18.1363  18.1363  18.2897  18.2897  18.3492  18.3492  18.3949  18.5490
    18.6326  18.6326  18.7449  18.8307  18.9494  18.9494  18.9949  19.0606
    19.2521  19.2521  19.2554  19.2637  19.2637  19.3000  19.3000  19.3287
    19.4072  19.4494  19.4653  19.5137  19.5480  19.6286  19.7247  19.7247
    19.7296  19.7296  19.7907  19.9519  20.0089  20.0160  20.0160  20.3496
    20.3496  20.4019  20.7208  20.9031  20.9124  21.6791  22.2396  22.2396
    22.8991  22.8991

          k = 0.0548 0.2742 0.3838 ( 11386 PWs)   bands (ev):

   -67.8169 -67.7926 -67.7733 -67.7604 -67.7433 -67.7385 -67.7346 -67.7310
   -67.7306 -67.7297 -67.7288 -67.7269 -67.7132 -67.7059 -67.6913 -67.6723
   -34.0665 -34.0422 -34.0416 -34.0364 -34.0279 -34.0143 -33.9971 -33.9912
   -33.9904 -33.9894 -33.9869 -33.9743 -33.9706 -33.9004 -33.8817 -33.8536
   -33.8495 -33.8259 -33.8166 -33.7928 -33.7893 -33.7892 -33.7889 -33.7844
   -33.7836 -33.7770 -33.7614 -33.7487 -33.7471 -33.7218 -33.7003 -33.6951
   -33.6773 -33.6565 -33.6519 -33.6449 -33.6423 -33.6380 -33.6189 -33.6072
   -33.6066 -33.6045 -33.6025 -33.5949 -33.5867 -33.5862 -33.5607 -33.5604
    12.4981  13.5205  14.3033  14.6720  15.3618  15.3942  15.4172  15.4733
    15.4957  15.5040  15.5522  15.6175  15.6921  15.7046  15.7093  15.9744
    16.1250  16.1458  16.4871  16.6423  16.6812  16.6853  16.7086  16.7217
    16.8370  16.8717  16.8727  16.9544  17.2055  17.3041  17.3784  17.4238
    17.4330  17.5126  17.5579  17.5776  17.5857  17.6009  17.6788  17.7359
    17.7811  17.8400  17.9228  17.9809  18.0176  18.0982  18.5877  18.6340
    18.7130  18.8709  18.8972  18.9018  18.9221  18.9493  18.9767  19.0213
    19.1684  19.1773  19.1996  19.2252  19.2908  19.3070  19.3177  19.3254
    19.4110  19.4280  19.4617  19.5302  19.5359  19.5384  19.5881  19.6111
    19.6760  19.7327  19.7910  19.7951  19.8142  19.9887  20.0493  20.1438
    20.5148  20.5714  20.7097  20.8575  21.2341  21.9170  22.0150  22.6658
    22.9449  23.5781

          k = 0.0548 0.2742-0.4935 ( 11384 PWs)   bands (ev):

   -67.8058 -67.8057 -67.7673 -67.7673 -67.7410 -67.7410 -67.7329 -67.7328
   -67.7301 -67.7300 -67.7278 -67.7278 -67.7091 -67.7091 -67.6809 -67.6808
   -34.0436 -34.0436 -34.0174 -34.0173 -34.0173 -34.0172 -34.0169 -34.0168
   -33.9997 -33.9997 -33.9910 -33.9910 -33.9294 -33.9294 -33.8791 -33.8790
   -33.8201 -33.8201 -33.8086 -33.8086 -33.8055 -33.8055 -33.7819 -33.7818
   -33.7742 -33.7741 -33.7484 -33.7484 -33.7441 -33.7441 -33.6880 -33.6880
   -33.6853 -33.6853 -33.6263 -33.6263 -33.6229 -33.6228 -33.6218 -33.6217
   -33.6207 -33.6207 -33.6054 -33.6054 -33.5707 -33.5707 -33.5701 -33.5701
    12.9732  12.9732  14.5050  14.5050  15.4225  15.4225  15.5513  15.5513
    15.6042  15.6042  15.6261  15.6261  15.7264  15.7264  15.8611  15.8611
    15.8938  15.8939  16.6418  16.6418  16.6650  16.6651  16.8206  16.8206
    16.8567  16.8567  16.8974  16.8974  17.1095  17.1095  17.5289  17.5289
    17.5362  17.5362  17.5637  17.5637  17.6565  17.6565  17.6708  17.6709
    17.7035  17.7035  17.7376  17.7376  17.7524  17.7524  18.7947  18.7947
    18.8463  18.8463  18.8897  18.8898  18.9525  18.9525  19.0603  19.0603
    19.0706  19.0706  19.0742  19.0742  19.3663  19.3663  19.3760  19.3761
    19.4067  19.4067  19.4398  19.4398  19.5528  19.5529  19.5574  19.5574
    19.6601  19.6601  19.8182  19.8182  19.8685  19.8685  20.0297  20.0297
    20.6382  20.6382  20.7450  20.7450  21.5775  21.5775  22.3571  22.3571
    23.6646  23.6646

          k = 0.0548 0.3838 0.3838 ( 11363 PWs)   bands (ev):

   -67.8088 -67.7865 -67.7865 -67.7700 -67.7415 -67.7369 -67.7369 -67.7330
   -67.7300 -67.7289 -67.7289 -67.7274 -67.7060 -67.6950 -67.6950 -67.6780
   -34.0573 -34.0279 -34.0279 -34.0193 -34.0193 -34.0171 -34.0171 -34.0027
   -34.0022 -34.0000 -33.9991 -33.9843 -33.9317 -33.8851 -33.8424 -33.8424
   -33.8367 -33.8367 -33.8237 -33.8186 -33.8113 -33.7953 -33.7953 -33.7937
   -33.7799 -33.7608 -33.7608 -33.7550 -33.7543 -33.7543 -33.7440 -33.6869
   -33.6788 -33.6536 -33.6535 -33.6351 -33.6292 -33.6261 -33.6158 -33.6122
   -33.6108 -33.6108 -33.6051 -33.6051 -33.5704 -33.5703 -33.5573 -33.5571
    12.8530  13.7927  13.7927  14.4063  15.4933  15.5723  15.5752  15.6223
    15.6223  15.6835  15.6835  15.7084  15.7354  15.7354  15.8374  16.0881
    16.1089  16.2165  16.2165  16.6349  16.6654  16.6785  16.7470  16.7470
    16.7516  16.7516  16.7681  16.8625  17.0290  17.3064  17.3161  17.3161
    17.3737  17.4570  17.4865  17.5271  17.6111  17.6111  17.6336  17.6336
    17.6448  17.6449  17.6730  17.7262  17.8884  18.2930  18.2931  18.8177
    18.8945  18.9106  18.9106  18.9443  18.9934  19.0243  19.0334  19.0334
    19.0467  19.1782  19.2348  19.2348  19.2439  19.2439  19.2828  19.3074
    19.3074  19.3564  19.3635  19.3806  19.4692  19.4692  19.4850  19.5644
    19.6411  19.6753  19.6753  19.7631  19.8465  19.8465  19.8760  19.9171
    20.6922  20.6922  20.7670  20.8683  21.6590  22.4501  22.5275  22.5275
    23.3040  23.3040

          k = 0.0548 0.3838-0.4935 ( 11386 PWs)   bands (ev):

   -67.7985 -67.7985 -67.7789 -67.7788 -67.7393 -67.7393 -67.7350 -67.7350
   -67.7294 -67.7293 -67.7282 -67.7281 -67.6999 -67.6999 -67.6857 -67.6856
   -34.0406 -34.0406 -34.0129 -34.0129 -34.0129 -34.0128 -34.0127 -34.0127
   -34.0105 -34.0105 -34.0012 -34.0012 -33.8850 -33.8850 -33.8656 -33.8655
   -33.8283 -33.8282 -33.8126 -33.8126 -33.7975 -33.7975 -33.7902 -33.7902
   -33.7866 -33.7866 -33.7721 -33.7721 -33.7593 -33.7593 -33.7199 -33.7199
   -33.6649 -33.6649 -33.6329 -33.6328 -33.6189 -33.6188 -33.6186 -33.6186
   -33.6169 -33.6169 -33.6076 -33.6076 -33.5605 -33.5605 -33.5604 -33.5604
    13.2950  13.2950  14.1019  14.1019  15.5991  15.5991  15.6433  15.6433
    15.6499  15.6499  15.8381  15.8381  15.8959  15.8960  15.9520  15.9520
    15.9730  15.9730  16.5222  16.5222  16.6732  16.6732  16.6809  16.6809
    16.6930  16.6930  16.7592  16.7592  17.1518  17.1518  17.3680  17.3680
    17.4256  17.4256  17.4628  17.4628  17.4652  17.4652  17.4839  17.4839
    17.6829  17.6829  17.7124  17.7124  17.9674  17.9674  18.6056  18.6057
    18.9333  18.9333  18.9798  18.9798  19.0631  19.0631  19.0752  19.0752
    19.1175  19.1175  19.1509  19.1509  19.2379  19.2379  19.2928  19.2928
    19.3161  19.3161  19.3450  19.3451  19.3917  19.3918  19.5980  19.5980
    19.6079  19.6080  19.7186  19.7186  19.7219  19.7219  19.8785  19.8785
    20.7599  20.7599  20.8126  20.8126  22.0956  22.0956  22.8911  22.8911
    23.1487  23.1487

          k = 0.0548-0.4935-0.4935 ( 11396 PWs)   bands (ev):

   -67.7895 -67.7894 -67.7894 -67.7894 -67.7372 -67.7372 -67.7372 -67.7372
   -67.7287 -67.7287 -67.7287 -67.7287 -67.6921 -67.6921 -67.6921 -67.6920
   -34.0300 -34.0300 -34.0300 -34.0300 -34.0111 -34.0111 -34.0111 -34.0111
   -34.0049 -34.0048 -34.0048 -34.0048 -33.8485 -33.8485 -33.8485 -33.8484
   -33.8380 -33.8380 -33.8380 -33.8380 -33.8088 -33.8088 -33.8088 -33.8088
   -33.7674 -33.7674 -33.7674 -33.7674 -33.7532 -33.7532 -33.7532 -33.7532
   -33.6474 -33.6474 -33.6474 -33.6474 -33.6162 -33.6162 -33.6162 -33.6162
   -33.6120 -33.6119 -33.6119 -33.6119 -33.5571 -33.5571 -33.5571 -33.5571
    13.6838  13.6838  13.6838  13.6838  15.6359  15.6359  15.6359  15.6359
    15.8368  15.8368  15.8368  15.8368  15.9825  15.9825  15.9825  15.9825
    16.2248  16.2248  16.2248  16.2248  16.6330  16.6330  16.6330  16.6330
    16.6906  16.6906  16.6906  16.6906  17.2397  17.2397  17.2397  17.2397
    17.3765  17.3766  17.3766  17.3766  17.4237  17.4237  17.4237  17.4237
    17.6749  17.6749  17.6749  17.6749  18.2719  18.2719  18.2719  18.2719
    19.0558  19.0558  19.0558  19.0558  19.0703  19.0703  19.0703  19.0703
    19.2036  19.2036  19.2036  19.2036  19.2383  19.2383  19.2383  19.2383
    19.3198  19.3198  19.3198  19.3199  19.3293  19.3293  19.3293  19.3293
    19.6590  19.6590  19.6590  19.6590  19.7828  19.7829  19.7829  19.7829
    20.8189  20.8189  20.8189  20.8189  22.6234  22.6234  22.6234  22.6234
    23.4339  23.4340

          k = 0.1645 0.1645 0.1645 ( 11332 PWs)   bands (ev):

   -67.8351 -67.7641 -67.7640 -67.7640 -67.7396 -67.7396 -67.7396 -67.7281
   -67.7270 -67.7270 -67.7270 -67.7247 -67.7168 -67.7167 -67.7167 -67.6588
   -34.0910 -34.0910 -34.0910 -34.0679 -34.0679 -34.0679 -33.9535 -33.9530
   -33.9530 -33.9449 -33.9449 -33.9449 -33.9002 -33.8937 -33.8937 -33.8537
   -33.8537 -33.8537 -33.8053 -33.8053 -33.8053 -33.7627 -33.7627 -33.7627
   -33.7527 -33.7527 -33.7358 -33.7358 -33.7358 -33.7313 -33.7313 -33.7313
   -33.7008 -33.7008 -33.7008 -33.6922 -33.6470 -33.6470 -33.6470 -33.6177
   -33.5883 -33.5883 -33.5883 -33.5655 -33.5655 -33.5655 -33.5620 -33.5620
    11.7304  14.6244  14.6244  14.6244  15.0047  15.0047  15.0047  15.1126
    15.1126  15.1723  15.1723  15.1723  15.7503  15.7503  15.7503  16.3399
    16.4417  16.4417  16.4417  16.6294  16.6294  16.7005  16.7005  16.7005
    16.8083  16.8083  16.8083  17.0130  17.0130  17.0295  17.3156  17.3156
    17.3156  17.7933  17.7933  17.8260  17.8260  17.8260  18.2058  18.2273
    18.2273  18.2273  18.3825  18.3825  18.3825  18.4400  18.4400  18.4400
    18.8363  18.8363  18.8363  19.0756  19.0756  19.0756  19.1868  19.1868
    19.2205  19.2205  19.2205  19.3710  19.3710  19.3710  19.4255  19.4255
    19.4255  19.4476  19.4476  19.4476  19.4888  19.4888  19.5146  19.5146
    19.9639  19.9767  19.9768  19.9768  20.0537  20.0537  20.0537  20.4969
    20.4969  20.4969  20.5595  20.5595  21.4147  21.4147  21.4147  22.1288
    22.1288  22.1288

          k = 0.1645 0.1645 0.2742 ( 11388 PWs)   bands (ev):

   -67.8289 -67.7799 -67.7617 -67.7617 -67.7446 -67.7446 -67.7384 -67.7301
   -67.7265 -67.7246 -67.7239 -67.7239 -67.7173 -67.7173 -67.7027 -67.6634
   -34.0795 -34.0795 -34.0741 -34.0563 -34.0419 -34.0419 -33.9747 -33.9721
   -33.9721 -33.9642 -33.9617 -33.9404 -33.9392 -33.8887 -33.8887 -33.8781
   -33.8716 -33.8394 -33.8125 -33.8067 -33.8067 -33.7782 -33.7740 -33.7740
   -33.7669 -33.7607 -33.7388 -33.7235 -33.7235 -33.7089 -33.7065 -33.7065
   -33.7036 -33.7036 -33.6683 -33.6678 -33.6481 -33.6257 -33.6257 -33.6215
   -33.6049 -33.6049 -33.5957 -33.5814 -33.5738 -33.5682 -33.5682 -33.5628
    11.9940  14.0318  14.7468  14.7468  15.0026  15.0026  15.2065  15.2246
    15.2386  15.2971  15.2971  15.3527  15.7918  15.7918  15.8074  16.1361
    16.2584  16.4872  16.4872  16.4994  16.5894  16.6700  16.7545  16.7756
    16.7756  16.8392  16.9484  16.9484  17.1235  17.2162  17.2162  17.2338
    17.5093  17.6519  17.6519  17.7187  17.7275  17.7701  17.9531  17.9531
    17.9763  17.9763  18.2429  18.3563  18.4233  18.4785  18.5696  18.5696
    18.6305  18.6305  18.6514  18.8888  18.8888  19.0853  19.0921  19.1393
    19.1393  19.1604  19.2460  19.2751  19.3205  19.3205  19.3541  19.4533
    19.4674  19.4833  19.4991  19.5406  19.5636  19.5636  19.5832  19.5832
    19.6522  19.7554  20.1166  20.1166  20.1214  20.1269  20.1269  20.1730
    20.3301  20.5761  20.5761  20.6014  21.1105  21.1105  22.0988  22.3557
    22.3557  22.9602

          k = 0.1645 0.1645 0.3838 ( 11382 PWs)   bands (ev):

   -67.8197 -67.7948 -67.7583 -67.7583 -67.7495 -67.7495 -67.7366 -67.7323
   -67.7259 -67.7248 -67.7215 -67.7215 -67.7182 -67.7182 -67.6900 -67.6703
   -34.0600 -34.0600 -34.0496 -34.0395 -34.0085 -34.0085 -34.0030 -34.0030
   -33.9970 -33.9810 -33.9715 -33.9710 -33.9292 -33.9292 -33.9221 -33.8707
   -33.8535 -33.8474 -33.8025 -33.8025 -33.7991 -33.7972 -33.7853 -33.7853
   -33.7691 -33.7612 -33.7477 -33.7165 -33.7165 -33.7068 -33.7068 -33.6845
   -33.6772 -33.6772 -33.6687 -33.6444 -33.6387 -33.6256 -33.6256 -33.6076
   -33.6051 -33.6051 -33.6043 -33.5993 -33.5905 -33.5756 -33.5756 -33.5693
    12.3772  13.4275  14.8749  14.8749  14.9988  14.9988  15.3885  15.4048
    15.4469  15.4469  15.4897  15.5988  15.7345  15.7375  15.7375  15.8519
    16.1157  16.1855  16.5832  16.6340  16.6794  16.6794  16.6965  16.6981
    16.8987  16.8987  17.0986  17.0986  17.1621  17.1621  17.3975  17.4914
    17.5236  17.5237  17.5505  17.5505  17.6274  17.6665  17.6672  17.7133
    17.7133  17.7381  18.0299  18.0344  18.0344  18.1831  18.5308  18.6035
    18.6786  18.8527  18.8527  18.9355  18.9355  18.9400  18.9425  19.0604
    19.0604  19.2154  19.2154  19.3163  19.3297  19.3418  19.3715  19.3896
    19.4386  19.4609  19.4631  19.4770  19.5675  19.5912  19.6588  19.6588
    19.7005  19.7005  19.8519  20.0349  20.2849  20.2849  20.2960  20.2960
    20.3468  20.5484  20.5484  20.5733  20.8239  20.8239  22.6243  22.6243
    22.8236  23.0129

          k = 0.1645 0.1645-0.4935 ( 11380 PWs)   bands (ev):

   -67.8082 -67.8082 -67.7542 -67.7542 -67.7542 -67.7541 -67.7345 -67.7345
   -67.7253 -67.7253 -67.7196 -67.7196 -67.7195 -67.7195 -67.6792 -67.6792
   -34.0335 -34.0335 -34.0335 -34.0335 -34.0192 -34.0191 -34.0183 -34.0182
   -33.9741 -33.9740 -33.9703 -33.9703 -33.9703 -33.9703 -33.8987 -33.8986
   -33.8264 -33.8264 -33.8229 -33.8229 -33.7948 -33.7948 -33.7948 -33.7948
   -33.7560 -33.7560 -33.7257 -33.7257 -33.7111 -33.7111 -33.7110 -33.7110
   -33.6497 -33.6497 -33.6497 -33.6497 -33.6334 -33.6334 -33.6242 -33.6242
   -33.6125 -33.6125 -33.5881 -33.5881 -33.5881 -33.5881 -33.5816 -33.5816
    12.8635  12.8635  14.9634  14.9634  14.9634  14.9634  15.5835  15.5836
    15.5998  15.5998  15.6046  15.6046  15.6046  15.6046  15.8286  15.8286
    15.8744  15.8744  16.6017  16.6017  16.6624  16.6624  16.9812  16.9812
    16.9812  16.9812  17.0489  17.0489  17.0489  17.0489  17.4870  17.4870
    17.4870  17.4870  17.6475  17.6475  17.6500  17.6500  17.6500  17.6500
    17.6945  17.6946  17.7584  17.7584  17.7671  17.7671  18.7266  18.7266
    18.7727  18.7727  18.9832  18.9832  18.9914  18.9914  18.9914  18.9914
    19.0559  19.0559  19.0559  19.0559  19.4044  19.4045  19.4079  19.4079
    19.4346  19.4346  19.4694  19.4694  19.6852  19.6852  19.7101  19.7101
    19.7102  19.7102  19.7113  19.7114  20.4465  20.4465  20.4465  20.4465
    20.4844  20.4844  20.5415  20.5415  20.5415  20.5415  22.8702  22.8702
    22.8702  22.8702

          k = 0.1645 0.2742 0.2742 ( 11389 PWs)   bands (ev):

   -67.8229 -67.7765 -67.7765 -67.7594 -67.7520 -67.7431 -67.7431 -67.7328
   -67.7238 -67.7237 -67.7237 -67.7183 -67.7178 -67.7042 -67.7042 -67.6677
   -34.0733 -34.0636 -34.0636 -34.0341 -34.0341 -34.0118 -33.9867 -33.9849
   -33.9849 -33.9848 -33.9712 -33.9484 -33.9375 -33.9123 -33.8825 -33.8527
   -33.8487 -33.8487 -33.8400 -33.8400 -33.8169 -33.7925 -33.7925 -33.7916
   -33.7464 -33.7365 -33.7365 -33.7292 -33.7292 -33.7088 -33.7077 -33.6926
   -33.6830 -33.6805 -33.6716 -33.6716 -33.6500 -33.6254 -33.6143 -33.6070
   -33.6070 -33.6038 -33.6038 -33.5825 -33.5825 -33.5809 -33.5654 -33.5628
    12.2510  14.1992  14.1992  14.8914  14.9115  15.2122  15.2122  15.3286
    15.3662  15.4278  15.4746  15.4746  15.8556  15.8556  15.9024  16.2225
    16.2225  16.2268  16.4491  16.4514  16.6375  16.7371  16.7371  16.8266
    16.8614  16.8614  16.8651  17.0084  17.0814  17.1073  17.1935  17.3701
    17.3701  17.5709  17.5791  17.5791  17.5802  17.6318  17.7139  17.7925
    17.8581  17.8581  18.1330  18.1330  18.2289  18.2289  18.3073  18.5393
    18.6653  18.6653  18.7287  18.9858  19.0652  19.0949  19.0949  19.0949
    19.2160  19.2160  19.2228  19.2842  19.3042  19.3042  19.3170  19.4110
    19.4162  19.4162  19.4424  19.4773  19.4985  19.5002  19.5002  19.5690
    19.6533  19.7494  19.7494  20.1207  20.2138  20.2345  20.2345  20.3036
    20.3036  20.3360  20.5932  20.6680  20.7637  21.7090  21.7090  22.6527
    23.5066  23.5066

          k = 0.1645 0.2742 0.3838 ( 11378 PWs)   bands (ev):

   -67.8143 -67.7906 -67.7718 -67.7593 -67.7562 -67.7478 -67.7409 -67.7356
   -67.7234 -67.7234 -67.7214 -67.7185 -67.7135 -67.7064 -67.6924 -67.6740
   -34.0589 -34.0467 -34.0408 -34.0235 -34.0115 -34.0063 -34.0037 -33.9989
   -33.9901 -33.9816 -33.9791 -33.9752 -33.9421 -33.9211 -33.8908 -33.8710
   -33.8663 -33.8335 -33.8253 -33.8197 -33.8163 -33.8081 -33.8055 -33.8054
   -33.7665 -33.7445 -33.7359 -33.7217 -33.7193 -33.7117 -33.7055 -33.6962
   -33.6774 -33.6610 -33.6599 -33.6492 -33.6426 -33.6339 -33.6213 -33.6120
   -33.6031 -33.6028 -33.5966 -33.5876 -33.5864 -33.5861 -33.5676 -33.5655
    12.6231  13.6307  14.4099  14.7897  15.0499  15.2105  15.4695  15.5059
    15.5453  15.5671  15.6244  15.7131  15.7859  15.8080  15.9065  15.9763
    16.1544  16.2084  16.4567  16.5584  16.6280  16.6909  16.7488  16.7684
    16.8385  16.9267  16.9406  17.0037  17.1539  17.1699  17.2277  17.3339
    17.3440  17.4544  17.4678  17.5094  17.5209  17.5479  17.5651  17.6001
    17.6641  17.7118  17.7922  17.8407  17.8435  17.9105  18.3555  18.7462
    18.7591  18.8708  18.8906  18.9710  19.0112  19.0214  19.0518  19.0553
    19.1591  19.1998  19.2045  19.2079  19.2853  19.3071  19.3234  19.3550
    19.4046  19.4449  19.4618  19.4775  19.4836  19.5270  19.5492  19.5744
    19.6376  19.6617  19.8721  19.9510  19.9560  20.1589  20.2561  20.4495
    20.4523  20.4571  20.5979  20.6461  20.6644  21.3453  22.3509  23.0008
    23.5789  23.6784

          k = 0.1645 0.2742-0.4935 ( 11380 PWs)   bands (ev):

   -67.8034 -67.8034 -67.7660 -67.7659 -67.7522 -67.7522 -67.7384 -67.7383
   -67.7233 -67.7233 -67.7198 -67.7197 -67.7095 -67.7095 -67.6823 -67.6822
   -34.0375 -34.0375 -34.0256 -34.0256 -34.0119 -34.0119 -34.0114 -34.0114
   -33.9886 -33.9886 -33.9746 -33.9746 -33.9340 -33.9340 -33.8984 -33.8983
   -33.8423 -33.8422 -33.8224 -33.8224 -33.8152 -33.8152 -33.7960 -33.7960
   -33.7618 -33.7618 -33.7416 -33.7416 -33.7162 -33.7161 -33.6857 -33.6857
   -33.6761 -33.6761 -33.6390 -33.6390 -33.6298 -33.6297 -33.6211 -33.6211
   -33.6174 -33.6174 -33.5932 -33.5932 -33.5750 -33.5750 -33.5732 -33.5732
    13.0922  13.0922  14.6196  14.6196  15.1645  15.1645  15.6352  15.6352
    15.7005  15.7005  15.7522  15.7522  15.7832  15.7832  15.8551  15.8551
    15.9674  15.9674  16.6489  16.6489  16.7103  16.7103  16.7874  16.7874
    16.8072  16.8073  16.9412  16.9412  17.0674  17.0674  17.4517  17.4517
    17.4747  17.4747  17.4927  17.4927  17.5086  17.5086  17.5273  17.5273
    17.5724  17.5724  17.6099  17.6099  17.6202  17.6202  18.6419  18.6420
    18.8831  18.8831  18.9753  18.9753  19.0181  19.0181  19.0568  19.0568
    19.0604  19.0604  19.1076  19.1076  19.3618  19.3618  19.3888  19.3888
    19.3939  19.3940  19.4790  19.4790  19.5142  19.5143  19.6313  19.6313
    19.6500  19.6500  19.7605  19.7605  20.1495  20.1495  20.2179  20.2179
    20.5507  20.5507  20.5873  20.5873  20.9909  20.9909  23.0102  23.0102
    23.3349  23.3349

          k = 0.1645 0.3838 0.3838 ( 11386 PWs)   bands (ev):

   -67.8064 -67.7846 -67.7846 -67.7686 -67.7531 -67.7453 -67.7453 -67.7390
   -67.7224 -67.7215 -67.7215 -67.7192 -67.7065 -67.6959 -67.6959 -67.6796
   -34.0496 -34.0286 -34.0286 -34.0125 -34.0125 -34.0079 -34.0038 -34.0038
   -34.0002 -33.9953 -33.9887 -33.9602 -33.9357 -33.9083 -33.8672 -33.8625
   -33.8625 -33.8481 -33.8481 -33.8323 -33.8297 -33.8297 -33.8293 -33.7953
   -33.7601 -33.7374 -33.7349 -33.7349 -33.7277 -33.7277 -33.7168 -33.6781
   -33.6758 -33.6510 -33.6510 -33.6432 -33.6428 -33.6255 -33.6192 -33.6192
   -33.6098 -33.6020 -33.6020 -33.6011 -33.5744 -33.5744 -33.5645 -33.5634
    12.9761  13.9073  13.9073  14.5271  15.2581  15.5021  15.5022  15.5724
    15.6666  15.7445  15.7776  15.7776  15.8581  15.8581  16.0579  16.1038
    16.1812  16.2202  16.2202  16.4899  16.6734  16.7078  16.7680  16.7680
    16.7835  16.7835  16.8600  16.8897  17.0018  17.0855  17.2744  17.2744
    17.2765  17.3678  17.4275  17.4463  17.4463  17.4772  17.5051  17.5054
    17.5054  17.5203  17.5203  17.6038  17.7075  18.0397  18.0397  18.6248
    18.9280  18.9280  18.9825  18.9908  19.0380  19.0572  19.1588  19.1730
    19.2340  19.2340  19.2382  19.2382  19.2674  19.2707  19.2707  19.3507
    19.3654  19.4253  19.4253  19.4355  19.4922  19.5346  19.5346  19.5465
    19.5465  19.6256  19.7025  19.7333  20.0025  20.0025  20.0636  20.1323
    20.5718  20.5718  20.6360  20.6993  21.0520  21.9067  21.9067  23.0738
    23.4377  24.2297

          k = 0.1645 0.3838-0.4935 ( 11380 PWs)   bands (ev):

   -67.7964 -67.7963 -67.7772 -67.7772 -67.7494 -67.7494 -67.7423 -67.7423
   -67.7218 -67.7218 -67.7201 -67.7201 -67.7007 -67.7006 -67.6869 -67.6869
   -34.0336 -34.0336 -34.0164 -34.0164 -34.0076 -34.0076 -34.0065 -34.0064
   -34.0014 -34.0014 -33.9816 -33.9816 -33.8925 -33.8925 -33.8877 -33.8877
   -33.8522 -33.8522 -33.8481 -33.8480 -33.8357 -33.8357 -33.8039 -33.8039
   -33.7648 -33.7648 -33.7328 -33.7328 -33.7217 -33.7217 -33.7046 -33.7046
   -33.6631 -33.6631 -33.6295 -33.6295 -33.6283 -33.6282 -33.6216 -33.6216
   -33.6204 -33.6204 -33.6010 -33.6010 -33.5670 -33.5670 -33.5664 -33.5664
    13.4149  13.4149  14.2209  14.2209  15.4267  15.4267  15.6849  15.6849
    15.7377  15.7377  15.8306  15.8306  15.9773  15.9773  16.0071  16.0071
    16.0843  16.0843  16.5259  16.5259  16.6353  16.6354  16.6822  16.6822
    16.7074  16.7074  16.8307  16.8307  17.1195  17.1195  17.2415  17.2415
    17.3355  17.3355  17.3369  17.3370  17.3469  17.3469  17.3878  17.3878
    17.5535  17.5535  17.5622  17.5623  17.7516  17.7516  18.3059  18.3060
    19.0040  19.0041  19.0781  19.0781  19.1163  19.1163  19.1164  19.1164
    19.2269  19.2269  19.2470  19.2470  19.2892  19.2892  19.3360  19.3360
    19.3695  19.3696  19.3860  19.3860  19.4773  19.4774  19.5108  19.5108
    19.5841  19.5841  19.8180  19.8180  19.8270  19.8270  20.0230  20.0230
    20.6322  20.6322  20.6639  20.6640  21.4754  21.4754  22.4852  22.4852
    23.8713  23.8713

          k = 0.1645-0.4935-0.4935 ( 11400 PWs)   bands (ev):

   -67.7875 -67.7875 -67.7875 -67.7875 -67.7461 -67.7461 -67.7461 -67.7461
   -67.7208 -67.7207 -67.7207 -67.7207 -67.6931 -67.6931 -67.6931 -67.6930
   -34.0226 -34.0226 -34.0226 -34.0226 -34.0092 -34.0092 -34.0092 -34.0092
   -33.9911 -33.9910 -33.9910 -33.9910 -33.8704 -33.8703 -33.8703 -33.8703
   -33.8496 -33.8496 -33.8496 -33.8496 -33.8484 -33.8484 -33.8484 -33.8484
   -33.7343 -33.7343 -33.7343 -33.7343 -33.7273 -33.7273 -33.7273 -33.7273
   -33.6437 -33.6437 -33.6437 -33.6437 -33.6231 -33.6231 -33.6231 -33.6231
   -33.6112 -33.6112 -33.6112 -33.6112 -33.5640 -33.5640 -33.5640 -33.5640
    13.8041  13.8041  13.8041  13.8041  15.6812  15.6812  15.6812  15.6813
    15.7260  15.7260  15.7260  15.7260  16.1498  16.1498  16.1498  16.1498
    16.2444  16.2444  16.2444  16.2444  16.5768  16.5768  16.5768  16.5768
    16.7539  16.7539  16.7539  16.7539  17.2091  17.2091  17.2091  17.2091
    17.2092  17.2092  17.2092  17.2092  17.3260  17.3260  17.3260  17.3260
    17.5339  17.5339  17.5339  17.5340  18.0021  18.0021  18.0021  18.0021
    19.0834  19.0834  19.0834  19.0834  19.2011  19.2012  19.2012  19.2012
    19.2801  19.2801  19.2801  19.2801  19.3158  19.3158  19.3158  19.3159
    19.3180  19.3180  19.3180  19.3181  19.5317  19.5317  19.5317  19.5317
    19.5463  19.5463  19.5463  19.5464  19.8928  19.8928  19.8928  19.8928
    20.6770  20.6770  20.6770  20.6770  21.9755  21.9755  21.9755  21.9755
    24.4180  24.4180

          k = 0.2742 0.2742 0.2742 ( 11401 PWs)   bands (ev):

   -67.8172 -67.7734 -67.7734 -67.7734 -67.7501 -67.7501 -67.7501 -67.7365
   -67.7218 -67.7185 -67.7185 -67.7185 -67.7055 -67.7055 -67.7055 -67.6716
   -34.0571 -34.0571 -34.0571 -34.0088 -34.0088 -34.0088 -33.9937 -33.9937
   -33.9937 -33.9926 -33.9577 -33.9577 -33.9265 -33.9265 -33.8750 -33.8750
   -33.8750 -33.8521 -33.8521 -33.8521 -33.8252 -33.8140 -33.8139 -33.8139
   -33.7119 -33.7117 -33.7117 -33.7117 -33.7100 -33.7100 -33.7100 -33.7037
   -33.7037 -33.6737 -33.6737 -33.6737 -33.6373 -33.6215 -33.6215 -33.6215
   -33.5973 -33.5973 -33.5973 -33.5802 -33.5802 -33.5802 -33.5749 -33.5749
    12.5031  14.3797  14.3797  14.3797  15.1340  15.1340  15.1340  15.4616
    15.4616  15.6037  15.6037  15.6037  15.9984  15.9984  15.9984  16.2117
    16.2117  16.2117  16.2387  16.6290  16.6290  16.6818  16.7870  16.7870
    16.7870  16.9805  16.9805  16.9805  16.9999  16.9999  17.2317  17.2317
    17.2317  17.4732  17.4732  17.4732  17.5169  17.5169  17.5169  17.5877
    17.5877  17.8697  17.8697  17.8697  17.9448  17.9448  17.9448  18.7458
    18.7734  18.7734  18.7734  18.9638  19.1597  19.1597  19.1809  19.1809
    19.1809  19.2024  19.2024  19.2024  19.2811  19.2811  19.2811  19.4173
    19.4173  19.4173  19.4390  19.4390  19.5375  19.5375  19.5375  19.5609
    19.5609  19.9010  19.9010  19.9010  20.2724  20.2724  20.2724  20.3528
    20.3528  20.3528  20.3655  20.3655  21.2788  21.2788  21.2788  23.6838
    23.8121  23.8121

          k = 0.2742 0.2742 0.3838 ( 11386 PWs)   bands (ev):

   -67.8091 -67.7867 -67.7689 -67.7689 -67.7570 -67.7570 -67.7474 -67.7404
   -67.7204 -67.7188 -67.7140 -67.7140 -67.7075 -67.7075 -67.6945 -67.6774
   -34.0438 -34.0438 -34.0332 -34.0080 -34.0080 -34.0048 -33.9969 -33.9941
   -33.9776 -33.9776 -33.9753 -33.9670 -33.9385 -33.9077 -33.9077 -33.9001
   -33.8847 -33.8545 -33.8545 -33.8415 -33.8337 -33.8329 -33.8329 -33.7963
   -33.7500 -33.7382 -33.7142 -33.7114 -33.6972 -33.6972 -33.6840 -33.6840
   -33.6783 -33.6783 -33.6649 -33.6427 -33.6393 -33.6393 -33.6277 -33.6197
   -33.6023 -33.5927 -33.5903 -33.5903 -33.5844 -33.5811 -33.5811 -33.5730
    12.8667  13.8404  14.6095  14.6095  15.0175  15.0175  15.4498  15.6003
    15.6357  15.7455  15.7455  15.8390  15.9579  15.9839  15.9958  15.9958
    16.2269  16.2550  16.3940  16.3940  16.6484  16.7374  16.8048  16.8450
    16.8770  16.8770  16.8996  17.0238  17.0238  17.1133  17.1133  17.1480
    17.2580  17.2580  17.3511  17.3774  17.3774  17.4199  17.4199  17.4848
    17.5255  17.5633  17.6164  17.6164  17.6180  17.6180  18.0338  18.6112
    18.8602  18.9244  18.9244  18.9800  19.0710  19.1737  19.1737  19.2050
    19.2050  19.2227  19.2227  19.2482  19.3087  19.3098  19.3962  19.4235
    19.4245  19.4356  19.4369  19.4369  19.4687  19.5131  19.5346  19.5346
    19.5627  19.6664  20.0611  20.0776  20.2007  20.2007  20.2979  20.2979
    20.3838  20.3838  20.3867  20.4432  20.9006  20.9006  21.8497  23.0521
    24.1648  24.1648

          k = 0.2742 0.2742-0.4935 ( 11384 PWs)   bands (ev):

   -67.7988 -67.7987 -67.7634 -67.7633 -67.7633 -67.7633 -67.7441 -67.7441
   -67.7194 -67.7194 -67.7104 -67.7104 -67.7103 -67.7103 -67.6851 -67.6851
   -34.0262 -34.0262 -34.0262 -34.0262 -34.0030 -34.0030 -34.0010 -34.0010
   -33.9877 -33.9877 -33.9430 -33.9430 -33.9430 -33.9430 -33.9138 -33.9138
   -33.8712 -33.8712 -33.8472 -33.8472 -33.8472 -33.8472 -33.7916 -33.7916
   -33.7669 -33.7669 -33.7147 -33.7147 -33.6860 -33.6860 -33.6860 -33.6860
   -33.6602 -33.6602 -33.6602 -33.6602 -33.6310 -33.6309 -33.6218 -33.6217
   -33.6155 -33.6154 -33.5844 -33.5844 -33.5844 -33.5844 -33.5764 -33.5764
    13.3223  13.3223  14.8382  14.8382  14.8382  14.8382  15.7769  15.7769
    15.8177  15.8177  15.8350  15.8350  15.8845  15.8845  15.8845  15.8845
    16.0826  16.0826  16.6876  16.6876  16.7133  16.7133  16.7133  16.7134
    16.7550  16.7550  16.9940  16.9940  16.9940  16.9941  17.2081  17.2081
    17.2933  17.2933  17.3936  17.3936  17.3936  17.3937  17.4095  17.4095
    17.4095  17.4095  17.4248  17.4248  17.4471  17.4472  18.2904  18.2904
    18.9661  18.9661  19.0778  19.0778  19.0778  19.0778  19.1955  19.1955
    19.1956  19.1956  19.2313  19.2313  19.3506  19.3506  19.3569  19.3570
    19.4261  19.4262  19.4307  19.4307  19.4899  19.4899  19.4900  19.4900
    19.7684  19.7684  19.8300  19.8300  20.3526  20.3526  20.3526  20.3526
    20.4475  20.4475  20.5436  20.5436  20.5436  20.5437  22.4434  22.4434
    24.4646  24.4646

          k = 0.2742 0.3838 0.3838 ( 11406 PWs)   bands (ev):

   -67.8016 -67.7811 -67.7810 -67.7659 -67.7648 -67.7537 -67.7537 -67.7452
   -67.7180 -67.7149 -67.7149 -67.7093 -67.7075 -67.6978 -67.6978 -67.6826
   -34.0341 -34.0224 -34.0224 -34.0071 -34.0047 -34.0047 -33.9922 -33.9814
   -33.9814 -33.9814 -33.9713 -33.9437 -33.9352 -33.9302 -33.9089 -33.8867
   -33.8867 -33.8694 -33.8688 -33.8688 -33.8617 -33.8617 -33.8572 -33.7875
   -33.7666 -33.7104 -33.7104 -33.6976 -33.6976 -33.6967 -33.6809 -33.6762
   -33.6634 -33.6603 -33.6517 -33.6480 -33.6480 -33.6308 -33.6308 -33.6248
   -33.6016 -33.6008 -33.6008 -33.5940 -33.5817 -33.5817 -33.5791 -33.5761
    13.2154  14.1263  14.1263  14.7611  14.8703  15.3382  15.3382  15.7211
    15.8151  15.8476  15.9581  15.9582  15.9857  15.9857  16.0877  16.2154
    16.2236  16.2236  16.3045  16.3377  16.7041  16.7463  16.8149  16.8149
    16.8231  16.8481  16.8481  16.8536  16.9517  17.0016  17.0565  17.1849
    17.1849  17.2019  17.2019  17.2436  17.2577  17.3029  17.3029  17.3400
    17.3400  17.3717  17.4029  17.4353  17.4407  17.7267  17.7267  18.2605
    18.9881  18.9881  19.0237  19.1094  19.1938  19.2368  19.2374  19.2426
    19.2426  19.2456  19.3316  19.3316  19.3324  19.3546  19.3675  19.4206
    19.4206  19.4259  19.4330  19.4330  19.4460  19.4460  19.5061  19.5334
    19.7225  19.8420  19.8420  19.9615  20.1057  20.1057  20.1746  20.3881
    20.3881  20.4069  20.4348  20.5231  20.5823  21.4046  21.4046  22.4786
    24.5997  25.2249

          k = 0.2742 0.3838-0.4935 ( 11392 PWs)   bands (ev):

   -67.7921 -67.7921 -67.7740 -67.7740 -67.7596 -67.7596 -67.7497 -67.7497
   -67.7162 -67.7162 -67.7117 -67.7117 -67.7022 -67.7021 -67.6894 -67.6894
   -34.0198 -34.0198 -34.0120 -34.0119 -33.9962 -33.9961 -33.9947 -33.9947
   -33.9865 -33.9865 -33.9557 -33.9557 -33.9147 -33.9146 -33.9064 -33.9064
   -33.8895 -33.8895 -33.8763 -33.8763 -33.8721 -33.8721 -33.8279 -33.8279
   -33.7379 -33.7379 -33.6966 -33.6966 -33.6866 -33.6865 -33.6842 -33.6842
   -33.6593 -33.6593 -33.6453 -33.6452 -33.6258 -33.6258 -33.6256 -33.6255
   -33.6219 -33.6219 -33.5978 -33.5978 -33.5796 -33.5796 -33.5773 -33.5773
    13.6466  13.6466  14.4500  14.4500  15.1359  15.1359  15.7195  15.7196
    15.8466  15.8466  15.9192  15.9192  16.0263  16.0263  16.1346  16.1346
    16.2290  16.2290  16.5297  16.5297  16.5950  16.5950  16.7086  16.7086
    16.7532  16.7532  16.9070  16.9070  17.0176  17.0176  17.0614  17.0614
    17.1103  17.1103  17.1898  17.1899  17.2341  17.2341  17.2772  17.2772
    17.3384  17.3384  17.3729  17.3729  17.4609  17.4609  17.9524  17.9524
    19.0615  19.0616  19.1123  19.1124  19.1386  19.1386  19.2973  19.2973
    19.3140  19.3140  19.3421  19.3421  19.3556  19.3556  19.3787  19.3787
    19.4292  19.4293  19.4617  19.4617  19.4695  19.4695  19.5307  19.5307
    19.7065  19.7065  19.8763  19.8763  20.1236  20.1236  20.1746  20.1746
    20.4212  20.4212  20.4247  20.4247  20.9861  20.9861  21.9329  21.9329
    25.0059  25.0059

          k = 0.2742-0.4935-0.4935 ( 11384 PWs)   bands (ev):

   -67.7837 -67.7837 -67.7837 -67.7836 -67.7550 -67.7550 -67.7550 -67.7549
   -67.7136 -67.7136 -67.7136 -67.7136 -67.6951 -67.6951 -67.6951 -67.6951
   -34.0078 -34.0078 -34.0078 -34.0078 -33.9994 -33.9994 -33.9994 -33.9993
   -33.9708 -33.9708 -33.9708 -33.9708 -33.9000 -33.9000 -33.9000 -33.9000
   -33.8891 -33.8891 -33.8891 -33.8891 -33.8671 -33.8670 -33.8670 -33.8670
   -33.7101 -33.7101 -33.7101 -33.7101 -33.6889 -33.6889 -33.6889 -33.6889
   -33.6373 -33.6373 -33.6373 -33.6372 -33.6336 -33.6336 -33.6336 -33.6335
   -33.6130 -33.6130 -33.6130 -33.6130 -33.5775 -33.5775 -33.5775 -33.5775
    14.0364  14.0364  14.0364  14.0364  15.4608  15.4609  15.4609  15.4609
    15.8980  15.8980  15.8980  15.8980  16.2816  16.2816  16.2816  16.2816
    16.3441  16.3441  16.3441  16.3441  16.5181  16.5181  16.5181  16.5181
    16.8259  16.8259  16.8259  16.8259  17.0279  17.0280  17.0280  17.0280
    17.1236  17.1236  17.1236  17.1236  17.1524  17.1524  17.1524  17.1524
    17.3306  17.3306  17.3306  17.3307  17.6624  17.6624  17.6624  17.6624
    19.1258  19.1258  19.1258  19.1258  19.2185  19.2185  19.2185  19.2185
    19.3072  19.3072  19.3072  19.3072  19.4482  19.4482  19.4482  19.4482
    19.4519  19.4519  19.4519  19.4519  19.5295  19.5296  19.5296  19.5296
    19.8432  19.8432  19.8432  19.8432  19.9576  19.9576  19.9576  19.9576
    20.4384  20.4384  20.4384  20.4384  21.4509  21.4509  21.4509  21.4509
    25.5521  25.5521

          k = 0.3838 0.3838 0.3838 ( 11422 PWs)   bands (ev):

   -67.7947 -67.7759 -67.7759 -67.7759 -67.7619 -67.7619 -67.7619 -67.7512
   -67.7144 -67.7092 -67.7092 -67.7092 -67.7006 -67.7006 -67.7006 -67.6871
   -34.0115 -34.0115 -34.0115 -33.9984 -33.9984 -33.9984 -33.9806 -33.9607
   -33.9607 -33.9547 -33.9547 -33.9547 -33.9479 -33.9479 -33.9038 -33.9038
   -33.9038 -33.8955 -33.8955 -33.8955 -33.8886 -33.8885 -33.8885 -33.8214
   -33.7382 -33.6863 -33.6863 -33.6862 -33.6724 -33.6724 -33.6724 -33.6596
   -33.6596 -33.6479 -33.6479 -33.6479 -33.6459 -33.6459 -33.6459 -33.6278
   -33.6002 -33.6002 -33.6002 -33.5950 -33.5950 -33.5906 -33.5906 -33.5906
    13.5560  14.4271  14.4271  14.4271  15.0914  15.0914  15.0914  15.8706
    15.9163  15.9163  16.0980  16.0980  16.0980  16.1855  16.1855  16.1855
    16.2418  16.2418  16.2418  16.4569  16.7544  16.7544  16.7851  16.7851
    16.8403  16.8403  16.8403  16.8874  16.8874  16.8874  16.9947  16.9948
    16.9948  17.1067  17.1067  17.1067  17.1509  17.1509  17.1509  17.1810
    17.1810  17.1810  17.2954  17.2954  17.4256  17.4256  17.4256  17.9090
    19.0771  19.0771  19.0771  19.1921  19.1921  19.2382  19.2382  19.2382
    19.3615  19.3615  19.3684  19.3684  19.3684  19.3956  19.3956  19.3956
    19.4300  19.4300  19.4300  19.5397  19.5618  19.5618  19.5618  19.6842
    19.6842  20.1255  20.1255  20.1497  20.1497  20.1497  20.1969  20.1969
    20.1969  20.2289  20.2289  20.2289  20.9726  20.9726  20.9726  21.9470
    25.8938  25.8938

          k = 0.3838 0.3838-0.4935 ( 11408 PWs)   bands (ev):

   -67.7860 -67.7859 -67.7694 -67.7694 -67.7694 -67.7693 -67.7569 -67.7569
   -67.7114 -67.7114 -67.7044 -67.7044 -67.7043 -67.7043 -67.6931 -67.6931
   -34.0007 -34.0007 -34.0007 -34.0007 -33.9825 -33.9825 -33.9824 -33.9823
   -33.9675 -33.9675 -33.9348 -33.9347 -33.9251 -33.9251 -33.9251 -33.9251
   -33.9195 -33.9194 -33.9049 -33.9049 -33.9049 -33.9049 -33.8582 -33.8582
   -33.7112 -33.7112 -33.6670 -33.6670 -33.6644 -33.6644 -33.6644 -33.6643
   -33.6553 -33.6553 -33.6553 -33.6553 -33.6348 -33.6348 -33.6274 -33.6274
   -33.6190 -33.6189 -33.5973 -33.5973 -33.5973 -33.5973 -33.5910 -33.5910
    13.9726  13.9726  14.7687  14.7688  14.7688  14.7688  15.4851  15.4851
    16.0422  16.0422  16.1154  16.1154  16.1728  16.1728  16.1728  16.1728
    16.3807  16.3807  16.5246  16.5246  16.5246  16.5246  16.7624  16.7625
    16.8176  16.8176  16.8181  16.8182  16.9043  16.9044  16.9874  16.9874
    16.9874  16.9874  17.1138  17.1138  17.1138  17.1139  17.1707  17.1707
    17.1707  17.1707  17.2017  17.2017  17.2055  17.2055  17.6108  17.6108
    19.1367  19.1367  19.1725  19.1725  19.1725  19.1725  19.2897  19.2897
    19.2970  19.2970  19.3665  19.3665  19.3685  19.3685  19.3685  19.3685
    19.5356  19.5356  19.5356  19.5356  19.5844  19.5845  19.8332  19.8332
    19.8564  19.8564  19.8921  19.8921  20.1649  20.1649  20.1649  20.1649
    20.2148  20.2148  20.5752  20.5752  20.5752  20.5752  21.4493  21.4493
    26.2194  26.2194

          k = 0.3838-0.4935-0.4935 ( 11408 PWs)   bands (ev):

   -67.7783 -67.7783 -67.7783 -67.7783 -67.7636 -67.7636 -67.7636 -67.7635
   -67.7074 -67.7074 -67.7074 -67.7074 -67.6982 -67.6982 -67.6982 -67.6981
   -33.9863 -33.9863 -33.9863 -33.9863 -33.9822 -33.9821 -33.9821 -33.9821
   -33.9462 -33.9461 -33.9461 -33.9461 -33.9304 -33.9304 -33.9304 -33.9304
   -33.9257 -33.9257 -33.9257 -33.9257 -33.8917 -33.8917 -33.8917 -33.8917
   -33.6866 -33.6866 -33.6866 -33.6866 -33.6537 -33.6537 -33.6537 -33.6537
   -33.6476 -33.6476 -33.6476 -33.6476 -33.6303 -33.6303 -33.6303 -33.6302
   -33.6172 -33.6172 -33.6172 -33.6172 -33.5975 -33.5975 -33.5975 -33.5975
    14.3622  14.3622  14.3622  14.3622  15.1378  15.1378  15.1378  15.1378
    16.1338  16.1338  16.1338  16.1338  16.3326  16.3326  16.3326  16.3326
    16.4560  16.4560  16.4560  16.4560  16.5081  16.5081  16.5081  16.5081
    16.9066  16.9066  16.9066  16.9066  16.9270  16.9270  16.9270  16.9270
    16.9461  16.9461  16.9461  16.9461  17.0771  17.0771  17.0771  17.0771
    17.1342  17.1342  17.1342  17.1342  17.3238  17.3238  17.3238  17.3238
    19.1905  19.1905  19.1905  19.1905  19.2442  19.2443  19.2443  19.2443
    19.2918  19.2919  19.2919  19.2919  19.3573  19.3573  19.3573  19.3573
    19.6424  19.6424  19.6424  19.6424  19.7381  19.7381  19.7381  19.7381
    19.9571  19.9571  19.9571  19.9571  20.1589  20.1589  20.1589  20.1589
    20.2048  20.2048  20.2048  20.2048  21.0018  21.0018  21.0018  21.0018
    26.7799  26.7799

          k =-0.4935-0.4935-0.4935 ( 11296 PWs)   bands (ev):

   -67.7715 -67.7715 -67.7715 -67.7715 -67.7714 -67.7714 -67.7714 -67.7714
   -67.7022 -67.7021 -67.7021 -67.7021 -67.7021 -67.7021 -67.7021 -67.7021
   -33.9581 -33.9581 -33.9581 -33.9581 -33.9581 -33.9581 -33.9581 -33.9581
   -33.9580 -33.9580 -33.9580 -33.9580 -33.9580 -33.9580 -33.9580 -33.9580
   -33.9190 -33.9190 -33.9190 -33.9190 -33.9190 -33.9190 -33.9190 -33.9189
   -33.6648 -33.6648 -33.6648 -33.6648 -33.6648 -33.6648 -33.6648 -33.6647
   -33.6232 -33.6232 -33.6232 -33.6232 -33.6232 -33.6232 -33.6232 -33.6232
   -33.6231 -33.6231 -33.6231 -33.6231 -33.6231 -33.6231 -33.6231 -33.6231
    14.7478  14.7478  14.7478  14.7478  14.7479  14.7479  14.7479  14.7479
    16.3928  16.3928  16.3928  16.3928  16.3928  16.3928  16.3928  16.3928
    16.3928  16.3928  16.3928  16.3929  16.3929  16.3929  16.3929  16.3929
    16.9922  16.9922  16.9922  16.9922  16.9922  16.9922  16.9922  16.9922
    16.9923  16.9923  16.9923  16.9923  16.9923  16.9923  16.9923  16.9923
    17.0292  17.0292  17.0292  17.0292  17.0292  17.0292  17.0292  17.0292
    19.2702  19.2702  19.2702  19.2702  19.2702  19.2702  19.2702  19.2702
    19.2703  19.2703  19.2703  19.2703  19.2703  19.2703  19.2703  19.2703
    19.8842  19.8842  19.8842  19.8842  19.8842  19.8842  19.8842  19.8842
    19.8843  19.8843  19.8843  19.8843  19.8843  19.8843  19.8843  19.8843
    20.5919  20.5920  20.5920  20.5920  20.5920  20.5920  20.5920  20.5920
    27.9705  27.9705

 ------ SPIN DOWN ----------


          k = 0.0548 0.0548 0.0548 ( 11342 PWs)   bands (ev):

   -65.4292 -65.3263 -65.3263 -65.3263 -65.3093 -65.3093 -65.3093 -65.3081
   -65.3081 -65.3081 -65.3076 -65.3076 -65.3076 -65.2999 -65.2998 -65.2210
   -31.7822 -31.7822 -31.7822 -31.7791 -31.7791 -31.7791 -31.6046 -31.6046
   -31.5984 -31.5264 -31.5238 -31.5238 -31.5238 -31.5004 -31.5004 -31.4869
   -31.4869 -31.4869 -31.4471 -31.4471 -31.4213 -31.4034 -31.4034 -31.4034
   -31.3916 -31.3916 -31.3916 -31.3771 -31.3771 -31.3771 -31.3740 -31.3740
   -31.3740 -31.3659 -31.3659 -31.3659 -31.3547 -31.3547 -31.3547 -31.1835
   -31.1818 -31.1818 -31.1818 -31.1788 -31.1788 -31.1788 -31.1764 -31.1764
    11.4916  15.5398  15.5398  15.5398  16.0497  16.0497  16.0497  16.0871
    16.0871  16.0871  16.1690  16.1690  16.1690  16.6687  16.6687  17.8744
    17.9579  17.9579  18.0730  18.0730  18.0973  18.1227  18.1227  18.1227
    18.1369  18.1369  18.1369  18.8832  18.8832  18.8832  19.2991  19.2991
    19.2991  19.5448  19.5448  19.5949  19.8319  19.8319  19.8319  19.9813
    19.9813  19.9813  20.0289  20.0289  20.0289  20.1408  20.1408  20.1408
    20.6733  20.6733  20.6733  20.7340  20.7340  20.7340  20.9725  20.9725
    20.9725  21.2365  21.2365  21.2365  21.7298  21.7298  21.7298  21.7567
    21.7567  21.7567  21.9202  21.9202  22.2223  22.2223  22.2223  22.2727
    22.2727  22.2737  22.2737  22.3849  22.3849  22.3849  22.4978  22.5862
    22.5862  22.8565  22.8565  22.8565  22.9799  22.9799  22.9799  23.0294
    23.0294  23.0294

          k = 0.0548 0.0548 0.1645 ( 11345 PWs)   bands (ev):

   -65.4255 -65.3448 -65.3256 -65.3256 -65.3113 -65.3113 -65.3086 -65.3079
   -65.3079 -65.3071 -65.3066 -65.3066 -65.3005 -65.3002 -65.2907 -65.2237
   -31.7738 -31.7738 -31.7726 -31.7697 -31.7644 -31.7644 -31.6084 -31.5980
   -31.5878 -31.5652 -31.5563 -31.5563 -31.5539 -31.5530 -31.5208 -31.5208
   -31.4833 -31.4542 -31.4443 -31.4408 -31.4282 -31.4032 -31.4032 -31.3954
   -31.3835 -31.3814 -31.3810 -31.3810 -31.3794 -31.3709 -31.3709 -31.3664
   -31.3664 -31.3623 -31.3623 -31.3294 -31.3267 -31.3267 -31.3191 -31.1992
   -31.1918 -31.1918 -31.1902 -31.1873 -31.1823 -31.1820 -31.1820 -31.1791
    11.6299  14.8329  15.6078  15.6078  16.0353  16.0353  16.1508  16.1508
    16.1528  16.1887  16.2234  16.2234  16.6529  16.7245  16.7392  17.7721
    17.8669  17.8957  17.9870  18.0985  18.1110  18.1761  18.1761  18.2180
    18.2180  18.2211  18.2469  18.4547  18.7883  18.7883  19.1184  19.1184
    19.5160  19.5375  19.5638  19.6113  19.6113  19.6603  19.6823  19.7963
    19.7963  20.0264  20.2370  20.2370  20.2737  20.2776  20.2776  20.3046
    20.3046  20.3762  20.3762  20.3819  20.3861  20.4104  20.7149  21.2114
    21.2114  21.4699  21.4699  21.4990  21.6441  21.6441  21.7186  21.7186
    21.7571  21.7804  21.8352  21.9537  22.2257  22.2312  22.2340  22.2689
    22.2716  22.3000  22.3011  22.3257  22.3257  22.4267  22.5789  22.6342
    22.6559  22.6559  22.8554  22.8554  22.8862  22.8862  23.0720  23.0720
    23.2222  23.2222

          k = 0.0548 0.0548 0.2742 ( 11363 PWs)   bands (ev):

   -65.4186 -65.3627 -65.3240 -65.3240 -65.3138 -65.3138 -65.3076 -65.3075
   -65.3074 -65.3062 -65.3061 -65.3061 -65.3017 -65.3010 -65.2745 -65.2291
   -31.7544 -31.7544 -31.7537 -31.7516 -31.7392 -31.7392 -31.6097 -31.6093
   -31.6034 -31.6000 -31.6000 -31.5849 -31.5769 -31.5724 -31.5671 -31.5671
   -31.4769 -31.4672 -31.4639 -31.4488 -31.4011 -31.4011 -31.3976 -31.3953
   -31.3905 -31.3853 -31.3853 -31.3689 -31.3689 -31.3664 -31.3664 -31.3465
   -31.3384 -31.3256 -31.3256 -31.2950 -31.2920 -31.2920 -31.2854 -31.2265
   -31.2080 -31.2080 -31.2065 -31.2046 -31.1946 -31.1919 -31.1919 -31.1892
    11.9027  14.1127  15.7247  15.7247  16.0307  16.0307  16.2340  16.2340
    16.3058  16.3058  16.3508  16.3835  16.8241  16.8787  16.9485  17.5922
    17.6220  17.8790  17.9130  18.0470  18.0539  18.0643  18.2942  18.2942
    18.3634  18.3634  18.4509  18.4820  18.7043  18.7043  18.9666  18.9666
    19.3100  19.3100  19.4751  19.4751  19.4943  19.5258  19.5710  19.5787
    19.7569  19.7809  19.7809  19.8720  19.8720  19.9675  19.9706  20.3629
    20.4714  20.5580  20.5580  20.5654  20.5657  20.5657  20.6814  21.5056
    21.5056  21.5339  21.5339  21.6109  21.6109  21.6680  21.7519  21.7821
    21.7821  21.8103  21.8290  22.0061  22.0170  22.1436  22.1583  22.1633
    22.2320  22.2608  22.2626  22.2662  22.4627  22.4627  22.4718  22.5015
    22.7125  22.7125  22.7687  22.7687  22.8502  22.8502  23.2018  23.2018
    23.2720  23.2720

          k = 0.0548 0.0548 0.3838 ( 11381 PWs)   bands (ev):

   -65.4084 -65.3798 -65.3219 -65.3219 -65.3165 -65.3165 -65.3069 -65.3069
   -65.3063 -65.3061 -65.3061 -65.3050 -65.3032 -65.3023 -65.2599 -65.2371
   -31.7265 -31.7253 -31.7252 -31.7252 -31.7044 -31.7044 -31.6525 -31.6500
   -31.6455 -31.6455 -31.6159 -31.6159 -31.6083 -31.5929 -31.5652 -31.5519
   -31.5104 -31.4969 -31.4496 -31.4370 -31.4117 -31.4051 -31.3978 -31.3978
   -31.3896 -31.3896 -31.3675 -31.3675 -31.3664 -31.3664 -31.3502 -31.3020
   -31.2975 -31.2896 -31.2896 -31.2636 -31.2621 -31.2592 -31.2592 -31.2546
   -31.2303 -31.2301 -31.2299 -31.2299 -31.2128 -31.2082 -31.2082 -31.2060
    12.3024  13.4287  15.8548  15.8548  16.0134  16.0134  16.3181  16.3181
    16.3689  16.3689  16.6271  16.6542  16.9420  17.0616  17.0847  17.3018
    17.3042  17.6759  17.8980  17.9113  17.9980  18.0064  18.4723  18.4723
    18.5676  18.5676  18.7288  18.7288  18.7484  18.7785  18.9025  18.9025
    19.0394  19.0394  19.1518  19.1518  19.3124  19.3124  19.4159  19.4159
    19.4822  19.5159  19.5162  19.5190  19.5362  19.5371  19.8877  20.2487
    20.7529  20.8315  20.8315  20.8932  20.8932  20.9012  21.0273  21.3191
    21.3191  21.4247  21.4325  21.4325  21.6491  21.7875  21.8623  21.8623
    21.8841  21.8987  21.9870  22.0675  22.0751  22.0924  22.0924  22.1060
    22.2402  22.2493  22.2556  22.2585  22.3358  22.3705  22.4001  22.4001
    22.5838  22.5838  22.7504  22.7504  22.8348  22.8348  23.3212  23.3212
    23.3254  23.3254

          k = 0.0548 0.0548-0.4935 ( 11364 PWs)   bands (ev):

   -65.3952 -65.3951 -65.3193 -65.3192 -65.3192 -65.3192 -65.3063 -65.3063
   -65.3063 -65.3063 -65.3048 -65.3048 -65.3037 -65.3037 -65.2474 -65.2474
   -31.6918 -31.6918 -31.6916 -31.6915 -31.6879 -31.6879 -31.6879 -31.6879
   -31.6625 -31.6625 -31.6625 -31.6625 -31.6030 -31.6029 -31.5401 -31.5401
   -31.5267 -31.5267 -31.4307 -31.4306 -31.4216 -31.4215 -31.3939 -31.3939
[...]
   -31.5261 -31.4988 -31.4988 -31.4988 -31.4692 -31.4572 -31.4572 -31.4572
   -31.3471 -31.3454 -31.3454 -31.3454 -31.3439 -31.3439 -31.3439 -31.3379
   -31.3379 -31.3043 -31.3043 -31.3043 -31.2650 -31.2476 -31.2476 -31.2476
   -31.2212 -31.2212 -31.2212 -31.2029 -31.2029 -31.2029 -31.1968 -31.1968
    12.6866  14.7056  14.7056  14.7056  15.9023  15.9023  15.9023  16.9010
    16.9010  16.9010  17.1958  17.1958  17.2673  17.2673  17.2673  17.3921
    17.5321  17.9990  17.9990  18.0093  18.0093  18.0093  18.2638  18.2638
    18.2638  18.2969  18.2969  18.4695  18.4695  18.4695  18.8910  18.8910
    18.8910  18.9754  18.9754  18.9754  18.9949  18.9949  18.9949  19.0290
    19.0290  19.0290  19.2031  19.2031  19.4550  19.4551  19.4551  20.4558
    20.5812  21.0305  21.0305  21.0305  21.0913  21.0913  21.0913  21.3990
    21.3990  21.3990  21.5082  21.5082  21.5082  21.7315  21.7315  21.7315
    21.7999  21.7999  22.0453  22.0453  22.1202  22.1202  22.1456  22.1456
    22.1456  22.2158  22.2158  22.2158  22.2280  22.2280  22.3527  22.3527
    22.3527  22.4392  22.4393  22.4393  22.9420  22.9420  22.9420  25.0751
    25.2121  25.2121

          k = 0.2742 0.2742 0.3838 ( 11386 PWs)   bands (ev):

   -65.3907 -65.3665 -65.3474 -65.3474 -65.3344 -65.3344 -65.3241 -65.3165
   -65.2951 -65.2933 -65.2882 -65.2882 -65.2812 -65.2812 -65.2672 -65.2489
   -31.7101 -31.7101 -31.6987 -31.6706 -31.6706 -31.6679 -31.6591 -31.6550
   -31.6383 -31.6383 -31.6336 -31.6260 -31.5931 -31.5618 -31.5618 -31.5526
   -31.5344 -31.5015 -31.5015 -31.4877 -31.4807 -31.4779 -31.4779 -31.4377
   -31.3889 -31.3745 -31.3485 -31.3461 -31.3297 -31.3297 -31.3155 -31.3155
   -31.3093 -31.3093 -31.2955 -31.2705 -31.2669 -31.2669 -31.2543 -31.2455
   -31.2271 -31.2162 -31.2136 -31.2136 -31.2072 -31.2039 -31.2039 -31.1948
    13.0599  14.0936  14.9793  14.9793  15.6158  15.6158  16.2215  17.0263
    17.0916  17.0916  17.1332  17.3303  17.3307  17.3307  17.3502  17.4290
    17.5177  17.7695  18.0476  18.0712  18.0712  18.1481  18.1827  18.1920
    18.3127  18.3716  18.3716  18.4658  18.5423  18.5423  18.7043  18.7043
    18.7045  18.7777  18.7777  18.8343  18.8591  18.8591  18.8747  18.8747
    18.9566  18.9829  19.0794  19.1396  19.1797  19.1797  19.5988  20.1862
    20.7004  21.1324  21.1324  21.2379  21.2752  21.2879  21.2899  21.2899
    21.2945  21.2945  21.5706  21.6499  21.6499  21.6593  21.8124  21.8304
    21.8304  21.9065  21.9078  21.9126  22.0199  22.0732  22.1311  22.1311
    22.1342  22.1460  22.1856  22.2604  22.2742  22.2742  22.3024  22.3243
    22.3243  22.3283  22.4217  22.4217  22.6161  22.6161  23.4445  24.5220
    25.5235  25.5235

          k = 0.2742 0.2742-0.4935 ( 11384 PWs)   bands (ev):

   -65.3796 -65.3796 -65.3413 -65.3413 -65.3413 -65.3413 -65.3206 -65.3206
   -65.2940 -65.2940 -65.2843 -65.2843 -65.2843 -65.2843 -65.2571 -65.2571
   -31.6906 -31.6906 -31.6906 -31.6906 -31.6655 -31.6655 -31.6637 -31.6637
   -31.6476 -31.6476 -31.6004 -31.6004 -31.6004 -31.6004 -31.5662 -31.5661
   -31.5206 -31.5206 -31.4936 -31.4936 -31.4936 -31.4936 -31.4345 -31.4345
   -31.4057 -31.4057 -31.3494 -31.3494 -31.3176 -31.3176 -31.3176 -31.3176
   -31.2896 -31.2896 -31.2896 -31.2896 -31.2584 -31.2583 -31.2478 -31.2478
   -31.2409 -31.2409 -31.2074 -31.2074 -31.2074 -31.2074 -31.1985 -31.1985
    13.5357  13.5357  15.2959  15.2959  15.2959  15.2959  16.6096  16.6096
    17.2547  17.2547  17.2547  17.2547  17.3698  17.3698  17.4316  17.4316
    17.5450  17.5450  18.1157  18.1157  18.1919  18.1920  18.2897  18.2897
    18.2897  18.2897  18.4000  18.4000  18.5219  18.5219  18.5219  18.5219
    18.6510  18.6510  18.8187  18.8187  18.8187  18.8187  18.9327  18.9327
    18.9327  18.9327  18.9932  18.9932  19.0651  19.0652  19.8456  19.8456
    20.9634  20.9634  21.2091  21.2091  21.2091  21.2091  21.4839  21.4840
    21.4889  21.4889  21.4889  21.4889  21.5766  21.5767  21.7457  21.7457
    21.9124  21.9124  22.0427  22.0428  22.0822  22.0822  22.0822  22.0822
    22.1405  22.1405  22.1425  22.1425  22.3477  22.3477  22.3575  22.3575
    22.3575  22.3575  22.3667  22.3667  22.3667  22.3667  23.9783  23.9783
    25.7633  25.7633

          k = 0.2742 0.3838 0.3838 ( 11406 PWs)   bands (ev):

   -65.3826 -65.3604 -65.3604 -65.3440 -65.3429 -65.3309 -65.3309 -65.3218
   -65.2925 -65.2892 -65.2892 -65.2831 -65.2813 -65.2708 -65.2708 -65.2544
   -31.6992 -31.6866 -31.6866 -31.6696 -31.6666 -31.6666 -31.6540 -31.6423
   -31.6423 -31.6405 -31.6307 -31.6012 -31.5897 -31.5863 -31.5622 -31.5367
   -31.5367 -31.5191 -31.5191 -31.5181 -31.5099 -31.5099 -31.5045 -31.4299
   -31.4054 -31.3442 -31.3442 -31.3305 -31.3305 -31.3300 -31.3123 -31.3068
   -31.2930 -31.2897 -31.2810 -31.2763 -31.2763 -31.2575 -31.2575 -31.2510
   -31.2259 -31.2254 -31.2254 -31.2177 -31.2044 -31.2044 -31.2016 -31.1982
    13.4204  14.4065  14.4065  15.2033  15.2661  15.9326  15.9326  16.7039
    17.2929  17.3216  17.3216  17.4439  17.4915  17.5063  17.5063  17.5109
    17.6039  17.8851  17.8851  18.0209  18.1321  18.1687  18.1745  18.2913
    18.2913  18.3405  18.3405  18.4291  18.4354  18.4590  18.5783  18.5957
    18.5957  18.6625  18.6625  18.6827  18.7647  18.7647  18.7737  18.8178
    18.8857  18.8857  18.9457  18.9537  19.0393  19.2657  19.2657  19.7942
    20.9742  21.2651  21.3024  21.3096  21.3096  21.4422  21.4450  21.4450
    21.4963  21.4963  21.5641  21.5641  21.6706  21.6909  21.7422  21.7422
    21.7978  21.8381  21.8931  21.9609  22.0401  22.0713  22.0752  22.1104
    22.1281  22.1281  22.1321  22.1321  22.2049  22.2328  22.2328  22.2525
    22.2980  22.3239  22.3239  22.4131  22.4258  23.0618  23.0618  24.0236
    25.9222  26.4231

          k = 0.2742 0.3838-0.4935 ( 11392 PWs)   bands (ev):

   -65.3724 -65.3723 -65.3528 -65.3528 -65.3373 -65.3372 -65.3266 -65.3266
   -65.2906 -65.2906 -65.2858 -65.2857 -65.2755 -65.2755 -65.2618 -65.2618
   -31.6833 -31.6833 -31.6750 -31.6750 -31.6579 -31.6579 -31.6554 -31.6554
   -31.6477 -31.6477 -31.6141 -31.6141 -31.5673 -31.5672 -31.5603 -31.5603
   -31.5406 -31.5406 -31.5254 -31.5254 -31.5212 -31.5212 -31.4742 -31.4742
   -31.3741 -31.3740 -31.3297 -31.3297 -31.3185 -31.3185 -31.3157 -31.3156
   -31.2885 -31.2885 -31.2732 -31.2732 -31.2524 -31.2523 -31.2521 -31.2521
   -31.2479 -31.2479 -31.2219 -31.2219 -31.2022 -31.2022 -31.1996 -31.1995
    13.8769  13.8769  14.7874  14.7874  15.5990  15.5990  16.3120  16.3120
    17.4423  17.4423  17.4788  17.4788  17.5244  17.5244  17.5388  17.5388
    17.6975  17.6975  18.1391  18.1391  18.1470  18.1470  18.1832  18.1833
    18.2074  18.2074  18.3457  18.3457  18.4270  18.4270  18.5380  18.5380
    18.5904  18.5905  18.5908  18.5908  18.7500  18.7500  18.8261  18.8261
    18.8404  18.8405  18.9561  18.9561  18.9842  18.9842  19.4711  19.4711
    21.2651  21.2651  21.2806  21.2806  21.4163  21.4163  21.5471  21.5471
    21.5929  21.5929  21.5943  21.5943  21.6046  21.6046  21.6870  21.6870
    21.8525  21.8526  21.8978  21.8978  21.9904  21.9905  22.0861  22.0861
    22.1012  22.1013  22.1191  22.1191  22.1326  22.1326  22.2012  22.2012
    22.3321  22.3321  22.3847  22.3847  22.7010  22.7010  23.5377  23.5377
    26.2733  26.2733

          k = 0.2742-0.4935-0.4935 ( 11384 PWs)   bands (ev):

   -65.3633 -65.3632 -65.3632 -65.3632 -65.3323 -65.3323 -65.3323 -65.3323
   -65.2878 -65.2878 -65.2878 -65.2877 -65.2680 -65.2679 -65.2679 -65.2679
   -31.6699 -31.6699 -31.6699 -31.6699 -31.6613 -31.6613 -31.6613 -31.6612
   -31.6306 -31.6306 -31.6306 -31.6305 -31.5514 -31.5513 -31.5513 -31.5513
   -31.5401 -31.5401 -31.5401 -31.5401 -31.5171 -31.5171 -31.5171 -31.5171
   -31.3439 -31.3439 -31.3439 -31.3439 -31.3213 -31.3213 -31.3213 -31.3213
   -31.2646 -31.2645 -31.2645 -31.2645 -31.2605 -31.2605 -31.2605 -31.2605
   -31.2386 -31.2385 -31.2385 -31.2385 -31.1998 -31.1998 -31.1998 -31.1998
    14.3030  14.3030  14.3030  14.3030  15.9546  15.9546  15.9546  15.9547
    17.5266  17.5266  17.5266  17.5266  17.6269  17.6269  17.6269  17.6269
    17.9258  17.9258  17.9258  17.9258  18.0765  18.0765  18.0765  18.0765
    18.3240  18.3240  18.3240  18.3240  18.4112  18.4112  18.4112  18.4112
    18.6029  18.6029  18.6029  18.6029  18.6962  18.6962  18.6962  18.6962
    18.8772  18.8773  18.8773  18.8773  19.1683  19.1684  19.1684  19.1684
    21.4099  21.4099  21.4099  21.4099  21.5825  21.5825  21.5825  21.5825
    21.5826  21.5826  21.5826  21.5826  21.6487  21.6487  21.6487  21.6487
    21.7353  21.7353  21.7353  21.7353  21.9858  21.9859  21.9859  21.9859
    22.1121  22.1121  22.1121  22.1121  22.1267  22.1267  22.1267  22.1267
    22.3701  22.3701  22.3701  22.3701  23.1112  23.1112  23.1112  23.1112
    26.7721  26.7721

          k = 0.3838 0.3838 0.3838 ( 11422 PWs)   bands (ev):

   -65.3752 -65.3548 -65.3548 -65.3548 -65.3398 -65.3398 -65.3398 -65.3282
   -65.2886 -65.2831 -65.2831 -65.2831 -65.2738 -65.2738 -65.2738 -65.2593
   -31.6745 -31.6745 -31.6745 -31.6598 -31.6598 -31.6598 -31.6413 -31.6179
   -31.6179 -31.6130 -31.6130 -31.6130 -31.6049 -31.6049 -31.5557 -31.5557
   -31.5557 -31.5482 -31.5482 -31.5482 -31.5393 -31.5393 -31.5393 -31.4671
   -31.3743 -31.3178 -31.3178 -31.3178 -31.3031 -31.3031 -31.3031 -31.2895
   -31.2895 -31.2763 -31.2763 -31.2763 -31.2739 -31.2739 -31.2739 -31.2542
   -31.2247 -31.2247 -31.2247 -31.2188 -31.2188 -31.2141 -31.2141 -31.2141
    13.7722  14.7236  14.7236  14.7236  15.5262  15.5262  15.5262  16.3307
    17.5330  17.5330  17.5330  17.6152  17.6152  17.7143  17.7143  17.7143
    17.7867  17.8806  17.8806  17.8806  18.2026  18.2026  18.2451  18.2451
    18.3773  18.3773  18.3773  18.3801  18.3801  18.3801  18.4826  18.4826
    18.4826  18.5651  18.5651  18.5651  18.6778  18.6778  18.6778  18.6799
    18.6799  18.6799  18.8717  18.8717  18.9336  18.9336  18.9336  19.3941
    21.2726  21.4794  21.4794  21.4794  21.5065  21.5065  21.5065  21.5744
    21.5744  21.5744  21.7659  21.7659  21.7659  21.8086  21.8086  21.8964
    21.8964  21.8964  21.9027  21.9027  22.0018  22.0018  22.0060  22.0060
    22.0569  22.0569  22.0569  22.1081  22.1081  22.1081  22.1949  22.1949
    22.1949  22.2020  22.2021  22.2021  22.6657  22.6657  22.6657  23.5554
    27.0699  27.0699

          k = 0.3838 0.3838-0.4935 ( 11408 PWs)   bands (ev):

   -65.3658 -65.3657 -65.3479 -65.3479 -65.3478 -65.3478 -65.3344 -65.3344
   -65.2855 -65.2854 -65.2779 -65.2779 -65.2778 -65.2778 -65.2658 -65.2657
   -31.6624 -31.6624 -31.6624 -31.6624 -31.6426 -31.6425 -31.6421 -31.6421
   -31.6269 -31.6269 -31.5895 -31.5895 -31.5807 -31.5807 -31.5807 -31.5806
   -31.5734 -31.5734 -31.5570 -31.5570 -31.5570 -31.5570 -31.5074 -31.5074
   -31.3449 -31.3449 -31.2974 -31.2974 -31.2940 -31.2940 -31.2940 -31.2939
   -31.2845 -31.2845 -31.2845 -31.2845 -31.2618 -31.2618 -31.2544 -31.2543
   -31.2449 -31.2448 -31.2214 -31.2214 -31.2214 -31.2214 -31.2144 -31.2144
    14.2149  14.2149  15.1087  15.1087  15.1087  15.1087  15.9166  15.9166
    17.6921  17.6921  17.6921  17.6921  17.7417  17.7417  17.7436  17.7436
    17.7735  17.7735  18.0969  18.0969  18.0969  18.0969  18.2376  18.2376
    18.2877  18.2877  18.3168  18.3168  18.3472  18.3472  18.5051  18.5051
    18.5051  18.5051  18.6026  18.6026  18.6027  18.6027  18.6618  18.6618
    18.6618  18.6618  18.7460  18.7461  18.7773  18.7773  19.0793  19.0793
    21.5259  21.5259  21.5259  21.5259  21.5897  21.5897  21.6998  21.6998
    21.6999  21.6999  21.7001  21.7002  21.7213  21.7213  21.7238  21.7238
    21.8808  21.8808  21.9443  21.9443  22.0234  22.0234  22.0339  22.0339
    22.0370  22.0370  22.0370  22.0370  22.1356  22.1356  22.1680  22.1680
    22.1680  22.1680  22.2995  22.2995  22.2995  22.2995  23.1051  23.1051
    27.3651  27.3651

          k = 0.3838-0.4935-0.4935 ( 11408 PWs)   bands (ev):

   -65.3575 -65.3575 -65.3575 -65.3574 -65.3416 -65.3416 -65.3416 -65.3415
   -65.2812 -65.2811 -65.2811 -65.2811 -65.2713 -65.2712 -65.2712 -65.2712
   -31.6464 -31.6464 -31.6464 -31.6464 -31.6422 -31.6421 -31.6421 -31.6421
   -31.6036 -31.6036 -31.6036 -31.6035 -31.5849 -31.5849 -31.5849 -31.5849
   -31.5801 -31.5801 -31.5801 -31.5801 -31.5440 -31.5440 -31.5440 -31.5439
   -31.3181 -31.3181 -31.3181 -31.3181 -31.2829 -31.2829 -31.2829 -31.2829
   -31.2757 -31.2757 -31.2757 -31.2757 -31.2572 -31.2572 -31.2572 -31.2572
   -31.2432 -31.2431 -31.2431 -31.2431 -31.2216 -31.2216 -31.2216 -31.2216
    14.6351  14.6351  14.6351  14.6351  15.4983  15.4983  15.4983  15.4983
    17.7635  17.7635  17.7635  17.7635  17.9302  17.9302  17.9302  17.9302
    17.9631  17.9631  17.9631  17.9631  18.0419  18.0419  18.0419  18.0419
    18.4071  18.4071  18.4071  18.4071  18.4137  18.4137  18.4137  18.4137
    18.4181  18.4181  18.4181  18.4181  18.6093  18.6093  18.6093  18.6093
    18.6736  18.6736  18.6736  18.6736  18.7695  18.7695  18.7695  18.7695
    21.6729  21.6729  21.6729  21.6729  21.6974  21.6974  21.6974  21.6974
    21.7574  21.7574  21.7574  21.7574  21.8155  21.8155  21.8155  21.8155
    21.9344  21.9344  21.9344  21.9344  21.9437  21.9438  21.9438  21.9438
    22.0169  22.0169  22.0169  22.0169  22.0206  22.0206  22.0206  22.0206
    22.1110  22.1110  22.1110  22.1110  22.6945  22.6946  22.6946  22.6946
    27.9008  27.9008

          k =-0.4935-0.4935-0.4935 ( 11296 PWs)   bands (ev):

   -65.3501 -65.3501 -65.3501 -65.3501 -65.3501 -65.3501 -65.3501 -65.3500
   -65.2754 -65.2753 -65.2753 -65.2753 -65.2753 -65.2753 -65.2753 -65.2753
   -31.6155 -31.6155 -31.6155 -31.6155 -31.6155 -31.6155 -31.6155 -31.6155
   -31.6154 -31.6154 -31.6154 -31.6154 -31.6154 -31.6154 -31.6154 -31.6154
   -31.5738 -31.5738 -31.5738 -31.5738 -31.5738 -31.5738 -31.5738 -31.5737
   -31.2944 -31.2943 -31.2943 -31.2943 -31.2943 -31.2943 -31.2943 -31.2943
   -31.2496 -31.2496 -31.2496 -31.2496 -31.2496 -31.2496 -31.2496 -31.2496
   -31.2495 -31.2495 -31.2495 -31.2495 -31.2495 -31.2495 -31.2495 -31.2495
    15.0444  15.0444  15.0444  15.0444  15.0444  15.0444  15.0444  15.0444
    18.0036  18.0036  18.0036  18.0036  18.0036  18.0036  18.0036  18.0036
    18.0036  18.0036  18.0036  18.0036  18.0036  18.0036  18.0036  18.0036
    18.4200  18.4200  18.4200  18.4200  18.4200  18.4200  18.4200  18.4200
    18.5115  18.5115  18.5115  18.5115  18.5115  18.5115  18.5115  18.5115
    18.5116  18.5116  18.5116  18.5116  18.5116  18.5116  18.5116  18.5116
    21.8781  21.8781  21.8781  21.8781  21.8781  21.8781  21.8781  21.8781
    21.8781  21.8781  21.8781  21.8781  21.8781  21.8781  21.8781  21.8781
    21.8864  21.8864  21.8864  21.8864  21.8864  21.8864  21.8864  21.8864
    21.8864  21.8864  21.8864  21.8864  21.8864  21.8864  21.8864  21.8864
    22.3071  22.3071  22.3071  22.3071  22.3071  22.3071  22.3071  22.3072
    29.0231  29.0231

     the Fermi energy is    20.3114 ev

!    total energy              =   -5268.14038089 Ry

     total all-electron energy =    -40728.884910 Ry
     estimated scf accuracy    <       0.00000007 Ry
     smearing contrib. (-TS)   =       0.09687303 Ry
     internal energy E=F+TS    =   -5268.23725393 Ry

     The total energy is F=E-TS. E is the sum of the following terms:
     one-electron contribution =   -1626.75422837 Ry
     hartree contribution      =     993.54078376 Ry
     xc contribution           =    -444.89443495 Ry
     ewald contribution        =   -2865.44991248 Ry
     one-center paw contrib.   =   -1324.67946188 Ry

     total magnetization       =    32.01 Bohr mag/cell
     absolute magnetization    =    33.51 Bohr mag/cell

     convergence has been achieved in  20 iterations

     negative rho (up, down):  0.000E+00 2.167E-03

     Forces acting on atoms (cartesian axes, Ry/au):

     atom    1 type  1   force =     0.00000000    0.00000000    0.00000000
     atom    2 type  2   force =    -0.00000084   -0.00000084   -0.00000084
     atom    3 type  1   force =     0.00000000    0.00000000    0.00000000
     atom    4 type  2   force =    -0.00000084   -0.00000084    0.00000084
     atom    5 type  1   force =     0.00000000    0.00000000    0.00000000
     atom    6 type  2   force =    -0.00000084    0.00000084   -0.00000084
     atom    7 type  1   force =     0.00000000    0.00000000    0.00000000
     atom    8 type  2   force =    -0.00000084    0.00000084    0.00000084
     atom    9 type  1   force =     0.00000000    0.00000000    0.00000000
     atom   10 type  2   force =     0.00000084   -0.00000084   -0.00000084
     atom   11 type  1   force =     0.00000000    0.00000000    0.00000000
     atom   12 type  2   force =     0.00000084   -0.00000084    0.00000084
     atom   13 type  1   force =     0.00000000    0.00000000    0.00000000
     atom   14 type  2   force =     0.00000084    0.00000084   -0.00000084
     atom   15 type  1   force =     0.00000000    0.00000000    0.00000000
     atom   16 type  2   force =     0.00000084    0.00000084    0.00000084

     Total force =     0.000004     Total SCF correction =     0.000053
     SCF correction compared to forces is large: reduce conv_thr to get better values


     Computing stress (Cartesian axis) and pressure


     negative rho (up, down):  0.000E+00 2.167E-03
          total   stress  (Ry/bohr**3)                   (kbar)     P=      144.81
   0.00098439   0.00000000   0.00000000          144.81        0.00        0.00
   0.00000000   0.00098439   0.00000000            0.00      144.81        0.00
   0.00000000   0.00000000   0.00098439            0.00        0.00      144.81


     Writing output data file /scratch/FZqOtCaAHYXXXUNx.save/
 
     init_run     :      4.05s CPU      4.19s WALL (       1 calls)
     electrons    :    296.08s CPU    301.95s WALL (       1 calls)
     forces       :      1.95s CPU      1.98s WALL (       1 calls)
     stress       :      3.25s CPU      3.28s WALL (       1 calls)

     Called by init_run:
     wfcinit      :      3.42s CPU      3.51s WALL (       1 calls)
     potinit      :      0.28s CPU      0.29s WALL (       1 calls)
     hinit0       :      0.12s CPU      0.12s WALL (       1 calls)

     Called by electrons:
     c_bands      :    265.90s CPU    270.76s WALL (      21 calls)
     sum_band     :     27.03s CPU     27.78s WALL (      21 calls)
     v_of_rho     :      0.29s CPU      0.30s WALL (      21 calls)
     newd         :      0.40s CPU      0.41s WALL (      21 calls)
     PAW_pot      :      2.41s CPU      2.64s WALL (      21 calls)
     mix_rho      :      0.20s CPU      0.22s WALL (      21 calls)

     Called by c_bands:
     init_us_2    :      1.00s CPU      1.05s WALL (    3150 calls)
     cegterg      :    261.61s CPU    266.34s WALL (    1470 calls)

     Called by *egterg:
     cdiaghg      :     65.57s CPU     65.85s WALL (    6972 calls)
     h_psi        :    126.35s CPU    130.37s WALL (    7112 calls)
     s_psi        :      6.20s CPU      6.27s WALL (    7112 calls)
     g_psi        :      0.23s CPU      0.23s WALL (    5572 calls)

     Called by h_psi:
     h_psi:calbec :     19.28s CPU     19.52s WALL (    7112 calls)
     vloc_psi     :     99.54s CPU    103.25s WALL (    7112 calls)
     add_vuspsi   :      7.09s CPU      7.18s WALL (    7112 calls)

     General routines
     calbec       :     27.46s CPU     27.77s WALL (    8932 calls)
     fft          :      0.32s CPU      0.33s WALL (     565 calls)
     ffts         :      0.12s CPU      0.12s WALL (     461 calls)
     fftw         :    113.03s CPU    117.12s WALL ( 1473878 calls)
     interpolate  :      0.03s CPU      0.03s WALL (      42 calls)
 
     Parallel routines
     fft_scatt_xy :      7.98s CPU      8.29s WALL ( 1474904 calls)
     fft_scatt_yz :     91.95s CPU     95.36s WALL ( 1474904 calls)
 
     PWSCF        :   5m12.68s CPU   5m19.43s WALL

 
   This run was terminated on:  13:54:10  17Jan2022            

=------------------------------------------------------------------------------=
   JOB DONE.
=------------------------------------------------------------------------------=
