
     Program PWSCF v.6.7MaX starts on 19Mar2022 at 17: 3:26 

     This program is part of the open-source Quantum ESPRESSO suite
     for quantum simulation of materials; please cite
         "P. Giannozzi et al., J. Phys.:Condens. Matter 21 395502 (2009);
         "P. Giannozzi et al., J. Phys.:Condens. Matter 29 465901 (2017);
          URL http://www.quantum-espresso.org", 
     in publications or presentations arising from this work. More details at
     http://www.quantum-espresso.org/quote

     Parallel version (MPI & OpenMP), running on      72 processor cores
     Number of MPI processes:                72
     Threads/MPI process:                     1

     MPI processes distributed on     1 nodes
     R & G space division:  proc/nbgrp/npool/nimage =      72
     Reading input from bcc_15.in
Warning: card &CELL ignored
Warning: card CELL_DYNAMICS = 'BFGS', ignored
Warning: card CELL_FACTOR = 2.0, ignored
Warning: card PRESS = 0.0, ignored
Warning: card / ignored

     Current dimensions of program PWSCF are:
     Max number of different atomic species (ntypx) = 10
     Max number of k-points (npk) =  40000
     Max angular momentum in pseudopotentials (lmaxx) =  3
     file Fe.pbe-spn-kjpaw_psl.1.0.0.UPF: wavefunction(s)  3P 3D renormalized
     file Fe.pbe-spn-kjpaw_psl.1.0.0.UPF: wavefunction(s)  3P 3D renormalized

     Subspace diagonalization in iterative solution of the eigenvalue problem:
     one sub-group per band group will be used
     ELPA distributed-memory algorithm (size of sub-group:  8*  8 procs)

     Found symmetry operation: I + (  0.0000  0.0000 -0.5000)
     This is a supercell, fractional translations are disabled
     Message from routine setup:
     using ibrav=0 with symmetry is DISCOURAGED, use correct ibrav instead
 
     Parallelization info
     --------------------
     sticks:   dense  smooth     PW     G-vecs:    dense   smooth      PW
     Min         140      92     24                10562     5668     790
     Max         141      93     25                10568     5672     799
     Sum       10081    6641   1789               760649   408269   57243
 


     bravais-lattice index     =            0
     lattice parameter (alat)  =      10.2690  a.u.
     unit-cell volume          =    5053.1257 (a.u.)^3
     number of atoms/cell      =           16
     number of atomic types    =            2
     number of electrons       =       256.00
     number of Kohn-Sham states=          154
     kinetic-energy cutoff     =      71.0000  Ry
     charge density cutoff     =     430.0000  Ry
     scf convergence threshold =      1.0E-07
     mixing beta               =       0.3000
     number of iterations used =           10  local-TF  mixing
     Exchange-correlation= SLA  PW   PBX  PBC
                           (   1   4   3   4   0   0   0)

     celldm(1)=  10.269041  celldm(2)=   0.000000  celldm(3)=   0.000000
     celldm(4)=   0.000000  celldm(5)=   0.000000  celldm(6)=   0.000000

     crystal axes: (cart. coord. in units of alat)
               a(1) = (   1.671053   0.000000   0.000000 )  
               a(2) = (   0.000000   1.671053   0.000000 )  
               a(3) = (   0.000000   0.000000   1.671053 )  

     reciprocal axes: (cart. coord. in units 2 pi/alat)
               b(1) = (  0.598425  0.000000  0.000000 )  
               b(2) = (  0.000000  0.598425  0.000000 )  
               b(3) = (  0.000000  0.000000  0.598425 )  


     PseudoPot. # 1 for Fe read from file:
     /rds/homes/b/bxp912/pp/Fe.pbe-spn-kjpaw_psl.1.0.0.UPF
     MD5 check sum: 42f43b795421b414b0dc916aa790dbcb
     Pseudo is Projector augmented-wave + core cor, Zval = 16.0
     Generated using &quot;atomic&quot; code by A. Dal Corso  v.6.3
     Shape of augmentation charge: PSQ
     Using radial grid of 1191 points,  6 beta functions with: 
                l(1) =   0
                l(2) =   0
                l(3) =   1
                l(4) =   1
                l(5) =   2
                l(6) =   2
     Q(r) pseudized with 0 coefficients 


     PseudoPot. # 2 for Fe read from file:
     /rds/homes/b/bxp912/pp/Fe.pbe-spn-kjpaw_psl.1.0.0.UPF
     MD5 check sum: 42f43b795421b414b0dc916aa790dbcb
     Pseudo is Projector augmented-wave + core cor, Zval = 16.0
     Generated using &quot;atomic&quot; code by A. Dal Corso  v.6.3
     Shape of augmentation charge: PSQ
     Using radial grid of 1191 points,  6 beta functions with: 
                l(1) =   0
                l(2) =   0
                l(3) =   1
                l(4) =   1
                l(5) =   2
                l(6) =   2
     Q(r) pseudized with 0 coefficients 


     atomic species   valence    mass     pseudopotential
        Fe1           16.00    55.84500     Fe( 1.00)
        Fe2           16.00    55.84500     Fe( 1.00)

     Starting magnetic structure 
     atomic species   magnetization
        Fe1          0.100
        Fe2          0.100

     48 Sym. Ops., with inversion, found



   Cartesian axes

     site n.     atom                  positions (alat units)
         1           Fe1 tau(   1) = (   0.0000000   0.0000000   0.0000000  )
         2           Fe2 tau(   2) = (   0.4177632   0.4177632   0.4177632  )
         3           Fe1 tau(   3) = (   0.0000000   0.0000000   0.8355263  )
         4           Fe2 tau(   4) = (   0.4177632   0.4177632   1.2532895  )
         5           Fe1 tau(   5) = (   0.0000000   0.8355263   0.0000000  )
         6           Fe2 tau(   6) = (   0.4177632   1.2532895   0.4177632  )
         7           Fe1 tau(   7) = (   0.0000000   0.8355263   0.8355263  )
         8           Fe2 tau(   8) = (   0.4177632   1.2532895   1.2532895  )
         9           Fe1 tau(   9) = (   0.8355263   0.0000000   0.0000000  )
        10           Fe2 tau(  10) = (   1.2532895   0.4177632   0.4177632  )
        11           Fe1 tau(  11) = (   0.8355263   0.0000000   0.8355263  )
        12           Fe2 tau(  12) = (   1.2532895   0.4177632   1.2532895  )
        13           Fe1 tau(  13) = (   0.8355263   0.8355263   0.0000000  )
        14           Fe2 tau(  14) = (   1.2532895   1.2532895   0.4177632  )
        15           Fe1 tau(  15) = (   0.8355263   0.8355263   0.8355263  )
        16           Fe2 tau(  16) = (   1.2532895   1.2532895   1.2532895  )

     number of k points=    35  Marzari-Vanderbilt smearing, width (Ry)=  0.0400
                       cart. coord. in units 2pi/alat
        k(    1) = (   0.0332458   0.0332458   0.0332458), wk =   0.0109739
        k(    2) = (   0.0332458   0.0332458   0.0997375), wk =   0.0329218
        k(    3) = (   0.0332458   0.0332458   0.1662292), wk =   0.0329218
        k(    4) = (   0.0332458   0.0332458   0.2327209), wk =   0.0329218
        k(    5) = (   0.0332458   0.0332458  -0.2992126), wk =   0.0164609
        k(    6) = (   0.0332458   0.0997375   0.0997375), wk =   0.0329218
        k(    7) = (   0.0332458   0.0997375   0.1662292), wk =   0.0658436
        k(    8) = (   0.0332458   0.0997375   0.2327209), wk =   0.0658436
        k(    9) = (   0.0332458   0.0997375  -0.2992126), wk =   0.0329218
        k(   10) = (   0.0332458   0.1662292   0.1662292), wk =   0.0329218
        k(   11) = (   0.0332458   0.1662292   0.2327209), wk =   0.0658436
        k(   12) = (   0.0332458   0.1662292  -0.2992126), wk =   0.0329218
        k(   13) = (   0.0332458   0.2327209   0.2327209), wk =   0.0329218
        k(   14) = (   0.0332458   0.2327209  -0.2992126), wk =   0.0329218
        k(   15) = (   0.0332458  -0.2992126  -0.2992126), wk =   0.0082305
        k(   16) = (   0.0997375   0.0997375   0.0997375), wk =   0.0109739
        k(   17) = (   0.0997375   0.0997375   0.1662292), wk =   0.0329218
        k(   18) = (   0.0997375   0.0997375   0.2327209), wk =   0.0329218
        k(   19) = (   0.0997375   0.0997375  -0.2992126), wk =   0.0164609
        k(   20) = (   0.0997375   0.1662292   0.1662292), wk =   0.0329218
        k(   21) = (   0.0997375   0.1662292   0.2327209), wk =   0.0658436
        k(   22) = (   0.0997375   0.1662292  -0.2992126), wk =   0.0329218
        k(   23) = (   0.0997375   0.2327209   0.2327209), wk =   0.0329218
        k(   24) = (   0.0997375   0.2327209  -0.2992126), wk =   0.0329218
        k(   25) = (   0.0997375  -0.2992126  -0.2992126), wk =   0.0082305
        k(   26) = (   0.1662292   0.1662292   0.1662292), wk =   0.0109739
        k(   27) = (   0.1662292   0.1662292   0.2327209), wk =   0.0329218
        k(   28) = (   0.1662292   0.1662292  -0.2992126), wk =   0.0164609
        k(   29) = (   0.1662292   0.2327209   0.2327209), wk =   0.0329218
        k(   30) = (   0.1662292   0.2327209  -0.2992126), wk =   0.0329218
        k(   31) = (   0.1662292  -0.2992126  -0.2992126), wk =   0.0082305
        k(   32) = (   0.2327209   0.2327209   0.2327209), wk =   0.0109739
        k(   33) = (   0.2327209   0.2327209  -0.2992126), wk =   0.0164609
        k(   34) = (   0.2327209  -0.2992126  -0.2992126), wk =   0.0082305
        k(   35) = (  -0.2992126  -0.2992126  -0.2992126), wk =   0.0013717

     Dense  grid:   760649 G-vectors     FFT dimensions: ( 120, 120, 120)

     Smooth grid:   408269 G-vectors     FFT dimensions: (  96,  96,  96)

     Estimated max dynamical RAM per process >     170.77 MB

     Estimated total dynamical RAM >      12.01 GB

     Check: negative core charge=   -0.000003
     Generating pointlists ...
     new r_m :   0.2985 (alat units)  3.0651 (a.u.) for type    1
     new r_m :   0.2985 (alat units)  3.0651 (a.u.) for type    2

     Initial potential from superposition of free atoms

     starting charge  255.99300, renormalised to  256.00000
     Starting wfcs are  160 randomized atomic wfcs
     Checking if some PAW data can be deallocated... 

     total cpu time spent up to now is       13.8 secs

     Self-consistent Calculation

     iteration #  1     ecut=    71.00 Ry     beta= 0.30
     Davidson diagonalization with overlap
     ethr =  1.00E-02,  avg # of iterations =  2.0

     total cpu time spent up to now is       44.5 secs

     total energy              =   -5261.93037551 Ry
     estimated scf accuracy    <      12.28435383 Ry

     total magnetization       =    40.86 Bohr mag/cell
     absolute magnetization    =    40.86 Bohr mag/cell

     iteration #  2     ecut=    71.00 Ry     beta= 0.30
     Davidson diagonalization with overlap
     ethr =  4.80E-03,  avg # of iterations =  1.5

     total cpu time spent up to now is       72.9 secs

     total energy              =   -5262.97677004 Ry
     estimated scf accuracy    <       1.55787483 Ry

     total magnetization       =    50.00 Bohr mag/cell
     absolute magnetization    =    50.00 Bohr mag/cell

     iteration #  3     ecut=    71.00 Ry     beta= 0.30
     Davidson diagonalization with overlap
     ethr =  6.09E-04,  avg # of iterations =  6.1

     total cpu time spent up to now is      116.4 secs

     total energy              =   -5263.38574377 Ry
     estimated scf accuracy    <       1.45345798 Ry

     total magnetization       =    52.10 Bohr mag/cell
     absolute magnetization    =    53.28 Bohr mag/cell

     iteration #  4     ecut=    71.00 Ry     beta= 0.30
     Davidson diagonalization with overlap
     ethr =  5.68E-04,  avg # of iterations =  1.1

     negative rho (up, down):  0.000E+00 8.113E-04

     total cpu time spent up to now is      142.2 secs

     total energy              =   -5263.51917615 Ry
     estimated scf accuracy    <       0.74758942 Ry

     total magnetization       =    52.03 Bohr mag/cell
     absolute magnetization    =    53.23 Bohr mag/cell

     iteration #  5     ecut=    71.00 Ry     beta= 0.30
     Davidson diagonalization with overlap
     ethr =  2.92E-04,  avg # of iterations =  2.2

     negative rho (up, down):  0.000E+00 1.949E-03

     total cpu time spent up to now is      173.6 secs

     total energy              =   -5263.61377871 Ry
     estimated scf accuracy    <       0.77477833 Ry

     total magnetization       =    51.77 Bohr mag/cell
     absolute magnetization    =    53.28 Bohr mag/cell

     iteration #  6     ecut=    71.00 Ry     beta= 0.30
     Davidson diagonalization with overlap
     ethr =  2.92E-04,  avg # of iterations =  1.3

     negative rho (up, down):  0.000E+00 6.498E-03

     total cpu time spent up to now is      201.0 secs

     total energy              =   -5263.62465117 Ry
     estimated scf accuracy    <       0.17580794 Ry

     total magnetization       =    51.79 Bohr mag/cell
     absolute magnetization    =    53.46 Bohr mag/cell

     iteration #  7     ecut=    71.00 Ry     beta= 0.30
     Davidson diagonalization with overlap
     ethr =  6.87E-05,  avg # of iterations =  5.2

     negative rho (up, down):  0.000E+00 5.041E-03

     total cpu time spent up to now is      238.8 secs

     total energy              =   -5263.67698860 Ry
     estimated scf accuracy    <       0.10809168 Ry

     total magnetization       =    52.14 Bohr mag/cell
     absolute magnetization    =    55.82 Bohr mag/cell

     iteration #  8     ecut=    71.00 Ry     beta= 0.30
     Davidson diagonalization with overlap
     ethr =  4.22E-05,  avg # of iterations =  1.9

     negative rho (up, down):  0.000E+00 4.571E-03

     total cpu time spent up to now is      267.2 secs

     total energy              =   -5263.68341119 Ry
     estimated scf accuracy    <       0.01994172 Ry

     total magnetization       =    52.14 Bohr mag/cell
     absolute magnetization    =    55.82 Bohr mag/cell

     iteration #  9     ecut=    71.00 Ry     beta= 0.30
     Davidson diagonalization with overlap
     c_bands:  2 eigenvalues not converged
     ethr =  7.79E-06,  avg # of iterations =  5.1

     negative rho (up, down):  0.000E+00 4.292E-03

     total cpu time spent up to now is      304.2 secs

     total energy              =   -5263.68328295 Ry
     estimated scf accuracy    <       0.02947206 Ry

     total magnetization       =    52.14 Bohr mag/cell
     absolute magnetization    =    55.86 Bohr mag/cell

     iteration # 10     ecut=    71.00 Ry     beta= 0.30
     Davidson diagonalization with overlap
     ethr =  7.79E-06,  avg # of iterations =  5.5

     negative rho (up, down):  0.000E+00 4.348E-03

     total cpu time spent up to now is      344.3 secs

     total energy              =   -5263.69542816 Ry
     estimated scf accuracy    <       0.00638516 Ry

     total magnetization       =    52.07 Bohr mag/cell
     absolute magnetization    =    55.70 Bohr mag/cell

     iteration # 11     ecut=    71.00 Ry     beta= 0.30
     Davidson diagonalization with overlap
     c_bands:  4 eigenvalues not converged
     ethr =  2.49E-06,  avg # of iterations =  6.4

     negative rho (up, down):  0.000E+00 4.347E-03

     total cpu time spent up to now is      388.1 secs

     total energy              =   -5263.69887057 Ry
     estimated scf accuracy    <       0.00946093 Ry

     total magnetization       =    52.03 Bohr mag/cell
     absolute magnetization    =    55.52 Bohr mag/cell

     iteration # 12     ecut=    71.00 Ry     beta= 0.30
     Davidson diagonalization with overlap
     c_bands:  2 eigenvalues not converged
     ethr =  2.49E-06,  avg # of iterations =  1.3

     negative rho (up, down):  0.000E+00 4.816E-03

     total cpu time spent up to now is      414.3 secs

     total energy              =   -5263.70086734 Ry
     estimated scf accuracy    <       0.00996121 Ry

     total magnetization       =    52.03 Bohr mag/cell
     absolute magnetization    =    55.52 Bohr mag/cell

     iteration # 13     ecut=    71.00 Ry     beta= 0.30
     Davidson diagonalization with overlap
     ethr =  2.49E-06,  avg # of iterations =  8.0

     negative rho (up, down):  0.000E+00 4.614E-03

     total cpu time spent up to now is      462.0 secs

     total energy              =   -5263.69969006 Ry
     estimated scf accuracy    <       0.00330865 Ry

     total magnetization       =    52.11 Bohr mag/cell
     absolute magnetization    =    55.78 Bohr mag/cell

     iteration # 14     ecut=    71.00 Ry     beta= 0.30
     Davidson diagonalization with overlap
     c_bands:  2 eigenvalues not converged
     ethr =  1.29E-06,  avg # of iterations =  6.0

     negative rho (up, down):  0.000E+00 4.685E-03

     total cpu time spent up to now is      512.6 secs

     total energy              =   -5263.70207180 Ry
     estimated scf accuracy    <       0.00397330 Ry

     total magnetization       =    52.07 Bohr mag/cell
     absolute magnetization    =    55.26 Bohr mag/cell

     iteration # 15     ecut=    71.00 Ry     beta= 0.30
     Davidson diagonalization with overlap
     ethr =  1.29E-06,  avg # of iterations =  5.6

     negative rho (up, down):  0.000E+00 4.691E-03

     total cpu time spent up to now is      558.7 secs

     total energy              =   -5263.70811136 Ry
     estimated scf accuracy    <       0.00119863 Ry

     total magnetization       =    52.10 Bohr mag/cell
     absolute magnetization    =    55.58 Bohr mag/cell

     iteration # 16     ecut=    71.00 Ry     beta= 0.30
     Davidson diagonalization with overlap
     ethr =  4.68E-07,  avg # of iterations =  7.8

     negative rho (up, down):  0.000E+00 4.679E-03

     total cpu time spent up to now is      609.6 secs

     total energy              =   -5263.71037385 Ry
     estimated scf accuracy    <       0.00039506 Ry

     total magnetization       =    52.10 Bohr mag/cell
     absolute magnetization    =    55.50 Bohr mag/cell

     iteration # 17     ecut=    71.00 Ry     beta= 0.30
     Davidson diagonalization with overlap
     c_bands:  2 eigenvalues not converged
     c_bands:  2 eigenvalues not converged
     ethr =  1.54E-07,  avg # of iterations =  6.4

     negative rho (up, down):  0.000E+00 4.670E-03

     total cpu time spent up to now is      649.9 secs

     total energy              =   -5263.71063857 Ry
     estimated scf accuracy    <       0.00014260 Ry

     total magnetization       =    52.10 Bohr mag/cell
     absolute magnetization    =    55.48 Bohr mag/cell

     iteration # 18     ecut=    71.00 Ry     beta= 0.30
     Davidson diagonalization with overlap
     c_bands:  2 eigenvalues not converged
     c_bands:  3 eigenvalues not converged
     ethr =  5.57E-08,  avg # of iterations =  6.9

     negative rho (up, down):  0.000E+00 4.675E-03

     total cpu time spent up to now is      693.4 secs

     total energy              =   -5263.71088370 Ry
     estimated scf accuracy    <       0.00003576 Ry

     total magnetization       =    52.10 Bohr mag/cell
     absolute magnetization    =    55.43 Bohr mag/cell

     iteration # 19     ecut=    71.00 Ry     beta= 0.30
     Davidson diagonalization with overlap
     c_bands:  1 eigenvalues not converged
     c_bands:  2 eigenvalues not converged
     c_bands:  1 eigenvalues not converged
     c_bands:  1 eigenvalues not converged
     c_bands:  1 eigenvalues not converged
     ethr =  1.40E-08,  avg # of iterations = 11.1

     negative rho (up, down):  0.000E+00 4.672E-03

     total cpu time spent up to now is      749.4 secs

     total energy              =   -5263.71117212 Ry
     estimated scf accuracy    <       0.00005745 Ry

     total magnetization       =    52.10 Bohr mag/cell
     absolute magnetization    =    55.40 Bohr mag/cell

     iteration # 20     ecut=    71.00 Ry     beta= 0.30
     Davidson diagonalization with overlap
     ethr =  1.40E-08,  avg # of iterations =  2.0

     negative rho (up, down):  0.000E+00 4.670E-03

     total cpu time spent up to now is      777.5 secs

     total energy              =   -5263.71117610 Ry
     estimated scf accuracy    <       0.00005475 Ry

     total magnetization       =    52.10 Bohr mag/cell
     absolute magnetization    =    55.41 Bohr mag/cell

     iteration # 21     ecut=    71.00 Ry     beta= 0.30
     Davidson diagonalization with overlap
     ethr =  1.40E-08,  avg # of iterations =  3.7

     negative rho (up, down):  0.000E+00 4.687E-03

     total cpu time spent up to now is      806.7 secs

     total energy              =   -5263.71114957 Ry
     estimated scf accuracy    <       0.00005788 Ry

     total magnetization       =    52.10 Bohr mag/cell
     absolute magnetization    =    55.40 Bohr mag/cell

     iteration # 22     ecut=    71.00 Ry     beta= 0.30
     Davidson diagonalization with overlap
     ethr =  1.40E-08,  avg # of iterations =  5.1

     negative rho (up, down):  0.000E+00 4.676E-03

     total cpu time spent up to now is      848.1 secs

     total energy              =   -5263.71115716 Ry
     estimated scf accuracy    <       0.00008008 Ry

     total magnetization       =    52.10 Bohr mag/cell
     absolute magnetization    =    55.44 Bohr mag/cell

     iteration # 23     ecut=    71.00 Ry     beta= 0.30
     Davidson diagonalization with overlap
     ethr =  1.40E-08,  avg # of iterations =  4.2

     negative rho (up, down):  0.000E+00 4.675E-03

     total cpu time spent up to now is      882.0 secs

     total energy              =   -5263.71117679 Ry
     estimated scf accuracy    <       0.00004781 Ry

     total magnetization       =    52.10 Bohr mag/cell
     absolute magnetization    =    55.41 Bohr mag/cell

     iteration # 24     ecut=    71.00 Ry     beta= 0.30
     Davidson diagonalization with overlap
     ethr =  1.40E-08,  avg # of iterations =  1.0

     negative rho (up, down):  0.000E+00 4.674E-03

     total cpu time spent up to now is      908.6 secs

     total energy              =   -5263.71117696 Ry
     estimated scf accuracy    <       0.00005025 Ry

     total magnetization       =    52.10 Bohr mag/cell
     absolute magnetization    =    55.41 Bohr mag/cell

     iteration # 25     ecut=    71.00 Ry     beta= 0.30
     Davidson diagonalization with overlap
     ethr =  1.40E-08,  avg # of iterations =  1.3

     negative rho (up, down):  0.000E+00 4.673E-03

     total cpu time spent up to now is      935.5 secs

     total energy              =   -5263.71118016 Ry
     estimated scf accuracy    <       0.00005537 Ry

     total magnetization       =    52.10 Bohr mag/cell
     absolute magnetization    =    55.41 Bohr mag/cell

     iteration # 26     ecut=    71.00 Ry     beta= 0.30
     Davidson diagonalization with overlap
     ethr =  1.40E-08,  avg # of iterations =  1.0

     negative rho (up, down):  0.000E+00 4.674E-03

     total cpu time spent up to now is      961.3 secs

     total energy              =   -5263.71118074 Ry
     estimated scf accuracy    <       0.00005648 Ry

     total magnetization       =    52.10 Bohr mag/cell
     absolute magnetization    =    55.41 Bohr mag/cell

     iteration # 27     ecut=    71.00 Ry     beta= 0.30
     Davidson diagonalization with overlap
     ethr =  1.40E-08,  avg # of iterations =  1.0

     negative rho (up, down):  0.000E+00 4.674E-03

     total cpu time spent up to now is      987.0 secs

     total energy              =   -5263.71118119 Ry
     estimated scf accuracy    <       0.00005710 Ry

     total magnetization       =    52.10 Bohr mag/cell
     absolute magnetization    =    55.41 Bohr mag/cell

     iteration # 28     ecut=    71.00 Ry     beta= 0.30
     Davidson diagonalization with overlap
     ethr =  1.40E-08,  avg # of iterations =  1.0

     negative rho (up, down):  0.000E+00 4.674E-03

     total cpu time spent up to now is     1012.8 secs

     total energy              =   -5263.71118281 Ry
     estimated scf accuracy    <       0.00005975 Ry

     total magnetization       =    52.10 Bohr mag/cell
     absolute magnetization    =    55.41 Bohr mag/cell

     iteration # 29     ecut=    71.00 Ry     beta= 0.30
     Davidson diagonalization with overlap
     ethr =  1.40E-08,  avg # of iterations =  1.0

     negative rho (up, down):  0.000E+00 4.690E-03

     total cpu time spent up to now is     1038.3 secs

     total energy              =   -5263.71116152 Ry
     estimated scf accuracy    <       0.00006434 Ry

     total magnetization       =    52.10 Bohr mag/cell
     absolute magnetization    =    55.41 Bohr mag/cell

     iteration # 30     ecut=    71.00 Ry     beta= 0.30
     Davidson diagonalization with overlap
     c_bands:  1 eigenvalues not converged
     ethr =  1.40E-08,  avg # of iterations =  4.9

     negative rho (up, down):  0.000E+00 4.676E-03

     total cpu time spent up to now is     1077.3 secs

     total energy              =   -5263.71114924 Ry
     estimated scf accuracy    <       0.00004425 Ry

     total magnetization       =    52.10 Bohr mag/cell
     absolute magnetization    =    55.43 Bohr mag/cell

     iteration # 31     ecut=    71.00 Ry     beta= 0.30
     Davidson diagonalization with overlap
     c_bands:  1 eigenvalues not converged
     c_bands:  1 eigenvalues not converged
     c_bands:  1 eigenvalues not converged
     c_bands:  1 eigenvalues not converged
     c_bands:  2 eigenvalues not converged
     ethr =  1.40E-08,  avg # of iterations =  8.7

     negative rho (up, down):  0.000E+00 4.676E-03

     total cpu time spent up to now is     1121.7 secs

     total energy              =   -5263.71119083 Ry
     estimated scf accuracy    <       0.00003852 Ry

     total magnetization       =    52.10 Bohr mag/cell
     absolute magnetization    =    55.42 Bohr mag/cell

     iteration # 32     ecut=    71.00 Ry     beta= 0.30
     Davidson diagonalization with overlap
     c_bands:  1 eigenvalues not converged
     c_bands:  1 eigenvalues not converged
     ethr =  1.40E-08,  avg # of iterations =  1.8

     negative rho (up, down):  0.000E+00 4.686E-03

     total cpu time spent up to now is     1148.3 secs

     total energy              =   -5263.71101240 Ry
     estimated scf accuracy    <       0.00004097 Ry

     total magnetization       =    52.10 Bohr mag/cell
     absolute magnetization    =    55.42 Bohr mag/cell

     iteration # 33     ecut=    71.00 Ry     beta= 0.30
     Davidson diagonalization with overlap
     c_bands:  1 eigenvalues not converged
     c_bands:  1 eigenvalues not converged
     c_bands:  1 eigenvalues not converged
     ethr =  1.40E-08,  avg # of iterations =  8.2

     negative rho (up, down):  0.000E+00 4.680E-03

     total cpu time spent up to now is     1201.1 secs

     total energy              =   -5263.71116791 Ry
     estimated scf accuracy    <       0.00003477 Ry

     total magnetization       =    52.10 Bohr mag/cell
     absolute magnetization    =    55.42 Bohr mag/cell

     iteration # 34     ecut=    71.00 Ry     beta= 0.30
     Davidson diagonalization with overlap
     ethr =  1.36E-08,  avg # of iterations =  1.3

     negative rho (up, down):  0.000E+00 4.679E-03

     total cpu time spent up to now is     1227.3 secs

     total energy              =   -5263.71112423 Ry
     estimated scf accuracy    <       0.00003100 Ry

     total magnetization       =    52.10 Bohr mag/cell
     absolute magnetization    =    55.42 Bohr mag/cell

     iteration # 35     ecut=    71.00 Ry     beta= 0.30
     Davidson diagonalization with overlap
     c_bands:  1 eigenvalues not converged
     c_bands:  1 eigenvalues not converged
     ethr =  1.21E-08,  avg # of iterations =  6.3

     negative rho (up, down):  0.000E+00 4.679E-03

     total cpu time spent up to now is     1274.3 secs

     total energy              =   -5263.71117081 Ry
     estimated scf accuracy    <       0.00002364 Ry

     total magnetization       =    52.10 Bohr mag/cell
     absolute magnetization    =    55.41 Bohr mag/cell

     iteration # 36     ecut=    71.00 Ry     beta= 0.30
     Davidson diagonalization with overlap
     ethr =  9.23E-09,  avg # of iterations =  1.7

     negative rho (up, down):  0.000E+00 4.671E-03

     total cpu time spent up to now is     1302.0 secs

     total energy              =   -5263.71114144 Ry
     estimated scf accuracy    <       0.00001730 Ry

     total magnetization       =    52.10 Bohr mag/cell
     absolute magnetization    =    55.41 Bohr mag/cell

     iteration # 37     ecut=    71.00 Ry     beta= 0.30
     Davidson diagonalization with overlap
     c_bands:  1 eigenvalues not converged
     ethr =  6.76E-09,  avg # of iterations =  8.0

     negative rho (up, down):  0.000E+00 4.672E-03

     total cpu time spent up to now is     1350.8 secs

     total energy              =   -5263.71117554 Ry
     estimated scf accuracy    <       0.00000255 Ry

     total magnetization       =    52.10 Bohr mag/cell
     absolute magnetization    =    55.40 Bohr mag/cell

     iteration # 38     ecut=    71.00 Ry     beta= 0.30
     Davidson diagonalization with overlap
     c_bands:  1 eigenvalues not converged
     c_bands:  1 eigenvalues not converged
     c_bands:  1 eigenvalues not converged
     c_bands:  1 eigenvalues not converged
     c_bands:  2 eigenvalues not converged
     c_bands:  1 eigenvalues not converged
     ethr =  9.95E-10,  avg # of iterations =  7.6

     negative rho (up, down):  0.000E+00 4.672E-03

     total cpu time spent up to now is     1394.4 secs

     total energy              =   -5263.71117781 Ry
     estimated scf accuracy    <       0.00000390 Ry

     total magnetization       =    52.10 Bohr mag/cell
     absolute magnetization    =    55.40 Bohr mag/cell

     iteration # 39     ecut=    71.00 Ry     beta= 0.30
     Davidson diagonalization with overlap
     c_bands:  1 eigenvalues not converged
     c_bands:  1 eigenvalues not converged
     c_bands:  1 eigenvalues not converged
     ethr =  9.95E-10,  avg # of iterations =  3.3

     negative rho (up, down):  0.000E+00 4.672E-03

     total cpu time spent up to now is     1425.7 secs

     total energy              =   -5263.71117834 Ry
     estimated scf accuracy    <       0.00000710 Ry

     total magnetization       =    52.10 Bohr mag/cell
     absolute magnetization    =    55.40 Bohr mag/cell

     iteration # 40     ecut=    71.00 Ry     beta= 0.30
     Davidson diagonalization with overlap
     c_bands:  1 eigenvalues not converged
     c_bands:  2 eigenvalues not converged
     ethr =  9.95E-10,  avg # of iterations =  2.7

     negative rho (up, down):  0.000E+00 4.672E-03

     total cpu time spent up to now is     1456.2 secs

     total energy              =   -5263.71117839 Ry
     estimated scf accuracy    <       0.00001056 Ry

     total magnetization       =    52.10 Bohr mag/cell
     absolute magnetization    =    55.40 Bohr mag/cell

     iteration # 41     ecut=    71.00 Ry     beta= 0.30
     Davidson diagonalization with overlap
     c_bands:  1 eigenvalues not converged
     c_bands:  1 eigenvalues not converged
     ethr =  9.95E-10,  avg # of iterations =  3.5

     negative rho (up, down):  0.000E+00 4.672E-03

     total cpu time spent up to now is     1487.0 secs

     total energy              =   -5263.71117968 Ry
     estimated scf accuracy    <       0.00000870 Ry

     total magnetization       =    52.10 Bohr mag/cell
     absolute magnetization    =    55.40 Bohr mag/cell

     iteration # 42     ecut=    71.00 Ry     beta= 0.30
     Davidson diagonalization with overlap
     c_bands:  1 eigenvalues not converged
     c_bands:  1 eigenvalues not converged
     ethr =  9.95E-10,  avg # of iterations =  3.1

     negative rho (up, down):  0.000E+00 4.672E-03

     total cpu time spent up to now is     1516.6 secs

     total energy              =   -5263.71117479 Ry
     estimated scf accuracy    <       0.00000459 Ry

     total magnetization       =    52.10 Bohr mag/cell
     absolute magnetization    =    55.40 Bohr mag/cell

     iteration # 43     ecut=    71.00 Ry     beta= 0.30
     Davidson diagonalization with overlap
     c_bands:  1 eigenvalues not converged
     c_bands:  1 eigenvalues not converged
     c_bands:  1 eigenvalues not converged
     ethr =  9.95E-10,  avg # of iterations =  7.8

     negative rho (up, down):  0.000E+00 4.672E-03

     total cpu time spent up to now is     1566.7 secs

     total energy              =   -5263.71118022 Ry
     estimated scf accuracy    <       0.00000318 Ry

     total magnetization       =    52.10 Bohr mag/cell
     absolute magnetization    =    55.40 Bohr mag/cell

     iteration # 44     ecut=    71.00 Ry     beta= 0.30
     Davidson diagonalization with overlap
     c_bands:  1 eigenvalues not converged
     c_bands:  1 eigenvalues not converged
     ethr =  9.95E-10,  avg # of iterations =  4.4

     negative rho (up, down):  0.000E+00 4.671E-03

     total cpu time spent up to now is     1601.0 secs

     total energy              =   -5263.71117454 Ry
     estimated scf accuracy    <       0.00000196 Ry

     total magnetization       =    52.10 Bohr mag/cell
     absolute magnetization    =    55.40 Bohr mag/cell

     iteration # 45     ecut=    71.00 Ry     beta= 0.30
     Davidson diagonalization with overlap
     c_bands:  1 eigenvalues not converged
     c_bands:  1 eigenvalues not converged
     c_bands:  1 eigenvalues not converged
     c_bands:  2 eigenvalues not converged
     ethr =  7.66E-10,  avg # of iterations =  8.1

     negative rho (up, down):  0.000E+00 4.671E-03

     total cpu time spent up to now is     1650.7 secs

     total energy              =   -5263.71117975 Ry
     estimated scf accuracy    <       0.00000299 Ry

     total magnetization       =    52.10 Bohr mag/cell
     absolute magnetization    =    55.40 Bohr mag/cell

     iteration # 46     ecut=    71.00 Ry     beta= 0.30
     Davidson diagonalization with overlap
     c_bands:  1 eigenvalues not converged
     c_bands:  1 eigenvalues not converged
     c_bands:  1 eigenvalues not converged
     c_bands:  1 eigenvalues not converged
     c_bands:  1 eigenvalues not converged
     c_bands:  1 eigenvalues not converged
     ethr =  7.66E-10,  avg # of iterations =  8.9

     negative rho (up, down):  0.000E+00 4.671E-03

     total cpu time spent up to now is     1699.9 secs

     total energy              =   -5263.71118997 Ry
     estimated scf accuracy    <       0.00000139 Ry

     total magnetization       =    52.10 Bohr mag/cell
     absolute magnetization    =    55.40 Bohr mag/cell

     iteration # 47     ecut=    71.00 Ry     beta= 0.30
     Davidson diagonalization with overlap
     c_bands:  1 eigenvalues not converged
     c_bands:  1 eigenvalues not converged
     c_bands:  1 eigenvalues not converged
     c_bands:  1 eigenvalues not converged
     c_bands:  1 eigenvalues not converged
     c_bands:  1 eigenvalues not converged
     c_bands:  1 eigenvalues not converged
     c_bands:  1 eigenvalues not converged
     ethr =  5.41E-10,  avg # of iterations =  9.3

     negative rho (up, down):  0.000E+00 4.671E-03

     total cpu time spent up to now is     1753.9 secs

     total energy              =   -5263.71119572 Ry
     estimated scf accuracy    <       0.00000095 Ry

     total magnetization       =    52.10 Bohr mag/cell
     absolute magnetization    =    55.40 Bohr mag/cell

     iteration # 48     ecut=    71.00 Ry     beta= 0.30
     Davidson diagonalization with overlap
     c_bands:  1 eigenvalues not converged
     c_bands:  1 eigenvalues not converged
     c_bands:  1 eigenvalues not converged
     c_bands:  1 eigenvalues not converged
     c_bands:  1 eigenvalues not converged
     ethr =  3.69E-10,  avg # of iterations =  6.9

     negative rho (up, down):  0.000E+00 4.672E-03

     total cpu time spent up to now is     1796.5 secs

     total energy              =   -5263.71119553 Ry
     estimated scf accuracy    <       0.00000068 Ry

     total magnetization       =    52.10 Bohr mag/cell
     absolute magnetization    =    55.40 Bohr mag/cell

     iteration # 49     ecut=    71.00 Ry     beta= 0.30
     Davidson diagonalization with overlap
     c_bands:  1 eigenvalues not converged
     c_bands:  1 eigenvalues not converged
     c_bands:  1 eigenvalues not converged
     c_bands:  1 eigenvalues not converged
     c_bands:  2 eigenvalues not converged
     c_bands:  1 eigenvalues not converged
     c_bands:  1 eigenvalues not converged
     c_bands:  4 eigenvalues not converged
     ethr =  2.67E-10,  avg # of iterations =  9.3

     negative rho (up, down):  0.000E+00 4.672E-03

     total cpu time spent up to now is     1851.1 secs

     total energy              =   -5263.71119695 Ry
     estimated scf accuracy    <       0.00000099 Ry

     total magnetization       =    52.10 Bohr mag/cell
     absolute magnetization    =    55.40 Bohr mag/cell

     iteration # 50     ecut=    71.00 Ry     beta= 0.30
     Davidson diagonalization with overlap
     c_bands:  1 eigenvalues not converged
     c_bands:  1 eigenvalues not converged
     c_bands:  1 eigenvalues not converged
     c_bands:  2 eigenvalues not converged
     ethr =  2.67E-10,  avg # of iterations =  2.8

     negative rho (up, down):  0.000E+00 4.672E-03

     total cpu time spent up to now is     1878.8 secs

     total energy              =   -5263.71119717 Ry
     estimated scf accuracy    <       0.00000075 Ry

     total magnetization       =    52.10 Bohr mag/cell
     absolute magnetization    =    55.40 Bohr mag/cell

     iteration # 51     ecut=    71.00 Ry     beta= 0.30
     Davidson diagonalization with overlap
     c_bands:  1 eigenvalues not converged
     c_bands:  1 eigenvalues not converged
     c_bands:  1 eigenvalues not converged
     c_bands:  1 eigenvalues not converged
     c_bands:  1 eigenvalues not converged
     c_bands:  1 eigenvalues not converged
     c_bands:  2 eigenvalues not converged
     ethr =  2.67E-10,  avg # of iterations =  6.3

     negative rho (up, down):  0.000E+00 4.673E-03

     total cpu time spent up to now is     1912.9 secs

     total energy              =   -5263.71119676 Ry
     estimated scf accuracy    <       0.00000033 Ry

     total magnetization       =    52.10 Bohr mag/cell
     absolute magnetization    =    55.40 Bohr mag/cell

     iteration # 52     ecut=    71.00 Ry     beta= 0.30
     Davidson diagonalization with overlap
     c_bands:  1 eigenvalues not converged
     c_bands:  1 eigenvalues not converged
     c_bands:  1 eigenvalues not converged
     c_bands:  2 eigenvalues not converged
     ethr =  1.28E-10,  avg # of iterations =  7.5

     negative rho (up, down):  0.000E+00 4.672E-03

     total cpu time spent up to now is     1956.8 secs

     total energy              =   -5263.71119710 Ry
     estimated scf accuracy    <       0.00000017 Ry

     total magnetization       =    52.10 Bohr mag/cell
     absolute magnetization    =    55.40 Bohr mag/cell

     iteration # 53     ecut=    71.00 Ry     beta= 0.30
     Davidson diagonalization with overlap
     c_bands:  1 eigenvalues not converged
     c_bands:  1 eigenvalues not converged
     c_bands:  1 eigenvalues not converged
     c_bands:  1 eigenvalues not converged
     c_bands:  2 eigenvalues not converged
     ethr =  6.57E-11,  avg # of iterations =  8.9

     negative rho (up, down):  0.000E+00 4.673E-03

     total cpu time spent up to now is     2009.0 secs

     total energy              =   -5263.71119739 Ry
     estimated scf accuracy    <       0.00000011 Ry

     total magnetization       =    52.10 Bohr mag/cell
     absolute magnetization    =    55.40 Bohr mag/cell

     iteration # 54     ecut=    71.00 Ry     beta= 0.30
     Davidson diagonalization with overlap
     c_bands:  1 eigenvalues not converged
     c_bands:  1 eigenvalues not converged
     c_bands:  1 eigenvalues not converged
     c_bands:  1 eigenvalues not converged
     c_bands:  1 eigenvalues not converged
     c_bands:  2 eigenvalues not converged
     c_bands:  1 eigenvalues not converged
     ethr =  4.26E-11,  avg # of iterations =  6.3

     negative rho (up, down):  0.000E+00 4.673E-03
 
     Magnetic moment per site:
     atom:    1    charge:   15.3098    magn:    3.3127    constr:    0.0000
     atom:    2    charge:   15.3140    magn:    3.3437    constr:    0.0000
     atom:    3    charge:   15.3155    magn:    3.3547    constr:    0.0000
     atom:    4    charge:   15.3140    magn:    3.3437    constr:    0.0000
     atom:    5    charge:   15.3155    magn:    3.3547    constr:    0.0000
     atom:    6    charge:   15.3140    magn:    3.3437    constr:    0.0000
     atom:    7    charge:   15.3154    magn:    3.3543    constr:    0.0000
     atom:    8    charge:   15.3140    magn:    3.3437    constr:    0.0000
     atom:    9    charge:   15.3155    magn:    3.3547    constr:    0.0000
     atom:   10    charge:   15.3140    magn:    3.3437    constr:    0.0000
     atom:   11    charge:   15.3154    magn:    3.3543    constr:    0.0000
     atom:   12    charge:   15.3140    magn:    3.3437    constr:    0.0000
     atom:   13    charge:   15.3154    magn:    3.3543    constr:    0.0000
     atom:   14    charge:   15.3140    magn:    3.3437    constr:    0.0000
     atom:   15    charge:   15.3096    magn:    3.3105    constr:    0.0000
     atom:   16    charge:   15.3140    magn:    3.3437    constr:    0.0000

     total cpu time spent up to now is     2042.7 secs

     End of self-consistent calculation

 ------ SPIN UP ------------


          k = 0.0332 0.0332 0.0332 ( 51051 PWs)   bands (ev):

   -86.8601 -86.8601 -86.8601 -86.8597 -86.8597 -86.8597 -86.8527 -86.8527
   -86.8527 -86.8527 -86.8527 -86.8527 -86.8527 -86.8527 -86.8314 -86.8294
   -52.9373 -52.9372 -52.9372 -52.9368 -52.9368 -52.9368 -52.9353 -52.9353
   -52.9353 -52.9353 -52.9352 -52.9352 -52.9344 -52.9344 -52.9344 -52.9344
   -52.9343 -52.9343 -52.9305 -52.9304 -52.9304 -52.9304 -52.9303 -52.9303
   -52.9303 -52.9303 -52.9282 -52.9282 -52.9282 -52.9281 -52.9280 -52.9280
   -52.9279 -52.9279 -52.9279 -52.9279 -52.9279 -52.9279 -52.9279 -52.9278
   -52.9278 -52.9278 -52.9090 -52.9089 -52.9089 -52.9071 -52.9070 -52.9070
    -1.5945  -1.0182  -1.0182  -0.9102  -0.9054  -0.9054  -0.9053  -0.9030
    -0.9030  -0.8953  -0.8926  -0.8926  -0.8730  -0.8725  -0.8725  -0.8723
    -0.8667  -0.8667  -0.8602  -0.8558  -0.8558  -0.7613  -0.7613  -0.7591
    -0.7544  -0.7544  -0.7538  -0.7526  -0.7526  -0.7520  -0.7520  -0.7492
    -0.7492  -0.5571  -0.5563  -0.5563  -0.5535  -0.5535  -0.5532  -0.5171
    -0.5118  -0.5118  -0.5105  -0.5078  -0.5078  -0.5030  -0.4885  -0.4885
    -0.4728  -0.4728  -0.4692  -0.4641  -0.4641  -0.4554  -0.4272  -0.4272
    -0.4210  -0.4169  -0.4131  -0.4131  -0.4059  -0.4059  -0.4056  -0.3955
    -0.3917  -0.3917  -0.3652  -0.3562  -0.3562  -0.3393  -0.3393  -0.3386
    -0.2493  -0.2449  -0.2449  -0.2250  -0.2250  -0.2235  -0.2213  -0.2198
    -0.2198   0.1195   0.1195   0.1207   0.5155   0.5155   0.5170   1.6984
     1.6984   1.7005

          k = 0.0332 0.0332 0.0997 ( 51034 PWs)   bands (ev):

   -86.8601 -86.8601 -86.8601 -86.8597 -86.8597 -86.8597 -86.8527 -86.8527
   -86.8527 -86.8527 -86.8527 -86.8527 -86.8527 -86.8527 -86.8314 -86.8294
   -52.9372 -52.9372 -52.9372 -52.9368 -52.9368 -52.9368 -52.9353 -52.9353
   -52.9353 -52.9352 -52.9352 -52.9352 -52.9344 -52.9344 -52.9344 -52.9343
   -52.9343 -52.9343 -52.9305 -52.9304 -52.9304 -52.9304 -52.9303 -52.9303
   -52.9303 -52.9303 -52.9282 -52.9281 -52.9281 -52.9280 -52.9280 -52.9280
   -52.9280 -52.9280 -52.9280 -52.9279 -52.9279 -52.9279 -52.9279 -52.9278
   -52.9278 -52.9278 -52.9090 -52.9089 -52.9089 -52.9071 -52.9070 -52.9070
    -1.5495  -1.0138  -1.0111  -0.9159  -0.9074  -0.9042  -0.9029  -0.9004
    -0.8960  -0.8947  -0.8925  -0.8917  -0.8876  -0.8713  -0.8707  -0.8652
    -0.8642  -0.8579  -0.8529  -0.8505  -0.8469  -0.7660  -0.7638  -0.7636
    -0.7614  -0.7604  -0.7589  -0.7576  -0.7542  -0.7528  -0.7520  -0.7518
    -0.7504  -0.5552  -0.5550  -0.5527  -0.5505  -0.5479  -0.5473  -0.5194
    -0.5162  -0.5114  -0.5104  -0.5083  -0.5067  -0.5040  -0.5029  -0.4834
    -0.4738  -0.4718  -0.4693  -0.4638  -0.4494  -0.4470  -0.4452  -0.4375
    -0.4311  -0.4305  -0.4279  -0.4276  -0.4242  -0.4194  -0.4036  -0.4027
    -0.3823  -0.3804  -0.3727  -0.3417  -0.3406  -0.3218  -0.3216  -0.3193
    -0.2585  -0.2515  -0.2455  -0.2368  -0.2349  -0.2306  -0.2286  -0.2246
    -0.2243  -0.2228   0.1746   0.1754   0.5675   0.5685   0.9546   1.4059
     1.4069   1.7306

          k = 0.0332 0.0332 0.1662 ( 51038 PWs)   bands (ev):

   -86.8601 -86.8601 -86.8601 -86.8597 -86.8597 -86.8597 -86.8527 -86.8527
   -86.8527 -86.8527 -86.8527 -86.8527 -86.8527 -86.8527 -86.8314 -86.8294
   -52.9372 -52.9372 -52.9372 -52.9368 -52.9368 -52.9368 -52.9353 -52.9353
   -52.9352 -52.9352 -52.9352 -52.9352 -52.9344 -52.9344 -52.9344 -52.9343
   -52.9343 -52.9343 -52.9304 -52.9304 -52.9304 -52.9304 -52.9303 -52.9303
   -52.9303 -52.9303 -52.9281 -52.9281 -52.9281 -52.9280 -52.9280 -52.9280
   -52.9280 -52.9280 -52.9280 -52.9280 -52.9280 -52.9279 -52.9279 -52.9279
   -52.9279 -52.9278 -52.9090 -52.9089 -52.9089 -52.9071 -52.9071 -52.9070
    -1.4601  -1.0051  -0.9981  -0.9379  -0.9107  -0.9043  -0.9016  -0.8982
    -0.8958  -0.8914  -0.8902  -0.8852  -0.8782  -0.8771  -0.8740  -0.8723
    -0.8532  -0.8521  -0.8383  -0.8363  -0.8276  -0.7783  -0.7781  -0.7768
    -0.7755  -0.7705  -0.7657  -0.7641  -0.7544  -0.7532  -0.7532  -0.7520
    -0.7515  -0.5542  -0.5528  -0.5444  -0.5420  -0.5367  -0.5364  -0.5329
    -0.5279  -0.5238  -0.5127  -0.5078  -0.5069  -0.5013  -0.4957  -0.4944
    -0.4860  -0.4752  -0.4733  -0.4729  -0.4697  -0.4692  -0.4555  -0.4538
    -0.4536  -0.4465  -0.4462  -0.4408  -0.4379  -0.4221  -0.4210  -0.4019
    -0.3995  -0.3949  -0.3597  -0.3499  -0.3183  -0.3178  -0.3021  -0.2994
    -0.2979  -0.2727  -0.2643  -0.2609  -0.2581  -0.2504  -0.2414  -0.2395
    -0.2319  -0.2301   0.2790   0.2796   0.6686   0.6695   1.1112   1.1119
     1.4305   1.4799

          k = 0.0332 0.0332 0.2327 ( 51009 PWs)   bands (ev):

   -86.8601 -86.8601 -86.8601 -86.8597 -86.8597 -86.8597 -86.8527 -86.8527
   -86.8527 -86.8527 -86.8527 -86.8527 -86.8527 -86.8527 -86.8314 -86.8294
   -52.9372 -52.9372 -52.9372 -52.9368 -52.9367 -52.9367 -52.9352 -52.9352
   -52.9352 -52.9352 -52.9352 -52.9352 -52.9344 -52.9344 -52.9343 -52.9343
   -52.9343 -52.9343 -52.9304 -52.9304 -52.9304 -52.9304 -52.9304 -52.9304
   -52.9303 -52.9303 -52.9281 -52.9280 -52.9280 -52.9280 -52.9280 -52.9280
   -52.9280 -52.9280 -52.9280 -52.9279 -52.9279 -52.9279 -52.9279 -52.9279
   -52.9278 -52.9278 -52.9089 -52.9089 -52.9089 -52.9071 -52.9070 -52.9070
    -1.3287  -0.9928  -0.9893  -0.9797  -0.9584  -0.9344  -0.9007  -0.8981
    -0.8934  -0.8922  -0.8915  -0.8898  -0.8792  -0.8770  -0.8546  -0.8533
    -0.8358  -0.8341  -0.8189  -0.8174  -0.8093  -0.8007  -0.7986  -0.7954
    -0.7926  -0.7813  -0.7789  -0.7772  -0.7542  -0.7536  -0.7521  -0.7518
    -0.7478  -0.6812  -0.5526  -0.5492  -0.5427  -0.5355  -0.5318  -0.5290
    -0.5211  -0.5209  -0.5050  -0.5016  -0.4994  -0.4958  -0.4945  -0.4942
    -0.4887  -0.4832  -0.4829  -0.4817  -0.4784  -0.4777  -0.4698  -0.4687
    -0.4665  -0.4658  -0.4568  -0.4534  -0.4444  -0.4431  -0.4422  -0.4147
    -0.3667  -0.3638  -0.3360  -0.3261  -0.2954  -0.2942  -0.2935  -0.2905
    -0.2903  -0.2852  -0.2815  -0.2778  -0.2763  -0.2591  -0.2561  -0.2543
    -0.2434  -0.2416   0.4271   0.4276   0.8146   0.8155   0.8452   0.8458
     1.2266   1.2276

          k = 0.0332 0.0332-0.2992 ( 50990 PWs)   bands (ev):

   -86.8601 -86.8601 -86.8601 -86.8597 -86.8597 -86.8596 -86.8527 -86.8527
   -86.8527 -86.8527 -86.8527 -86.8527 -86.8527 -86.8527 -86.8314 -86.8294
   -52.9372 -52.9372 -52.9372 -52.9368 -52.9367 -52.9367 -52.9353 -52.9352
   -52.9352 -52.9352 -52.9352 -52.9352 -52.9344 -52.9343 -52.9343 -52.9343
   -52.9343 -52.9343 -52.9304 -52.9304 -52.9303 -52.9303 -52.9303 -52.9303
   -52.9302 -52.9302 -52.9281 -52.9281 -52.9280 -52.9280 -52.9280 -52.9280
   -52.9280 -52.9280 -52.9279 -52.9279 -52.9279 -52.9279 -52.9279 -52.9279
   -52.9278 -52.9278 -52.9090 -52.9089 -52.9089 -52.9071 -52.9070 -52.9070
    -1.1625  -1.1625  -0.9770  -0.9769  -0.9581  -0.9579  -0.8968  -0.8967
    -0.8945  -0.8944  -0.8856  -0.8855  -0.8832  -0.8831  -0.8286  -0.8284
    -0.8267  -0.8267  -0.8155  -0.8153  -0.8122  -0.8119  -0.7985  -0.7985
    -0.7952  -0.7949  -0.7933  -0.7931  -0.7540  -0.7538  -0.7521  -0.7518
    -0.7325  -0.7322  -0.5492  -0.5488  -0.5439  -0.5435  -0.5156  -0.5154
    -0.5127  -0.5123  -0.5025  -0.5021  -0.5014  -0.5011  -0.4960  -0.4957
    -0.4921  -0.4918  -0.4856  -0.4854  -0.4853  -0.4852  -0.4675  -0.4674
    -0.4653  -0.4653  -0.4625  -0.4617  -0.4595  -0.4587  -0.4309  -0.4308
    -0.3298  -0.3294  -0.3266  -0.3262  -0.3127  -0.3123  -0.3030  -0.3025
    -0.2744  -0.2741  -0.2730  -0.2726  -0.2706  -0.2706  -0.2590  -0.2587
    -0.2573  -0.2572   0.6162   0.6163   0.6168   0.6168   1.0020   1.0020
     1.0029   1.0029

          k = 0.0332 0.0997 0.0997 ( 51027 PWs)   bands (ev):

   -86.8601 -86.8601 -86.8601 -86.8597 -86.8597 -86.8597 -86.8527 -86.8527
   -86.8527 -86.8527 -86.8527 -86.8527 -86.8527 -86.8527 -86.8314 -86.8294
   -52.9372 -52.9372 -52.9372 -52.9368 -52.9368 -52.9367 -52.9353 -52.9353
   -52.9353 -52.9352 -52.9352 -52.9352 -52.9344 -52.9344 -52.9344 -52.9343
   -52.9343 -52.9343 -52.9304 -52.9304 -52.9304 -52.9304 -52.9303 -52.9303
   -52.9303 -52.9303 -52.9281 -52.9281 -52.9281 -52.9280 -52.9280 -52.9280
   -52.9280 -52.9280 -52.9280 -52.9279 -52.9279 -52.9279 -52.9279 -52.9279
   -52.9278 -52.9278 -52.9090 -52.9089 -52.9089 -52.9071 -52.9071 -52.9070
    -1.5047  -1.0083  -1.0054  -0.9146  -0.9117  -0.9071  -0.8991  -0.8953
    -0.8948  -0.8928  -0.8910  -0.8888  -0.8852  -0.8811  -0.8658  -0.8627
    -0.8572  -0.8551  -0.8486  -0.8430  -0.8406  -0.7763  -0.7664  -0.7656
    -0.7652  -0.7636  -0.7608  -0.7598  -0.7579  -0.7571  -0.7559  -0.7530
    -0.7510  -0.5530  -0.5526  -0.5521  -0.5500  -0.5480  -0.5389  -0.5340
    -0.5199  -0.5165  -0.5102  -0.5092  -0.4990  -0.4983  -0.4933  -0.4798
    -0.4776  -0.4713  -0.4709  -0.4704  -0.4663  -0.4557  -0.4549  -0.4512
    -0.4460  -0.4436  -0.4236  -0.4229  -0.4167  -0.4088  -0.4050  -0.3944
    -0.3818  -0.3783  -0.3682  -0.3588  -0.3400  -0.3173  -0.3037  -0.3015
    -0.2716  -0.2568  -0.2449  -0.2432  -0.2432  -0.2392  -0.2376  -0.2352
    -0.2226  -0.1622  -0.1610   0.2290   0.6192   1.0037   1.0049   1.0732
     1.4441   1.4451

          k = 0.0332 0.0997 0.1662 ( 51014 PWs)   bands (ev):

   -86.8601 -86.8601 -86.8601 -86.8597 -86.8597 -86.8597 -86.8527 -86.8527
   -86.8527 -86.8527 -86.8527 -86.8527 -86.8527 -86.8527 -86.8314 -86.8294
   -52.9372 -52.9372 -52.9372 -52.9368 -52.9367 -52.9367 -52.9353 -52.9352
   -52.9352 -52.9352 -52.9352 -52.9352 -52.9344 -52.9344 -52.9343 -52.9343
   -52.9343 -52.9343 -52.9304 -52.9304 -52.9304 -52.9304 -52.9303 -52.9303
   -52.9303 -52.9303 -52.9281 -52.9281 -52.9280 -52.9280 -52.9280 -52.9280
   -52.9280 -52.9280 -52.9279 -52.9279 -52.9279 -52.9279 -52.9279 -52.9279
   -52.9279 -52.9279 -52.9089 -52.9089 -52.9089 -52.9071 -52.9070 -52.9070
    -1.4160  -0.9996  -0.9927  -0.9343  -0.9103  -0.9076  -0.9054  -0.8942
    -0.8910  -0.8874  -0.8849  -0.8779  -0.8746  -0.8743  -0.8720  -0.8652
    -0.8606  -0.8512  -0.8373  -0.8261  -0.8242  -0.7927  -0.7804  -0.7772
    -0.7768  -0.7710  -0.7658  -0.7616  -0.7601  -0.7592  -0.7569  -0.7552
    -0.7531  -0.5544  -0.5518  -0.5473  -0.5457  -0.5446  -0.5419  -0.5419
    -0.5292  -0.5252  -0.5230  -0.5042  -0.5032  -0.4939  -0.4915  -0.4902
    -0.4865  -0.4801  -0.4796  -0.4774  -0.4754  -0.4689  -0.4677  -0.4621
    -0.4555  -0.4431  -0.4339  -0.4265  -0.4081  -0.4042  -0.4028  -0.3982
    -0.3953  -0.3814  -0.3622  -0.3565  -0.3386  -0.3275  -0.3046  -0.2892
    -0.2857  -0.2812  -0.2696  -0.2681  -0.2606  -0.2548  -0.2529  -0.2446
    -0.2432  -0.2259  -0.0550   0.3316   0.7187   0.7680   1.1015   1.1538
     1.4772   1.5181

          k = 0.0332 0.0997 0.2327 ( 51051 PWs)   bands (ev):

   -86.8601 -86.8601 -86.8601 -86.8597 -86.8597 -86.8597 -86.8527 -86.8527
   -86.8527 -86.8527 -86.8527 -86.8527 -86.8527 -86.8527 -86.8314 -86.8294
   -52.9373 -52.9372 -52.9372 -52.9368 -52.9368 -52.9367 -52.9353 -52.9353
   -52.9352 -52.9352 -52.9352 -52.9352 -52.9344 -52.9344 -52.9344 -52.9344
   -52.9343 -52.9343 -52.9304 -52.9304 -52.9304 -52.9304 -52.9304 -52.9304
   -52.9303 -52.9303 -52.9281 -52.9281 -52.9281 -52.9280 -52.9280 -52.9280
   -52.9280 -52.9280 -52.9280 -52.9280 -52.9279 -52.9279 -52.9279 -52.9279
   -52.9279 -52.9279 -52.9090 -52.9090 -52.9089 -52.9071 -52.9071 -52.9070
    -1.2860  -0.9875  -0.9745  -0.9606  -0.9543  -0.9294  -0.9082  -0.9076
    -0.8907  -0.8851  -0.8841  -0.8812  -0.8706  -0.8670  -0.8548  -0.8546
    -0.8508  -0.8346  -0.8188  -0.8125  -0.8082  -0.8055  -0.8012  -0.7970
    -0.7938  -0.7808  -0.7786  -0.7671  -0.7617  -0.7609  -0.7567  -0.7556
    -0.7498  -0.6791  -0.5567  -0.5529  -0.5499  -0.5393  -0.5390  -0.5349
    -0.5315  -0.5212  -0.5131  -0.5107  -0.5072  -0.4979  -0.4970  -0.4915
    -0.4905  -0.4820  -0.4815  -0.4791  -0.4728  -0.4687  -0.4657  -0.4629
    -0.4598  -0.4593  -0.4479  -0.4421  -0.4292  -0.4255  -0.4191  -0.3942
    -0.3715  -0.3632  -0.3580  -0.3325  -0.3146  -0.3104  -0.3082  -0.3004
    -0.2920  -0.2873  -0.2870  -0.2715  -0.2706  -0.2690  -0.2620  -0.2551
    -0.2492  -0.2337   0.0901   0.4776   0.5008   0.8626   0.8908   1.2424
     1.2692   1.6284

          k = 0.0332 0.0997-0.2992 ( 51046 PWs)   bands (ev):

   -86.8601 -86.8601 -86.8601 -86.8597 -86.8597 -86.8597 -86.8527 -86.8527
   -86.8527 -86.8527 -86.8527 -86.8527 -86.8527 -86.8527 -86.8314 -86.8294
   -52.9373 -52.9372 -52.9372 -52.9368 -52.9368 -52.9367 -52.9353 -52.9353
   -52.9353 -52.9352 -52.9352 -52.9352 -52.9344 -52.9344 -52.9344 -52.9343
   -52.9343 -52.9343 -52.9304 -52.9304 -52.9304 -52.9304 -52.9303 -52.9303
   -52.9303 -52.9303 -52.9281 -52.9281 -52.9280 -52.9280 -52.9280 -52.9280
   -52.9280 -52.9280 -52.9280 -52.9280 -52.9279 -52.9279 -52.9279 -52.9279
   -52.9279 -52.9279 -52.9090 -52.9090 -52.9089 -52.9071 -52.9071 -52.9070
    -1.1232  -1.1232  -0.9722  -0.9721  -0.9530  -0.9528  -0.9077  -0.9076
    -0.8875  -0.8874  -0.8768  -0.8767  -0.8744  -0.8743  -0.8350  -0.8349
    -0.8283  -0.8281  -0.8246  -0.8244  -0.8135  -0.8133  -0.7978  -0.7976
    -0.7928  -0.7926  -0.7825  -0.7823  -0.7616  -0.7614  -0.7563  -0.7561
    -0.7339  -0.7337  -0.5566  -0.5563  -0.5461  -0.5458  -0.5280  -0.5278
    -0.5244  -0.5242  -0.5170  -0.5168  -0.5104  -0.5101  -0.4898  -0.4896
    -0.4849  -0.4848  -0.4792  -0.4791  -0.4725  -0.4720  -0.4682  -0.4681
    -0.4565  -0.4562  -0.4479  -0.4476  -0.4412  -0.4408  -0.4130  -0.4128
    -0.3368  -0.3364  -0.3335  -0.3332  -0.3273  -0.3269  -0.3090  -0.3086
    -0.2919  -0.2917  -0.2878  -0.2876  -0.2700  -0.2697  -0.2583  -0.2582
    -0.2459  -0.2457   0.2748   0.2749   0.6644   0.6644   1.0475   1.0475
     1.4218   1.4218

          k = 0.0332 0.1662 0.1662 ( 51014 PWs)   bands (ev):

   -86.8601 -86.8601 -86.8601 -86.8597 -86.8597 -86.8597 -86.8527 -86.8527
   -86.8527 -86.8527 -86.8527 -86.8527 -86.8527 -86.8527 -86.8314 -86.8294
   -52.9372 -52.9372 -52.9372 -52.9368 -52.9367 -52.9367 -52.9352 -52.9352
   -52.9352 -52.9352 -52.9352 -52.9352 -52.9344 -52.9344 -52.9343 -52.9343
   -52.9343 -52.9343 -52.9304 -52.9304 -52.9304 -52.9303 -52.9303 -52.9303
   -52.9303 -52.9303 -52.9281 -52.9280 -52.9280 -52.9280 -52.9280 -52.9280
   -52.9280 -52.9280 -52.9279 -52.9279 -52.9279 -52.9279 -52.9279 -52.9279
   -52.9279 -52.9279 -52.9089 -52.9089 -52.9089 -52.9071 -52.9070 -52.9070
    -1.3288  -0.9904  -0.9809  -0.9311  -0.9273  -0.9118  -0.8965  -0.8932
    -0.8847  -0.8775  -0.8760  -0.8756  -0.8711  -0.8690  -0.8644  -0.8632
    -0.8569  -0.8460  -0.8332  -0.8146  -0.8130  -0.8119  -0.7875  -0.7825
    -0.7774  -0.7766  -0.7711  -0.7688  -0.7665  -0.7638  -0.7624  -0.7597
    -0.7525  -0.5553  -0.5552  -0.5530  -0.5515  -0.5514  -0.5499  -0.5493
    -0.5403  -0.5394  -0.5353  -0.5122  -0.5092  -0.4975  -0.4945  -0.4927
    -0.4866  -0.4851  -0.4825  -0.4734  -0.4731  -0.4659  -0.4658  -0.4594
    -0.4426  -0.4278  -0.4208  -0.4138  -0.4078  -0.3977  -0.3968  -0.3872
    -0.3750  -0.3712  -0.3697  -0.3625  -0.3352  -0.3102  -0.3086  -0.2924
    -0.2900  -0.2828  -0.2808  -0.2786  -0.2703  -0.2679  -0.2677  -0.2654
    -0.2651  -0.2406  -0.2252   0.4314   0.4630   0.8153   1.2362   1.2370
     1.5676   1.5689

          k = 0.0332 0.1662 0.2327 ( 51058 PWs)   bands (ev):

   -86.8601 -86.8601 -86.8601 -86.8597 -86.8597 -86.8597 -86.8527 -86.8527
   -86.8527 -86.8527 -86.8527 -86.8527 -86.8527 -86.8527 -86.8314 -86.8294
   -52.9373 -52.9373 -52.9372 -52.9368 -52.9368 -52.9367 -52.9353 -52.9353
   -52.9353 -52.9353 -52.9352 -52.9352 -52.9344 -52.9344 -52.9344 -52.9344
   -52.9343 -52.9343 -52.9304 -52.9304 -52.9304 -52.9304 -52.9304 -52.9303
   -52.9303 -52.9303 -52.9281 -52.9281 -52.9281 -52.9280 -52.9280 -52.9280
   -52.9280 -52.9280 -52.9280 -52.9280 -52.9279 -52.9279 -52.9279 -52.9279
   -52.9279 -52.9279 -52.9090 -52.9090 -52.9089 -52.9071 -52.9071 -52.9070
    -1.2025  -0.9786  -0.9633  -0.9477  -0.9245  -0.9183  -0.9159  -0.9152
    -0.8785  -0.8774  -0.8741  -0.8716  -0.8652  -0.8639  -0.8558  -0.8542
    -0.8475  -0.8332  -0.8330  -0.8189  -0.8057  -0.8014  -0.7994  -0.7937
    -0.7899  -0.7807  -0.7796  -0.7736  -0.7730  -0.7663  -0.7651  -0.7595
    -0.7529  -0.6720  -0.5605  -0.5579  -0.5578  -0.5526  -0.5474  -0.5472
    -0.5461  -0.5442  -0.5322  -0.5281  -0.5171  -0.5035  -0.4924  -0.4907
    -0.4891  -0.4813  -0.4752  -0.4644  -0.4602  -0.4565  -0.4528  -0.4429
    -0.4400  -0.4386  -0.4305  -0.4153  -0.4103  -0.4100  -0.3950  -0.3839
    -0.3766  -0.3662  -0.3626  -0.3477  -0.3371  -0.3341  -0.3275  -0.3117
    -0.3023  -0.3014  -0.2978  -0.2938  -0.2898  -0.2771  -0.2549  -0.2498
    -0.2411  -0.2291  -0.1748   0.2023   0.5742   0.9556   0.9792   1.3517
     1.3574   1.6975

          k = 0.0332 0.1662-0.2992 ( 51012 PWs)   bands (ev):

   -86.8601 -86.8601 -86.8601 -86.8597 -86.8597 -86.8597 -86.8527 -86.8527
   -86.8527 -86.8527 -86.8527 -86.8527 -86.8527 -86.8527 -86.8314 -86.8294
   -52.9372 -52.9372 -52.9372 -52.9368 -52.9368 -52.9367 -52.9353 -52.9353
   -52.9352 -52.9352 -52.9352 -52.9352 -52.9344 -52.9344 -52.9343 -52.9343
   -52.9343 -52.9343 -52.9304 -52.9304 -52.9303 -52.9303 -52.9303 -52.9303
   -52.9303 -52.9303 -52.9281 -52.9281 -52.9280 -52.9280 -52.9280 -52.9280
   -52.9280 -52.9280 -52.9279 -52.9279 -52.9279 -52.9279 -52.9279 -52.9279
   -52.9279 -52.9279 -52.9090 -52.9089 -52.9089 -52.9071 -52.9071 -52.9070
    -1.0492  -1.0492  -0.9643  -0.9642  -0.9419  -0.9418  -0.9201  -0.9199
    -0.8732  -0.8731  -0.8693  -0.8692  -0.8607  -0.8606  -0.8557  -0.8555
    -0.8293  -0.8291  -0.8226  -0.8225  -0.8133  -0.8130  -0.7987  -0.7985
    -0.7892  -0.7890  -0.7745  -0.7743  -0.7709  -0.7707  -0.7660  -0.7657
    -0.7363  -0.7361  -0.5613  -0.5610  -0.5551  -0.5549  -0.5516  -0.5513
    -0.5397  -0.5395  -0.5331  -0.5328  -0.5199  -0.5197  -0.4933  -0.4931
    -0.4716  -0.4715  -0.4648  -0.4647  -0.4549  -0.4545  -0.4476  -0.4476
    -0.4425  -0.4422  -0.4305  -0.4302  -0.4177  -0.4173  -0.3909  -0.3907
    -0.3594  -0.3591  -0.3456  -0.3452  -0.3309  -0.3306  -0.3236  -0.3231
    -0.3130  -0.3127  -0.3112  -0.3110  -0.2901  -0.2898  -0.2462  -0.2459
    -0.2373  -0.2372  -0.0107  -0.0106   0.7573   0.7573   1.1359   1.1359
     1.5126   1.5126

          k = 0.0332 0.2327 0.2327 ( 51043 PWs)   bands (ev):

   -86.8601 -86.8601 -86.8601 -86.8597 -86.8597 -86.8597 -86.8527 -86.8527
   -86.8527 -86.8527 -86.8527 -86.8527 -86.8527 -86.8527 -86.8314 -86.8294
   -52.9373 -52.9372 -52.9372 -52.9368 -52.9368 -52.9367 -52.9353 -52.9353
   -52.9353 -52.9352 -52.9352 -52.9352 -52.9344 -52.9344 -52.9344 -52.9344
   -52.9343 -52.9343 -52.9304 -52.9304 -52.9304 -52.9304 -52.9304 -52.9304
   -52.9303 -52.9303 -52.9281 -52.9280 -52.9280 -52.9280 -52.9280 -52.9280
   -52.9280 -52.9280 -52.9280 -52.9280 -52.9279 -52.9279 -52.9279 -52.9279
   -52.9279 -52.9279 -52.9090 -52.9090 -52.9089 -52.9071 -52.9071 -52.9070
    -1.0849  -0.9676  -0.9462  -0.9423  -0.9380  -0.9242  -0.9035  -0.8994
    -0.8817  -0.8798  -0.8716  -0.8598  -0.8585  -0.8551  -0.8512  -0.8446
    -0.8439  -0.8412  -0.8267  -0.8138  -0.8135  -0.8050  -0.7945  -0.7920
    -0.7860  -0.7822  -0.7819  -0.7807  -0.7791  -0.7760  -0.7715  -0.7597
    -0.7536  -0.6536  -0.6508  -0.5765  -0.5633  -0.5563  -0.5540  -0.5531
    -0.5527  -0.5510  -0.5406  -0.5337  -0.5283  -0.5079  -0.5054  -0.5002
    -0.4673  -0.4619  -0.4602  -0.4512  -0.4429  -0.4385  -0.4370  -0.4314
    -0.4253  -0.4173  -0.4170  -0.4114  -0.4026  -0.3895  -0.3754  -0.3734
    -0.3720  -0.3692  -0.3660  -0.3599  -0.3547  -0.3409  -0.3263  -0.3245
    -0.3214  -0.3210  -0.3203  -0.3123  -0.3116  -0.3060  -0.3037  -0.2430
    -0.2404  -0.2371  -0.2287  -0.0412   0.7131   1.0908   1.1073   1.1079
     1.4719   1.4721

          k = 0.0332 0.2327-0.2992 ( 51044 PWs)   bands (ev):

   -86.8601 -86.8601 -86.8601 -86.8597 -86.8597 -86.8597 -86.8527 -86.8527
   -86.8527 -86.8527 -86.8527 -86.8527 -86.8527 -86.8527 -86.8314 -86.8294
   -52.9373 -52.9372 -52.9372 -52.9368 -52.9368 -52.9367 -52.9353 -52.9353
   -52.9353 -52.9353 -52.9352 -52.9352 -52.9344 -52.9344 -52.9344 -52.9344
   -52.9343 -52.9343 -52.9304 -52.9304 -52.9304 -52.9304 -52.9304 -52.9304
   -52.9303 -52.9303 -52.9281 -52.9281 -52.9280 -52.9280 -52.9280 -52.9280
   -52.9280 -52.9280 -52.9280 -52.9280 -52.9279 -52.9279 -52.9279 -52.9279
   -52.9279 -52.9279 -52.9090 -52.9090 -52.9089 -52.9071 -52.9071 -52.9070
    -0.9570  -0.9570  -0.9550  -0.9549  -0.9322  -0.9320  -0.9251  -0.9250
    -0.8804  -0.8802  -0.8704  -0.8704  -0.8543  -0.8542  -0.8414  -0.8413
    -0.8308  -0.8306  -0.8214  -0.8212  -0.8119  -0.8117  -0.7992  -0.7991
    -0.7909  -0.7907  -0.7812  -0.7810  -0.7727  -0.7725  -0.7616  -0.7614
    -0.7371  -0.7369  -0.6153  -0.6152  -0.5614  -0.5611  -0.5553  -0.5549
    -0.5487  -0.5485  -0.5463  -0.5461  -0.5197  -0.5194  -0.5053  -0.5051
    -0.4516  -0.4514  -0.4427  -0.4424  -0.4400  -0.4397  -0.4271  -0.4271
    -0.4189  -0.4187  -0.4158  -0.4155  -0.3935  -0.3931  -0.3856  -0.3854
    -0.3665  -0.3661  -0.3540  -0.3537  -0.3442  -0.3439  -0.3388  -0.3387
    -0.3365  -0.3362  -0.3320  -0.3315  -0.3127  -0.3123  -0.2377  -0.2374
    -0.2327  -0.2326  -0.2189  -0.2186   0.8915   0.8916   1.2646   1.2646
     1.2731   1.2732

          k = 0.0332-0.2992-0.2992 ( 51016 PWs)   bands (ev):

   -86.8601 -86.8601 -86.8601 -86.8597 -86.8597 -86.8597 -86.8527 -86.8527
   -86.8527 -86.8527 -86.8527 -86.8527 -86.8527 -86.8527 -86.8314 -86.8294
   -52.9373 -52.9372 -52.9372 -52.9368 -52.9368 -52.9367 -52.9353 -52.9353
   -52.9353 -52.9352 -52.9352 -52.9352 -52.9344 -52.9344 -52.9344 -52.9344
   -52.9343 -52.9343 -52.9304 -52.9304 -52.9304 -52.9304 -52.9303 -52.9303
   -52.9303 -52.9303 -52.9281 -52.9281 -52.9280 -52.9280 -52.9280 -52.9280
   -52.9280 -52.9280 -52.9280 -52.9280 -52.9279 -52.9279 -52.9279 -52.9279
   -52.9278 -52.9278 -52.9090 -52.9090 -52.9089 -52.9071 -52.9071 -52.9070
    -0.9463  -0.9463  -0.9419  -0.9417  -0.9059  -0.9059  -0.9018  -0.9015
    -0.8916  -0.8916  -0.8896  -0.8896  -0.8412  -0.8412  -0.8365  -0.8363
    -0.8277  -0.8277  -0.8233  -0.8227  -0.8080  -0.8080  -0.8037  -0.8035
    -0.7954  -0.7954  -0.7913  -0.7908  -0.7596  -0.7596  -0.7543  -0.7538
    -0.7017  -0.7017  -0.6971  -0.6970  -0.5582  -0.5577  -0.5555  -0.5555
    -0.5546  -0.5541  -0.5523  -0.5523  -0.5157  -0.5153  -0.5130  -0.5130
    -0.4391  -0.4386  -0.4379  -0.4379  -0.4191  -0.4191  -0.4188  -0.4183
    -0.4152  -0.4149  -0.4057  -0.4057  -0.3769  -0.3765  -0.3741  -0.3741
    -0.3694  -0.3694  -0.3665  -0.3657  -0.3552  -0.3552  -0.3534  -0.3527
    -0.3306  -0.3301  -0.3298  -0.3298  -0.3249  -0.3249  -0.3237  -0.3228
    -0.2344  -0.2339  -0.2315  -0.2315   1.0640   1.0640   1.0646   1.0647
     1.4298   1.4298

          k = 0.0997 0.0997 0.0997 ( 51096 PWs)   bands (ev):

   -86.8601 -86.8601 -86.8601 -86.8597 -86.8597 -86.8597 -86.8527 -86.8527
   -86.8527 -86.8527 -86.8527 -86.8527 -86.8527 -86.8527 -86.8315 -86.8294
   -52.9373 -52.9373 -52.9373 -52.9368 -52.9368 -52.9368 -52.9353 -52.9353
   -52.9353 -52.9353 -52.9353 -52.9353 -52.9344 -52.9344 -52.9344 -52.9344
   -52.9344 -52.9344 -52.9304 -52.9304 -52.9304 -52.9304 -52.9304 -52.9303
   -52.9303 -52.9303 -52.9282 -52.9281 -52.9281 -52.9280 -52.9280 -52.9280
   -52.9280 -52.9280 -52.9280 -52.9280 -52.9280 -52.9279 -52.9279 -52.9279
   -52.9279 -52.9279 -52.9090 -52.9090 -52.9090 -52.9071 -52.9071 -52.9071
    -1.4601  -1.0013  -1.0013  -0.9112  -0.9083  -0.9083  -0.9005  -0.8965
    -0.8965  -0.8894  -0.8864  -0.8864  -0.8822  -0.8786  -0.8786  -0.8477
    -0.8472  -0.8472  -0.8470  -0.8411  -0.8411  -0.7780  -0.7749  -0.7749
    -0.7674  -0.7674  -0.7630  -0.7630  -0.7618  -0.7618  -0.7559  -0.7515
    -0.7515  -0.5511  -0.5497  -0.5497  -0.5487  -0.5461  -0.5437  -0.5437
    -0.5198  -0.5154  -0.5154  -0.4998  -0.4998  -0.4937  -0.4937  -0.4892
    -0.4855  -0.4855  -0.4851  -0.4761  -0.4761  -0.4442  -0.4346  -0.4345
    -0.4345  -0.4325  -0.4314  -0.4314  -0.4213  -0.4206  -0.4206  -0.3770
    -0.3759  -0.3755  -0.3755  -0.3667  -0.3667  -0.2988  -0.2988  -0.2959
    -0.2875  -0.2557  -0.2557  -0.2522  -0.2501  -0.2501  -0.2368  -0.2336
    -0.2336  -0.1019  -0.1019  -0.1012   1.0525   1.0525   1.0542   1.1152
     1.1152   1.1163

          k = 0.0997 0.0997 0.1662 ( 51031 PWs)   bands (ev):

   -86.8601 -86.8601 -86.8601 -86.8597 -86.8597 -86.8597 -86.8527 -86.8527
   -86.8527 -86.8527 -86.8527 -86.8527 -86.8527 -86.8527 -86.8314 -86.8294
   -52.9372 -52.9372 -52.9372 -52.9368 -52.9368 -52.9367 -52.9353 -52.9353
   -52.9352 -52.9352 -52.9352 -52.9352 -52.9344 -52.9344 -52.9344 -52.9343
   -52.9343 -52.9343 -52.9304 -52.9304 -52.9304 -52.9304 -52.9303 -52.9303
   -52.9303 -52.9303 -52.9281 -52.9280 -52.9280 -52.9280 -52.9280 -52.9280
   -52.9280 -52.9280 -52.9280 -52.9279 -52.9279 -52.9279 -52.9279 -52.9279
   -52.9279 -52.9279 -52.9090 -52.9090 -52.9089 -52.9071 -52.9071 -52.9070
    -1.3720  -0.9933  -0.9882  -0.9300  -0.9054  -0.9044  -0.9003  -0.9001
    -0.8975  -0.8832  -0.8800  -0.8797  -0.8707  -0.8700  -0.8692  -0.8607
    -0.8516  -0.8492  -0.8287  -0.8256  -0.8248  -0.7935  -0.7909  -0.7840
    -0.7757  -0.7751  -0.7691  -0.7689  -0.7614  -0.7600  -0.7589  -0.7540
    -0.7532  -0.5585  -0.5535  -0.5504  -0.5475  -0.5465  -0.5436  -0.5358
    -0.5342  -0.5203  -0.5159  -0.5158  -0.5134  -0.5118  -0.5108  -0.4908
    -0.4816  -0.4754  -0.4726  -0.4674  -0.4669  -0.4570  -0.4549  -0.4487
    -0.4487  -0.4439  -0.4340  -0.4299  -0.4285  -0.4088  -0.4066  -0.3930
    -0.3837  -0.3814  -0.3589  -0.3588  -0.3501  -0.3076  -0.3063  -0.2866
    -0.2854  -0.2808  -0.2804  -0.2709  -0.2683  -0.2633  -0.2570  -0.2480
    -0.2384  -0.2365   0.0019   0.0019   0.8134   0.8138   1.1481   1.1492
     1.1984   1.5229

          k = 0.0997 0.0997 0.2327 ( 51074 PWs)   bands (ev):

   -86.8601 -86.8601 -86.8601 -86.8597 -86.8597 -86.8597 -86.8527 -86.8527
   -86.8527 -86.8527 -86.8527 -86.8527 -86.8527 -86.8527 -86.8314 -86.8294
   -52.9373 -52.9373 -52.9372 -52.9368 -52.9368 -52.9367 -52.9353 -52.9353
   -52.9353 -52.9352 -52.9352 -52.9352 -52.9344 -52.9344 -52.9344 -52.9344
   -52.9343 -52.9343 -52.9304 -52.9304 -52.9304 -52.9304 -52.9304 -52.9304
   -52.9303 -52.9303 -52.9281 -52.9281 -52.9281 -52.9280 -52.9280 -52.9280
   -52.9280 -52.9280 -52.9280 -52.9280 -52.9280 -52.9279 -52.9279 -52.9279
   -52.9279 -52.9279 -52.9090 -52.9090 -52.9089 -52.9071 -52.9071 -52.9070
    -1.2434  -0.9817  -0.9701  -0.9493  -0.9327  -0.9252  -0.9017  -0.9006
    -0.9005  -0.8982  -0.8750  -0.8725  -0.8594  -0.8579  -0.8575  -0.8532
    -0.8527  -0.8458  -0.8131  -0.8104  -0.8086  -0.8086  -0.8056  -0.8024
    -0.7941  -0.7806  -0.7734  -0.7707  -0.7682  -0.7670  -0.7581  -0.7549
    -0.7520  -0.6764  -0.5634  -0.5599  -0.5432  -0.5428  -0.5398  -0.5287
    -0.5276  -0.5258  -0.5221  -0.5200  -0.5123  -0.5080  -0.5055  -0.4921
    -0.4824  -0.4817  -0.4793  -0.4731  -0.4708  -0.4705  -0.4692  -0.4601
    -0.4562  -0.4472  -0.4470  -0.4379  -0.4128  -0.4027  -0.4021  -0.3836
    -0.3798  -0.3655  -0.3582  -0.3359  -0.3335  -0.3309  -0.3262  -0.3139
    -0.2905  -0.2874  -0.2872  -0.2806  -0.2713  -0.2705  -0.2665  -0.2505
    -0.2458  -0.2437   0.1441   0.1441   0.5492   0.5494   1.2867   1.2878
     1.3190   1.6609

          k = 0.0997 0.0997-0.2992 ( 51016 PWs)   bands (ev):

   -86.8601 -86.8601 -86.8601 -86.8597 -86.8597 -86.8597 -86.8527 -86.8527
   -86.8527 -86.8527 -86.8527 -86.8527 -86.8527 -86.8527 -86.8314 -86.8294
   -52.9372 -52.9372 -52.9372 -52.9368 -52.9368 -52.9367 -52.9353 -52.9353
   -52.9352 -52.9352 -52.9352 -52.9352 -52.9344 -52.9344 -52.9344 -52.9343
   -52.9343 -52.9343 -52.9304 -52.9304 -52.9304 -52.9304 -52.9304 -52.9304
   -52.9303 -52.9303 -52.9280 -52.9280 -52.9280 -52.9280 -52.9280 -52.9280
   -52.9280 -52.9280 -52.9279 -52.9279 -52.9279 -52.9279 -52.9279 -52.9279
   -52.9279 -52.9279 -52.9090 -52.9090 -52.9089 -52.9071 -52.9071 -52.9070
    -1.0841  -1.0841  -0.9669  -0.9667  -0.9485  -0.9483  -0.9009  -0.9008
    -0.8990  -0.8988  -0.8668  -0.8667  -0.8644  -0.8643  -0.8352  -0.8352
    -0.8343  -0.8342  -0.8299  -0.8296  -0.8193  -0.8191  -0.7928  -0.7927
    -0.7854  -0.7852  -0.7825  -0.7823  -0.7719  -0.7717  -0.7565  -0.7563
    -0.7353  -0.7350  -0.5637  -0.5635  -0.5379  -0.5376  -0.5368  -0.5366
    -0.5351  -0.5348  -0.5041  -0.5038  -0.5016  -0.5014  -0.4982  -0.4982
    -0.4954  -0.4953  -0.4921  -0.4918  -0.4795  -0.4793  -0.4649  -0.4644
    -0.4482  -0.4481  -0.4249  -0.4246  -0.4245  -0.4242  -0.3927  -0.3924
    -0.3560  -0.3557  -0.3494  -0.3490  -0.3226  -0.3223  -0.3119  -0.3116
    -0.3097  -0.3095  -0.3027  -0.3022  -0.2580  -0.2575  -0.2571  -0.2569
    -0.2544  -0.2543   0.3260   0.3261   0.3261   0.3261   1.4631   1.4631
     1.4641   1.4641

          k = 0.0997 0.1662 0.1662 ( 51053 PWs)   bands (ev):

   -86.8601 -86.8601 -86.8601 -86.8597 -86.8597 -86.8597 -86.8527 -86.8527
   -86.8527 -86.8527 -86.8527 -86.8527 -86.8527 -86.8527 -86.8314 -86.8294
   -52.9373 -52.9372 -52.9372 -52.9368 -52.9368 -52.9367 -52.9353 -52.9353
   -52.9353 -52.9352 -52.9352 -52.9352 -52.9344 -52.9344 -52.9344 -52.9344
   -52.9343 -52.9343 -52.9304 -52.9304 -52.9304 -52.9304 -52.9304 -52.9303
   -52.9303 -52.9303 -52.9281 -52.9281 -52.9281 -52.9280 -52.9280 -52.9280
   -52.9280 -52.9280 -52.9280 -52.9280 -52.9279 -52.9279 -52.9279 -52.9279
   -52.9279 -52.9279 -52.9090 -52.9090 -52.9089 -52.9071 -52.9071 -52.9070
    -1.2855  -0.9835  -0.9774  -0.9252  -0.9218  -0.9036  -0.8969  -0.8935
    -0.8887  -0.8838  -0.8813  -0.8737  -0.8643  -0.8639  -0.8620  -0.8498
    -0.8481  -0.8384  -0.8256  -0.8171  -0.8157  -0.8112  -0.7922  -0.7921
    -0.7901  -0.7798  -0.7777  -0.7709  -0.7651  -0.7633  -0.7600  -0.7568
    -0.7535  -0.5665  -0.5591  -0.5561  -0.5492  -0.5475  -0.5449  -0.5448
    -0.5385  -0.5315  -0.5279  -0.5226  -0.5202  -0.5100  -0.5097  -0.4860
    -0.4859  -0.4803  -0.4739  -0.4704  -0.4673  -0.4528  -0.4521  -0.4467
    -0.4386  -0.4352  -0.4319  -0.4143  -0.4119  -0.4099  -0.4068  -0.4014
    -0.3828  -0.3761  -0.3738  -0.3592  -0.3564  -0.3305  -0.2987  -0.2966
    -0.2886  -0.2885  -0.2718  -0.2705  -0.2693  -0.2603  -0.2580  -0.2477
    -0.2359  -0.2283  -0.2280   0.1033   0.5117   0.9018   0.9023   1.2410
     1.6115   1.6126

          k = 0.0997 0.1662 0.2327 ( 51034 PWs)   bands (ev):

   -86.8601 -86.8601 -86.8601 -86.8597 -86.8597 -86.8597 -86.8527 -86.8527
   -86.8527 -86.8527 -86.8527 -86.8527 -86.8527 -86.8527 -86.8314 -86.8294
   -52.9372 -52.9372 -52.9372 -52.9368 -52.9368 -52.9367 -52.9353 -52.9353
   -52.9352 -52.9352 -52.9352 -52.9352 -52.9344 -52.9344 -52.9344 -52.9343
   -52.9343 -52.9343 -52.9304 -52.9304 -52.9304 -52.9304 -52.9303 -52.9303
   -52.9303 -52.9303 -52.9281 -52.9281 -52.9280 -52.9280 -52.9280 -52.9280
   -52.9280 -52.9280 -52.9280 -52.9279 -52.9279 -52.9279 -52.9279 -52.9279
   -52.9279 -52.9279 -52.9090 -52.9089 -52.9089 -52.9071 -52.9071 -52.9070
    -1.1604  -0.9719  -0.9599  -0.9417  -0.9179  -0.9148  -0.9081  -0.8896
    -0.8887  -0.8840  -0.8753  -0.8661  -0.8605  -0.8557  -0.8527  -0.8490
    -0.8411  -0.8403  -0.8320  -0.8124  -0.8105  -0.8069  -0.8032  -0.7954
    -0.7901  -0.7900  -0.7844  -0.7781  -0.7697  -0.7647  -0.7617  -0.7595
    -0.7551  -0.6679  -0.5687  -0.5593  -0.5585  -0.5466  -0.5445  -0.5428
    -0.5387  -0.5371  -0.5301  -0.5271  -0.5058  -0.5029  -0.5004  -0.4966
    -0.4928  -0.4897  -0.4858  -0.4827  -0.4684  -0.4601  -0.4528  -0.4428
    -0.4375  -0.4297  -0.4239  -0.4162  -0.4077  -0.3949  -0.3905  -0.3865
    -0.3767  -0.3707  -0.3633  -0.3557  -0.3534  -0.3334  -0.3315  -0.3228
    -0.3182  -0.3119  -0.2891  -0.2866  -0.2837  -0.2651  -0.2597  -0.2570
    -0.2477  -0.2391  -0.1139   0.2435   0.2546   0.6422   1.0301   1.3752
     1.3939   1.7396

          k = 0.0997 0.1662-0.2992 ( 51084 PWs)   bands (ev):

   -86.8601 -86.8601 -86.8601 -86.8597 -86.8597 -86.8597 -86.8527 -86.8527
   -86.8527 -86.8527 -86.8527 -86.8527 -86.8527 -86.8527 -86.8314 -86.8294
   -52.9373 -52.9373 -52.9372 -52.9368 -52.9368 -52.9368 -52.9353 -52.9353
   -52.9353 -52.9353 -52.9352 -52.9352 -52.9344 -52.9344 -52.9344 -52.9344
   -52.9344 -52.9343 -52.9304 -52.9304 -52.9304 -52.9304 -52.9304 -52.9304
   -52.9303 -52.9303 -52.9281 -52.9281 -52.9281 -52.9281 -52.9280 -52.9280
   -52.9280 -52.9280 -52.9280 -52.9280 -52.9280 -52.9280 -52.9280 -52.9280
   -52.9279 -52.9279 -52.9090 -52.9090 -52.9089 -52.9071 -52.9071 -52.9071
    -1.0107  -1.0107  -0.9580  -0.9579  -0.9386  -0.9384  -0.9127  -0.9125
    -0.8858  -0.8857  -0.8580  -0.8580  -0.8557  -0.8556  -0.8479  -0.8479
    -0.8363  -0.8362  -0.8311  -0.8309  -0.8149  -0.8147  -0.7914  -0.7913
    -0.7877  -0.7876  -0.7845  -0.7841  -0.7726  -0.7724  -0.7624  -0.7622
    -0.7376  -0.7374  -0.5660  -0.5657  -0.5550  -0.5548  -0.5444  -0.5442
    -0.5380  -0.5378  -0.5223  -0.5221  -0.5124  -0.5121  -0.4926  -0.4924
    -0.4889  -0.4888  -0.4842  -0.4840  -0.4762  -0.4758  -0.4594  -0.4590
    -0.4245  -0.4244  -0.4070  -0.4068  -0.4007  -0.4004  -0.3813  -0.3811
    -0.3683  -0.3680  -0.3625  -0.3621  -0.3419  -0.3417  -0.3379  -0.3377
    -0.3210  -0.3206  -0.3096  -0.3091  -0.2744  -0.2741  -0.2516  -0.2513
    -0.2466  -0.2465   0.0457   0.0458   0.4226   0.4226   1.1949   1.1949
     1.5459   1.5459

          k = 0.0997 0.2327 0.2327 ( 51038 PWs)   bands (ev):

   -86.8601 -86.8601 -86.8601 -86.8597 -86.8597 -86.8597 -86.8527 -86.8527
   -86.8527 -86.8527 -86.8527 -86.8527 -86.8527 -86.8527 -86.8314 -86.8294
   -52.9372 -52.9372 -52.9372 -52.9368 -52.9368 -52.9367 -52.9353 -52.9353
   -52.9352 -52.9352 -52.9352 -52.9352 -52.9344 -52.9344 -52.9344 -52.9344
   -52.9343 -52.9343 -52.9304 -52.9304 -52.9304 -52.9304 -52.9303 -52.9303
   -52.9303 -52.9303 -52.9280 -52.9280 -52.9280 -52.9280 -52.9280 -52.9280
   -52.9280 -52.9280 -52.9280 -52.9280 -52.9279 -52.9279 -52.9279 -52.9279
   -52.9279 -52.9279 -52.9090 -52.9089 -52.9089 -52.9071 -52.9070 -52.9070
    -1.0439  -0.9607  -0.9434  -0.9354  -0.9312  -0.9166  -0.9011  -0.8973
    -0.8755  -0.8651  -0.8629  -0.8607  -0.8592  -0.8588  -0.8547  -0.8428
    -0.8348  -0.8319  -0.8287  -0.8210  -0.8100  -0.8072  -0.8046  -0.7975
    -0.7966  -0.7852  -0.7812  -0.7759  -0.7732  -0.7721  -0.7685  -0.7622
    -0.7556  -0.6471  -0.6446  -0.5698  -0.5683  -0.5531  -0.5507  -0.5471
    -0.5459  -0.5453  -0.5381  -0.5266  -0.5229  -0.5041  -0.5014  -0.4987
    -0.4865  -0.4829  -0.4813  -0.4708  -0.4593  -0.4462  -0.4383  -0.4340
    -0.4151  -0.4146  -0.4143  -0.4137  -0.3999  -0.3986  -0.3977  -0.3816
    -0.3808  -0.3807  -0.3648  -0.3529  -0.3523  -0.3500  -0.3496  -0.3425
    -0.3401  -0.3047  -0.2940  -0.2926  -0.2905  -0.2618  -0.2606  -0.2505
    -0.2479  -0.2448  -0.2381   0.0162   0.3821   0.7753   0.7756   1.1533
     1.5031   1.8488

          k = 0.0997 0.2327-0.2992 ( 51064 PWs)   bands (ev):

   -86.8601 -86.8601 -86.8601 -86.8597 -86.8597 -86.8597 -86.8527 -86.8527
   -86.8527 -86.8527 -86.8527 -86.8527 -86.8527 -86.8527 -86.8314 -86.8294
   -52.9373 -52.9372 -52.9372 -52.9368 -52.9368 -52.9367 -52.9353 -52.9353
   -52.9353 -52.9352 -52.9352 -52.9352 -52.9344 -52.9344 -52.9344 -52.9344
   -52.9343 -52.9343 -52.9304 -52.9304 -52.9304 -52.9304 -52.9304 -52.9304
   -52.9303 -52.9303 -52.9281 -52.9281 -52.9280 -52.9280 -52.9280 -52.9280
   -52.9280 -52.9280 -52.9280 -52.9280 -52.9279 -52.9279 -52.9279 -52.9279
   -52.9279 -52.9279 -52.9090 -52.9090 -52.9089 -52.9071 -52.9071 -52.9070
    -0.9480  -0.9479  -0.9252  -0.9250  -0.9224  -0.9223  -0.9212  -0.9212
    -0.8789  -0.8787  -0.8673  -0.8672  -0.8550  -0.8550  -0.8412  -0.8410
    -0.8283  -0.8282  -0.8279  -0.8278  -0.8113  -0.8111  -0.8054  -0.8052
    -0.7882  -0.7880  -0.7771  -0.7771  -0.7722  -0.7720  -0.7636  -0.7633
    -0.7374  -0.7371  -0.6077  -0.6076  -0.5626  -0.5623  -0.5486  -0.5483
    -0.5441  -0.5440  -0.5393  -0.5391  -0.5172  -0.5169  -0.5033  -0.5031
    -0.4716  -0.4714  -0.4632  -0.4630  -0.4600  -0.4598  -0.4434  -0.4430
    -0.4119  -0.4117  -0.4017  -0.4015  -0.3930  -0.3928  -0.3830  -0.3827
    -0.3762  -0.3760  -0.3755  -0.3753  -0.3694  -0.3690  -0.3269  -0.3265
    -0.3253  -0.3251  -0.3198  -0.3193  -0.2956  -0.2953  -0.2455  -0.2452
    -0.2414  -0.2414  -0.1556  -0.1554   0.5592   0.5593   0.9463   0.9463
     1.6652   1.6652

          k = 0.0997-0.2992-0.2992 ( 51048 PWs)   bands (ev):

   -86.8601 -86.8601 -86.8601 -86.8597 -86.8597 -86.8597 -86.8527 -86.8527
   -86.8527 -86.8527 -86.8527 -86.8527 -86.8527 -86.8527 -86.8314 -86.8294
   -52.9373 -52.9372 -52.9372 -52.9368 -52.9368 -52.9367 -52.9353 -52.9353
   -52.9353 -52.9352 -52.9352 -52.9352 -52.9344 -52.9344 -52.9344 -52.9343
   -52.9343 -52.9343 -52.9304 -52.9304 -52.9304 -52.9304 -52.9304 -52.9304
   -52.9303 -52.9303 -52.9280 -52.9280 -52.9280 -52.9280 -52.9280 -52.9280
   -52.9280 -52.9280 -52.9280 -52.9280 -52.9280 -52.9280 -52.9279 -52.9279
   -52.9279 -52.9279 -52.9090 -52.9090 -52.9089 -52.9071 -52.9071 -52.9070
    -0.9391  -0.9391  -0.9348  -0.9345  -0.9037  -0.9037  -0.8997  -0.8993
    -0.8673  -0.8673  -0.8653  -0.8652  -0.8532  -0.8532  -0.8484  -0.8481
    -0.8226  -0.8226  -0.8180  -0.8177  -0.8156  -0.8156  -0.8112  -0.8108
    -0.7872  -0.7872  -0.7831  -0.7827  -0.7619  -0.7619  -0.7566  -0.7561
    -0.6953  -0.6953  -0.6912  -0.6911  -0.5552  -0.5547  -0.5523  -0.5523
    -0.5491  -0.5487  -0.5467  -0.5467  -0.5140  -0.5136  -0.5112  -0.5112
    -0.4578  -0.4574  -0.4566  -0.4566  -0.4397  -0.4392  -0.4350  -0.4350
    -0.4167  -0.4162  -0.4161  -0.4161  -0.3908  -0.3904  -0.3893  -0.3893
    -0.3877  -0.3871  -0.3864  -0.3864  -0.3503  -0.3503  -0.3480  -0.3473
    -0.3137  -0.3137  -0.3123  -0.3116  -0.2687  -0.2682  -0.2669  -0.2669
    -0.2429  -0.2425  -0.2401  -0.2401   0.7338   0.7338   0.7341   0.7341
     1.8149   1.8149

          k = 0.1662 0.1662 0.1662 ( 51084 PWs)   bands (ev):

   -86.8601 -86.8601 -86.8601 -86.8597 -86.8597 -86.8597 -86.8527 -86.8527
   -86.8527 -86.8527 -86.8527 -86.8527 -86.8527 -86.8527 -86.8314 -86.8294
   -52.9373 -52.9373 -52.9372 -52.9368 -52.9368 -52.9368 -52.9353 -52.9353
   -52.9353 -52.9353 -52.9352 -52.9352 -52.9344 -52.9344 -52.9344 -52.9344
   -52.9343 -52.9343 -52.9305 -52.9304 -52.9304 -52.9304 -52.9304 -52.9303
   -52.9303 -52.9303 -52.9281 -52.9281 -52.9281 -52.9281 -52.9281 -52.9280
   -52.9280 -52.9280 -52.9280 -52.9280 -52.9280 -52.9280 -52.9280 -52.9279
   -52.9279 -52.9279 -52.9090 -52.9090 -52.9089 -52.9071 -52.9071 -52.9070
    -1.2003  -0.9703  -0.9703  -0.9163  -0.9134  -0.9134  -0.8903  -0.8871
    -0.8867  -0.8867  -0.8834  -0.8834  -0.8573  -0.8542  -0.8542  -0.8278
    -0.8260  -0.8260  -0.8224  -0.8189  -0.8189  -0.8120  -0.8082  -0.8082
    -0.7963  -0.7963  -0.7728  -0.7728  -0.7691  -0.7691  -0.7596  -0.7554
[...]
   -49.4015 -49.4015 -49.4013 -49.4013 -49.4012 -49.4012 -49.4012 -49.4011
   -49.4011 -49.4011 -49.3988 -49.3988 -49.3988 -49.3987 -49.3987 -49.3987
   -49.3987 -49.3986 -49.3986 -49.3986 -49.3986 -49.3986 -49.3986 -49.3985
   -49.3985 -49.3984 -49.3929 -49.3929 -49.3928 -49.3921 -49.3921 -49.3921
    -0.9159  -0.1233  -0.1150  -0.1150   0.5923   0.5996   0.5996   1.2369
     1.5485   1.5496   1.5496   1.5757   1.5809   1.5809   1.7354   1.9386
     1.9386   1.9615   1.9621   1.9621   2.0086   2.0092   2.0092   2.0149
     2.0149   2.0458   2.0458   2.0470   2.0744   2.0744   2.0783   2.0797
     2.0797   2.0806   2.0806   2.0818   2.1776   2.1776   2.1799   2.1816
     2.1816   2.1838   2.2204   2.2255   2.2680   2.2680   2.2707   2.3093
     2.3093   2.3534   2.3534   2.3567   2.5028   2.5028   2.5238   2.5238
     2.5262   2.5298   2.5298   2.5319   2.6306   2.6323   2.6323   2.7435
     2.7457   2.7457   2.7674   2.7674   2.7678   2.8064   2.8547   2.8547
     2.8561   2.8965   2.8977   2.8977   2.9122   2.9122   2.9661   2.9661
     2.9784   2.9784   2.9963   2.9963   2.9969   3.0046   3.0059   3.0059
     3.0975   3.1018

          k = 0.1662 0.1662 0.2327 ( 51079 PWs)   bands (ev):

   -83.2538 -83.2538 -83.2538 -83.2536 -83.2535 -83.2535 -83.2509 -83.2509
   -83.2509 -83.2509 -83.2509 -83.2509 -83.2508 -83.2508 -83.2426 -83.2416
   -49.4023 -49.4023 -49.4023 -49.4022 -49.4022 -49.4022 -49.4019 -49.4019
   -49.4019 -49.4019 -49.4018 -49.4018 -49.4016 -49.4016 -49.4016 -49.4016
   -49.4015 -49.4015 -49.4013 -49.4013 -49.4012 -49.4012 -49.4012 -49.4011
   -49.4011 -49.4011 -49.3988 -49.3987 -49.3987 -49.3987 -49.3987 -49.3987
   -49.3987 -49.3987 -49.3986 -49.3986 -49.3986 -49.3985 -49.3985 -49.3985
   -49.3985 -49.3985 -49.3929 -49.3928 -49.3928 -49.3921 -49.3921 -49.3920
    -0.7808  -0.3802   0.0052   0.0107   0.3682   0.3734   0.7146   1.0434
     1.6035   1.6044   1.6072   1.6081   1.6098   1.7133   1.8524   1.9422
     1.9553   1.9612   1.9766   1.9771   2.0059   2.0126   2.0231   2.0236
     2.0350   2.0429   2.0433   2.0449   2.0593   2.0603   2.0669   2.0671
     2.0682   2.0683   2.0731   2.0746   2.1298   2.1310   2.1482   2.1865
     2.1943   2.1954   2.2132   2.2335   2.2508   2.2541   2.2555   2.2822
     2.3011   2.3186   2.3952   2.3971   2.4836   2.4850   2.5226   2.5236
     2.5399   2.5728   2.5745   2.5891   2.5918   2.6665   2.6674   2.6867
     2.6881   2.7273   2.7387   2.7394   2.7964   2.8077   2.8703   2.8712
     2.8733   2.8871   2.8912   2.8957   2.8965   2.9171   2.9471   2.9597
     2.9765   2.9849   2.9938   2.9949   2.9955   2.9978   3.0012   3.0018
     3.1378   3.1409

          k = 0.1662 0.1662-0.2992 ( 51114 PWs)   bands (ev):

   -83.2538 -83.2538 -83.2538 -83.2536 -83.2536 -83.2535 -83.2509 -83.2509
   -83.2509 -83.2509 -83.2509 -83.2509 -83.2508 -83.2508 -83.2426 -83.2416
   -49.4023 -49.4023 -49.4023 -49.4022 -49.4022 -49.4022 -49.4019 -49.4019
   -49.4019 -49.4019 -49.4019 -49.4018 -49.4017 -49.4016 -49.4016 -49.4016
   -49.4016 -49.4015 -49.4013 -49.4013 -49.4012 -49.4012 -49.4012 -49.4012
   -49.4012 -49.4011 -49.3987 -49.3987 -49.3987 -49.3987 -49.3987 -49.3987
   -49.3987 -49.3987 -49.3986 -49.3986 -49.3986 -49.3986 -49.3985 -49.3985
   -49.3985 -49.3985 -49.3929 -49.3929 -49.3928 -49.3921 -49.3921 -49.3921
    -0.6019  -0.6017   0.1693   0.1695   0.1747   0.1748   0.8655   0.8656
     1.6202   1.6203   1.6218   1.6218   1.6675   1.6676   1.9482   1.9484
     1.9941   1.9942   1.9979   1.9980   1.9983   1.9984   2.0069   2.0070
     2.0337   2.0338   2.0499   2.0500   2.0632   2.0633   2.0646   2.0647
     2.0726   2.0727   2.0836   2.0837   2.0843   2.0844   2.1167   2.1167
     2.2231   2.2232   2.2234   2.2235   2.2487   2.2488   2.2770   2.2772
     2.2839   2.2840   2.4389   2.4390   2.4405   2.4406   2.5379   2.5381
     2.5519   2.5520   2.6265   2.6266   2.6280   2.6281   2.6570   2.6571
     2.7039   2.7040   2.7047   2.7048   2.8325   2.8327   2.8535   2.8536
     2.8855   2.8856   2.8863   2.8864   2.9220   2.9221   2.9387   2.9390
     2.9875   2.9877   2.9899   2.9900   2.9971   2.9972   2.9978   2.9979
     3.1969   3.1970

          k = 0.1662 0.2327 0.2327 ( 51085 PWs)   bands (ev):

   -83.2538 -83.2538 -83.2538 -83.2536 -83.2535 -83.2535 -83.2509 -83.2509
   -83.2509 -83.2509 -83.2509 -83.2508 -83.2508 -83.2508 -83.2426 -83.2416
   -49.4023 -49.4023 -49.4022 -49.4022 -49.4022 -49.4022 -49.4019 -49.4019
   -49.4019 -49.4018 -49.4018 -49.4018 -49.4016 -49.4016 -49.4016 -49.4016
   -49.4015 -49.4015 -49.4013 -49.4012 -49.4012 -49.4012 -49.4012 -49.4012
   -49.4012 -49.4011 -49.3988 -49.3987 -49.3987 -49.3987 -49.3987 -49.3987
   -49.3987 -49.3986 -49.3986 -49.3986 -49.3986 -49.3986 -49.3985 -49.3985
   -49.3985 -49.3985 -49.3929 -49.3929 -49.3928 -49.3921 -49.3921 -49.3921
    -0.6468  -0.2534  -0.2478   0.1284   0.1327   0.4893   0.4943   0.8354
     1.6413   1.6510   1.6512   1.7160   1.7201   1.8342   1.8366   1.9558
     1.9681   1.9703   1.9708   1.9876   2.0115   2.0248   2.0261   2.0278
     2.0286   2.0415   2.0416   2.0424   2.0455   2.0475   2.0600   2.0632
     2.0634   2.0654   2.0712   2.0790   2.0826   2.1291   2.1487   2.1694
     2.1704   2.1790   2.1812   2.2422   2.2424   2.2514   2.2715   2.2846
     2.2914   2.3569   2.3592   2.4409   2.4415   2.5376   2.5391   2.5480
     2.5532   2.5813   2.5825   2.6247   2.6264   2.6308   2.6586   2.6654
     2.6997   2.7013   2.7481   2.7501   2.7707   2.7708   2.8436   2.8459
     2.8869   2.9018   2.9028   2.9085   2.9140   2.9148   2.9457   2.9520
     2.9730   2.9828   2.9890   2.9914   2.9917   2.9920   2.9927   2.9977
     3.1787   3.3142

          k = 0.1662 0.2327-0.2992 ( 51072 PWs)   bands (ev):

   -83.2538 -83.2538 -83.2538 -83.2535 -83.2535 -83.2535 -83.2509 -83.2509
   -83.2509 -83.2509 -83.2509 -83.2509 -83.2508 -83.2508 -83.2426 -83.2416
   -49.4023 -49.4022 -49.4022 -49.4022 -49.4022 -49.4022 -49.4019 -49.4018
   -49.4018 -49.4018 -49.4018 -49.4018 -49.4016 -49.4016 -49.4016 -49.4015
   -49.4015 -49.4015 -49.4013 -49.4012 -49.4012 -49.4012 -49.4012 -49.4012
   -49.4011 -49.4011 -49.3987 -49.3987 -49.3987 -49.3987 -49.3987 -49.3987
   -49.3987 -49.3987 -49.3986 -49.3986 -49.3986 -49.3986 -49.3985 -49.3985
   -49.3985 -49.3985 -49.3929 -49.3929 -49.3928 -49.3921 -49.3921 -49.3921
    -0.4697  -0.4696  -0.0803  -0.0801   0.2953   0.2954   0.6484   0.6485
     1.6595   1.6595   1.6928   1.6928   1.7934   1.7934   1.9637   1.9638
     1.9840   1.9840   1.9913   1.9915   1.9933   1.9934   2.0045   2.0046
     2.0300   2.0301   2.0340   2.0341   2.0456   2.0457   2.0591   2.0592
     2.0629   2.0630   2.0855   2.0856   2.1161   2.1162   2.1228   2.1229
     2.1598   2.1600   2.2111   2.2111   2.2625   2.2626   2.2765   2.2767
     2.3206   2.3208   2.3994   2.3995   2.4884   2.4885   2.5702   2.5703
     2.5874   2.5875   2.5965   2.5966   2.6247   2.6248   2.6642   2.6642
     2.6893   2.6894   2.7357   2.7358   2.7992   2.7993   2.8088   2.8088
     2.9028   2.9030   2.9100   2.9101   2.9282   2.9283   2.9342   2.9344
     2.9811   2.9814   2.9871   2.9872   2.9881   2.9882   2.9938   2.9938
     3.2371   3.2372

          k = 0.1662-0.2992-0.2992 ( 51096 PWs)   bands (ev):

   -83.2538 -83.2538 -83.2538 -83.2536 -83.2536 -83.2536 -83.2509 -83.2509
   -83.2509 -83.2509 -83.2509 -83.2509 -83.2509 -83.2509 -83.2426 -83.2416
   -49.4023 -49.4023 -49.4023 -49.4022 -49.4022 -49.4022 -49.4019 -49.4019
   -49.4019 -49.4019 -49.4018 -49.4018 -49.4016 -49.4016 -49.4016 -49.4016
   -49.4016 -49.4016 -49.4013 -49.4012 -49.4012 -49.4012 -49.4012 -49.4012
   -49.4011 -49.4011 -49.3987 -49.3987 -49.3987 -49.3987 -49.3987 -49.3987
   -49.3987 -49.3987 -49.3986 -49.3986 -49.3986 -49.3986 -49.3986 -49.3986
   -49.3985 -49.3985 -49.3929 -49.3929 -49.3929 -49.3921 -49.3921 -49.3921
    -0.2981  -0.2978  -0.2923  -0.2923   0.4530   0.4533   0.4583   0.4583
     1.6872   1.6872   1.6878   1.6879   1.9064   1.9065   1.9085   1.9085
     1.9810   1.9810   1.9811   1.9814   2.0031   2.0033   2.0043   2.0043
     2.0164   2.0167   2.0179   2.0179   2.0589   2.0589   2.0590   2.0592
     2.0830   2.0832   2.0838   2.0838   2.1127   2.1128   2.1167   2.1167
     2.1654   2.1654   2.1664   2.1666   2.2785   2.2787   2.2787   2.2788
     2.3584   2.3584   2.3607   2.3609   2.5400   2.5400   2.5415   2.5417
     2.6007   2.6009   2.6017   2.6017   2.6243   2.6243   2.6266   2.6266
     2.7461   2.7461   2.7482   2.7482   2.7712   2.7712   2.7713   2.7716
     2.9200   2.9200   2.9207   2.9211   2.9250   2.9250   2.9260   2.9260
     2.9804   2.9804   2.9813   2.9817   2.9894   2.9894   2.9899   2.9899
     3.2892   3.2894

          k = 0.2327 0.2327 0.2327 ( 51101 PWs)   bands (ev):

   -83.2538 -83.2538 -83.2538 -83.2536 -83.2535 -83.2535 -83.2509 -83.2509
   -83.2509 -83.2509 -83.2509 -83.2509 -83.2509 -83.2508 -83.2426 -83.2416
   -49.4023 -49.4023 -49.4022 -49.4022 -49.4022 -49.4022 -49.4019 -49.4019
   -49.4019 -49.4018 -49.4018 -49.4018 -49.4016 -49.4016 -49.4016 -49.4016
   -49.4015 -49.4015 -49.4013 -49.4013 -49.4013 -49.4012 -49.4012 -49.4012
   -49.4011 -49.4011 -49.3987 -49.3987 -49.3987 -49.3987 -49.3987 -49.3987
   -49.3987 -49.3987 -49.3986 -49.3986 -49.3986 -49.3986 -49.3986 -49.3986
   -49.3985 -49.3985 -49.3929 -49.3929 -49.3928 -49.3921 -49.3921 -49.3921
    -0.5140  -0.1276  -0.1193  -0.1193   0.2478   0.2557   0.2557   0.6121
     1.7455   1.7455   1.7466   1.7515   1.8285   1.8299   1.8299   1.9705
     1.9705   1.9811   1.9820   1.9820   2.0150   2.0150   2.0165   2.0249
     2.0249   2.0261   2.0294   2.0398   2.0409   2.0409   2.0443   2.0443
     2.0799   2.0810   2.0810   2.0865   2.0865   2.1640   2.1640   2.1664
     2.1995   2.1995   2.1997   2.1997   2.2010   2.2024   2.2484   2.2484
     2.3209   2.3988   2.3988   2.4018   2.4896   2.4896   2.4920   2.5824
     2.5824   2.5988   2.6300   2.6300   2.6319   2.6576   2.6599   2.6599
     2.7209   2.7234   2.7234   2.7319   2.7319   2.7325   2.8101   2.8101
     2.9148   2.9148   2.9161   2.9250   2.9263   2.9263   2.9585   2.9585
     2.9648   2.9648   2.9830   2.9830   2.9838   2.9854   2.9867   2.9867
     3.3748   3.3817

          k = 0.2327 0.2327-0.2992 ( 51118 PWs)   bands (ev):

   -83.2538 -83.2538 -83.2538 -83.2536 -83.2536 -83.2536 -83.2509 -83.2509
   -83.2509 -83.2509 -83.2509 -83.2509 -83.2508 -83.2508 -83.2426 -83.2416
   -49.4023 -49.4023 -49.4023 -49.4023 -49.4022 -49.4022 -49.4019 -49.4019
   -49.4019 -49.4019 -49.4019 -49.4018 -49.4016 -49.4016 -49.4016 -49.4016
   -49.4016 -49.4016 -49.4013 -49.4012 -49.4012 -49.4012 -49.4012 -49.4012
   -49.4012 -49.4011 -49.3987 -49.3987 -49.3987 -49.3987 -49.3987 -49.3987
   -49.3987 -49.3987 -49.3986 -49.3986 -49.3986 -49.3986 -49.3986 -49.3986
   -49.3985 -49.3985 -49.3929 -49.3929 -49.3929 -49.3921 -49.3921 -49.3921
    -0.3386  -0.3385   0.0440   0.0442   0.0495   0.0496   0.4156   0.4157
     1.7593   1.7593   1.8016   1.8016   1.8018   1.8018   1.9499   1.9500
     1.9756   1.9757   1.9945   1.9946   1.9983   1.9984   1.9989   1.9990
     2.0269   2.0270   2.0282   2.0283   2.0293   2.0294   2.0415   2.0416
     2.0853   2.0855   2.1242   2.1243   2.1253   2.1254   2.1386   2.1386
     2.1998   2.1999   2.2005   2.2006   2.2052   2.2053   2.2347   2.2349
     2.3596   2.3597   2.4434   2.4435   2.4451   2.4452   2.5431   2.5432
     2.6107   2.6109   2.6196   2.6197   2.6773   2.6773   2.6786   2.6787
     2.6955   2.6956   2.6966   2.6967   2.7695   2.7698   2.7703   2.7704
     2.9251   2.9252   2.9259   2.9260   2.9391   2.9392   2.9453   2.9455
     2.9724   2.9727   2.9752   2.9752   2.9812   2.9813   2.9819   2.9820
     3.4385   3.4412

          k = 0.2327-0.2992-0.2992 ( 51128 PWs)   bands (ev):

   -83.2538 -83.2538 -83.2538 -83.2536 -83.2536 -83.2536 -83.2509 -83.2509
   -83.2509 -83.2509 -83.2509 -83.2509 -83.2509 -83.2509 -83.2426 -83.2416
   -49.4023 -49.4023 -49.4023 -49.4022 -49.4022 -49.4022 -49.4019 -49.4019
   -49.4019 -49.4018 -49.4018 -49.4018 -49.4016 -49.4016 -49.4016 -49.4016
   -49.4015 -49.4015 -49.4013 -49.4013 -49.4013 -49.4012 -49.4012 -49.4012
   -49.4012 -49.4011 -49.3987 -49.3987 -49.3987 -49.3987 -49.3987 -49.3987
   -49.3987 -49.3987 -49.3986 -49.3986 -49.3986 -49.3986 -49.3986 -49.3986
   -49.3986 -49.3986 -49.3929 -49.3929 -49.3929 -49.3921 -49.3921 -49.3921
    -0.1686  -0.1683  -0.1629  -0.1629   0.2105   0.2107   0.2159   0.2159
     1.7920   1.7920   1.7933   1.7934   1.8917   1.8918   1.8922   1.8922
     1.9901   1.9901   1.9904   1.9907   2.0038   2.0040   2.0051   2.0051
     2.0117   2.0119   2.0131   2.0131   2.0315   2.0315   2.0317   2.0320
     2.1215   2.1217   2.1221   2.1221   2.1506   2.1508   2.1544   2.1544
     2.1678   2.1680   2.1687   2.1687   2.2209   2.2211   2.2213   2.2213
     2.4003   2.4003   2.4022   2.4024   2.4916   2.4916   2.4932   2.4934
     2.6479   2.6482   2.6486   2.6486   2.6556   2.6556   2.6579   2.6579
     2.7250   2.7250   2.7271   2.7272   2.7330   2.7332   2.7332   2.7333
     2.9399   2.9399   2.9401   2.9401   2.9411   2.9414   2.9414   2.9414
     2.9704   2.9704   2.9713   2.9717   2.9742   2.9742   2.9749   2.9749
     3.4756   3.4761

          k =-0.2992-0.2992-0.2992 ( 51104 PWs)   bands (ev):

   -83.2538 -83.2538 -83.2538 -83.2535 -83.2535 -83.2535 -83.2509 -83.2509
   -83.2509 -83.2509 -83.2509 -83.2509 -83.2509 -83.2509 -83.2426 -83.2416
   -49.4024 -49.4024 -49.4022 -49.4022 -49.4022 -49.4022 -49.4019 -49.4019
   -49.4019 -49.4018 -49.4018 -49.4018 -49.4016 -49.4016 -49.4016 -49.4015
   -49.4015 -49.4015 -49.4013 -49.4013 -49.4013 -49.4013 -49.4013 -49.4013
   -49.4011 -49.4011 -49.3987 -49.3987 -49.3987 -49.3987 -49.3987 -49.3987
   -49.3986 -49.3986 -49.3986 -49.3986 -49.3986 -49.3986 -49.3986 -49.3986
   -49.3986 -49.3986 -49.3929 -49.3929 -49.3929 -49.3921 -49.3921 -49.3921
    -0.0038  -0.0033   0.0073   0.0073   0.0073   0.0074   0.0074   0.0074
     1.8554   1.8554   1.8554   1.8555   1.8555   1.8555   1.8571   1.8573
     2.0070   2.0070   2.0070   2.0071   2.0071   2.0072   2.0072   2.0072
     2.0074   2.0074   2.0088   2.0088   2.0088   2.0089   2.0089   2.0089
     2.1658   2.1658   2.1661   2.1661   2.1679   2.1679   2.1679   2.1679
     2.1679   2.1679   2.1699   2.1699   2.1699   2.1701   2.1701   2.1701
     2.4450   2.4450   2.4450   2.4451   2.4451   2.4451   2.4484   2.4487
     2.6904   2.6904   2.6904   2.6908   2.6908   2.6908   2.6930   2.6930
     2.6930   2.6932   2.6932   2.6932   2.6937   2.6937   2.6939   2.6939
     2.9566   2.9566   2.9566   2.9568   2.9568   2.9568   2.9577   2.9577
     2.9580   2.9580   2.9581   2.9581   2.9581   2.9585   2.9585   2.9585
     3.5734   3.5741

     the Fermi energy is     2.2463 ev

!    total energy              =   -5263.71119743 Ry

     total all-electron energy =    -40724.455726 Ry
     estimated scf accuracy    <       0.00000008 Ry
     smearing contrib. (-TS)   =      -0.21354973 Ry
     internal energy E=F+TS    =   -5263.49764770 Ry

     The total energy is F=E-TS. E is the sum of the following terms:
     one-electron contribution =   -3536.35213455 Ry
     hartree contribution      =    1774.59427243 Ry
     xc contribution           =    -440.16573392 Ry
     ewald contribution        =   -1737.32002568 Ry
     one-center paw contrib.   =   -1324.25402598 Ry

     total magnetization       =    52.10 Bohr mag/cell
     absolute magnetization    =    55.40 Bohr mag/cell

     convergence has been achieved in  54 iterations

     negative rho (up, down):  0.000E+00 4.673E-03

     Forces acting on atoms (cartesian axes, Ry/au):

     atom    1 type  1   force =     0.00000000    0.00000000    0.00000000
     atom    2 type  2   force =     0.00000627    0.00000627    0.00000627
     atom    3 type  1   force =     0.00000000    0.00000000    0.00000000
     atom    4 type  2   force =     0.00000627    0.00000627   -0.00000627
     atom    5 type  1   force =     0.00000000    0.00000000    0.00000000
     atom    6 type  2   force =     0.00000627   -0.00000627    0.00000627
     atom    7 type  1   force =     0.00000000    0.00000000    0.00000000
     atom    8 type  2   force =     0.00000627   -0.00000627   -0.00000627
     atom    9 type  1   force =     0.00000000    0.00000000    0.00000000
     atom   10 type  2   force =    -0.00000627    0.00000627    0.00000627
     atom   11 type  1   force =     0.00000000    0.00000000    0.00000000
     atom   12 type  2   force =    -0.00000627    0.00000627   -0.00000627
     atom   13 type  1   force =     0.00000000    0.00000000    0.00000000
     atom   14 type  2   force =    -0.00000627   -0.00000627    0.00000627
     atom   15 type  1   force =     0.00000000    0.00000000    0.00000000
     atom   16 type  2   force =    -0.00000627   -0.00000627   -0.00000627

     Total force =     0.000031     Total SCF correction =     0.000016
     SCF correction compared to forces is large: reduce conv_thr to get better values


     Computing stress (Cartesian axis) and pressure


     negative rho (up, down):  0.000E+00 4.673E-03
          total   stress  (Ry/bohr**3)                   (kbar)     P=      -91.02
  -0.00061871   0.00000000   0.00000000          -91.02        0.00        0.00
   0.00000000  -0.00061871   0.00000000            0.00      -91.02        0.00
   0.00000000   0.00000000  -0.00061871            0.00        0.00      -91.02


     Writing output data file /scratch/IZCWHZldhepAXiec.save/
 
     init_run     :     11.24s CPU     11.69s WALL (       1 calls)
     electrons    :   2003.14s CPU   2028.89s WALL (       1 calls)
     forces       :      3.77s CPU      3.85s WALL (       1 calls)
     stress       :     22.89s CPU     23.07s WALL (       1 calls)

     Called by init_run:
     wfcinit      :     10.00s CPU     10.30s WALL (       1 calls)
     potinit      :      0.23s CPU      0.26s WALL (       1 calls)
     hinit0       :      0.54s CPU      0.55s WALL (       1 calls)

     Called by electrons:
     c_bands      :   1757.42s CPU   1775.66s WALL (      54 calls)
     sum_band     :    230.39s CPU    235.53s WALL (      54 calls)
     v_of_rho     :      2.50s CPU      2.69s WALL (      55 calls)
     newd         :      4.14s CPU      5.45s WALL (      55 calls)
     PAW_pot      :      6.31s CPU      7.02s WALL (      55 calls)
     mix_rho      :      2.19s CPU      2.33s WALL (      54 calls)

     Called by c_bands:
     init_us_2    :     12.44s CPU     12.72s WALL (    7770 calls)
     cegterg      :   1711.69s CPU   1728.80s WALL (    3780 calls)

     Called by *egterg:
     cdiaghg      :    207.18s CPU    208.38s WALL (   22020 calls)
     h_psi        :    993.12s CPU   1005.67s WALL (   22090 calls)
     s_psi        :     58.19s CPU     58.65s WALL (   22090 calls)
     g_psi        :      3.14s CPU      3.18s WALL (   18240 calls)

     Called by h_psi:
     h_psi:calbec :     95.79s CPU     96.52s WALL (   22090 calls)
     vloc_psi     :    828.50s CPU    839.70s WALL (   22090 calls)
     add_vuspsi   :     61.87s CPU     62.46s WALL (   22090 calls)

     General routines
     calbec       :    134.06s CPU    135.12s WALL (   26220 calls)
     fft          :      1.91s CPU      1.94s WALL (    1413 calls)
     ffts         :      1.16s CPU      1.19s WALL (    1899 calls)
     fftw         :    958.16s CPU    971.03s WALL ( 3587078 calls)
     interpolate  :      0.23s CPU      0.23s WALL (     110 calls)
 
     Parallel routines
     fft_scatt_xy :    102.27s CPU    103.66s WALL ( 3590390 calls)
     fft_scatt_yz :    719.28s CPU    729.13s WALL ( 3590390 calls)
 
     PWSCF        :  34m11.68s CPU  34m40.94s WALL

 
   This run was terminated on:  17:38: 7  19Mar2022            

=------------------------------------------------------------------------------=
   JOB DONE.
=------------------------------------------------------------------------------=
