
     Program PWSCF v.6.7MaX starts on 17Jan2022 at 14: 8: 1 

     This program is part of the open-source Quantum ESPRESSO suite
     for quantum simulation of materials; please cite
         "P. Giannozzi et al., J. Phys.:Condens. Matter 21 395502 (2009);
         "P. Giannozzi et al., J. Phys.:Condens. Matter 29 465901 (2017);
          URL http://www.quantum-espresso.org", 
     in publications or presentations arising from this work. More details at
     http://www.quantum-espresso.org/quote

     Parallel version (MPI & OpenMP), running on      72 processor cores
     Number of MPI processes:                72
     Threads/MPI process:                     1

     MPI processes distributed on     1 nodes
     R & G space division:  proc/nbgrp/npool/nimage =      72
     Reading input from bcc_8.in
Warning: card &CELL ignored
Warning: card CELL_DYNAMICS = 'BFGS', ignored
Warning: card CELL_FACTOR = 2.0, ignored
Warning: card PRESS = 0.0, ignored
Warning: card / ignored

     Current dimensions of program PWSCF are:
     Max number of different atomic species (ntypx) = 10
     Max number of k-points (npk) =  40000
     Max angular momentum in pseudopotentials (lmaxx) =  3
     file Fe.pbe-spn-kjpaw_psl.1.0.0.UPF: wavefunction(s)  3P 3D renormalized
     file Fe.pbe-spn-kjpaw_psl.1.0.0.UPF: wavefunction(s)  3P 3D renormalized

     Subspace diagonalization in iterative solution of the eigenvalue problem:
     one sub-group per band group will be used
     ELPA distributed-memory algorithm (size of sub-group:  8*  8 procs)

     Found symmetry operation: I + (  0.0000  0.0000 -0.5000)
     This is a supercell, fractional translations are disabled
     Message from routine setup:
     using ibrav=0 with symmetry is DISCOURAGED, use correct ibrav instead
 
     Parallelization info
     --------------------
     sticks:   dense  smooth     PW     G-vecs:    dense   smooth      PW
     Min          73      48     13                 4011     2154     313
     Max          75      49     14                 4015     2161     318
     Sum        5273    3505    973               288971   155331   22647
 


     bravais-lattice index     =            0
     lattice parameter (alat)  =      10.2690  a.u.
     unit-cell volume          =    1920.9339 (a.u.)^3
     number of atoms/cell      =           16
     number of atomic types    =            2
     number of electrons       =       256.00
     number of Kohn-Sham states=          154
     kinetic-energy cutoff     =      71.0000  Ry
     charge density cutoff     =     430.0000  Ry
     scf convergence threshold =      1.0E-07
     mixing beta               =       0.1000
     number of iterations used =           10  local-TF  mixing
     Exchange-correlation= SLA  PW   PBX  PBC
                           (   1   4   3   4   0   0   0)

     celldm(1)=  10.269041  celldm(2)=   0.000000  celldm(3)=   0.000000
     celldm(4)=   0.000000  celldm(5)=   0.000000  celldm(6)=   0.000000

     crystal axes: (cart. coord. in units of alat)
               a(1) = (   1.210526   0.000000   0.000000 )  
               a(2) = (   0.000000   1.210526   0.000000 )  
               a(3) = (   0.000000   0.000000   1.210526 )  

     reciprocal axes: (cart. coord. in units 2 pi/alat)
               b(1) = (  0.826087  0.000000  0.000000 )  
               b(2) = (  0.000000  0.826087  0.000000 )  
               b(3) = (  0.000000  0.000000  0.826087 )  


     PseudoPot. # 1 for Fe read from file:
     /rds/homes/b/bxp912/pp/Fe.pbe-spn-kjpaw_psl.1.0.0.UPF
     MD5 check sum: 42f43b795421b414b0dc916aa790dbcb
     Pseudo is Projector augmented-wave + core cor, Zval = 16.0
     Generated using &quot;atomic&quot; code by A. Dal Corso  v.6.3
     Shape of augmentation charge: PSQ
     Using radial grid of 1191 points,  6 beta functions with: 
                l(1) =   0
                l(2) =   0
                l(3) =   1
                l(4) =   1
                l(5) =   2
                l(6) =   2
     Q(r) pseudized with 0 coefficients 


     PseudoPot. # 2 for Fe read from file:
     /rds/homes/b/bxp912/pp/Fe.pbe-spn-kjpaw_psl.1.0.0.UPF
     MD5 check sum: 42f43b795421b414b0dc916aa790dbcb
     Pseudo is Projector augmented-wave + core cor, Zval = 16.0
     Generated using &quot;atomic&quot; code by A. Dal Corso  v.6.3
     Shape of augmentation charge: PSQ
     Using radial grid of 1191 points,  6 beta functions with: 
                l(1) =   0
                l(2) =   0
                l(3) =   1
                l(4) =   1
                l(5) =   2
                l(6) =   2
     Q(r) pseudized with 0 coefficients 


     atomic species   valence    mass     pseudopotential
        Fe1           16.00    55.84500     Fe( 1.00)
        Fe2           16.00    55.84500     Fe( 1.00)

     Starting magnetic structure 
     atomic species   magnetization
        Fe1          0.100
        Fe2          0.100

     48 Sym. Ops., with inversion, found



   Cartesian axes

     site n.     atom                  positions (alat units)
         1           Fe1 tau(   1) = (   0.0000000   0.0000000   0.0000000  )
         2           Fe2 tau(   2) = (   0.3026316   0.3026316   0.3026316  )
         3           Fe1 tau(   3) = (   0.0000000   0.0000000   0.6052632  )
         4           Fe2 tau(   4) = (   0.3026316   0.3026316   0.9078947  )
         5           Fe1 tau(   5) = (   0.0000000   0.6052632   0.0000000  )
         6           Fe2 tau(   6) = (   0.3026316   0.9078947   0.3026316  )
         7           Fe1 tau(   7) = (   0.0000000   0.6052632   0.6052632  )
         8           Fe2 tau(   8) = (   0.3026316   0.9078947   0.9078947  )
         9           Fe1 tau(   9) = (   0.6052632   0.0000000   0.0000000  )
        10           Fe2 tau(  10) = (   0.9078947   0.3026316   0.3026316  )
        11           Fe1 tau(  11) = (   0.6052632   0.0000000   0.6052632  )
        12           Fe2 tau(  12) = (   0.9078947   0.3026316   0.9078947  )
        13           Fe1 tau(  13) = (   0.6052632   0.6052632   0.0000000  )
        14           Fe2 tau(  14) = (   0.9078947   0.9078947   0.3026316  )
        15           Fe1 tau(  15) = (   0.6052632   0.6052632   0.6052632  )
        16           Fe2 tau(  16) = (   0.9078947   0.9078947   0.9078947  )

     number of k points=    35  Marzari-Vanderbilt smearing, width (Ry)=  0.0400
                       cart. coord. in units 2pi/alat
        k(    1) = (   0.0458937   0.0458937   0.0458937), wk =   0.0109739
        k(    2) = (   0.0458937   0.0458937   0.1376812), wk =   0.0329218
        k(    3) = (   0.0458937   0.0458937   0.2294686), wk =   0.0329218
        k(    4) = (   0.0458937   0.0458937   0.3212560), wk =   0.0329218
        k(    5) = (   0.0458937   0.0458937  -0.4130435), wk =   0.0164609
        k(    6) = (   0.0458937   0.1376812   0.1376812), wk =   0.0329218
        k(    7) = (   0.0458937   0.1376812   0.2294686), wk =   0.0658436
        k(    8) = (   0.0458937   0.1376812   0.3212560), wk =   0.0658436
        k(    9) = (   0.0458937   0.1376812  -0.4130435), wk =   0.0329218
        k(   10) = (   0.0458937   0.2294686   0.2294686), wk =   0.0329218
        k(   11) = (   0.0458937   0.2294686   0.3212560), wk =   0.0658436
        k(   12) = (   0.0458937   0.2294686  -0.4130435), wk =   0.0329218
        k(   13) = (   0.0458937   0.3212560   0.3212560), wk =   0.0329218
        k(   14) = (   0.0458937   0.3212560  -0.4130435), wk =   0.0329218
        k(   15) = (   0.0458937  -0.4130435  -0.4130435), wk =   0.0082305
        k(   16) = (   0.1376812   0.1376812   0.1376812), wk =   0.0109739
        k(   17) = (   0.1376812   0.1376812   0.2294686), wk =   0.0329218
        k(   18) = (   0.1376812   0.1376812   0.3212560), wk =   0.0329218
        k(   19) = (   0.1376812   0.1376812  -0.4130435), wk =   0.0164609
        k(   20) = (   0.1376812   0.2294686   0.2294686), wk =   0.0329218
        k(   21) = (   0.1376812   0.2294686   0.3212560), wk =   0.0658436
        k(   22) = (   0.1376812   0.2294686  -0.4130435), wk =   0.0329218
        k(   23) = (   0.1376812   0.3212560   0.3212560), wk =   0.0329218
        k(   24) = (   0.1376812   0.3212560  -0.4130435), wk =   0.0329218
        k(   25) = (   0.1376812  -0.4130435  -0.4130435), wk =   0.0082305
        k(   26) = (   0.2294686   0.2294686   0.2294686), wk =   0.0109739
        k(   27) = (   0.2294686   0.2294686   0.3212560), wk =   0.0329218
        k(   28) = (   0.2294686   0.2294686  -0.4130435), wk =   0.0164609
        k(   29) = (   0.2294686   0.3212560   0.3212560), wk =   0.0329218
        k(   30) = (   0.2294686   0.3212560  -0.4130435), wk =   0.0329218
        k(   31) = (   0.2294686  -0.4130435  -0.4130435), wk =   0.0082305
        k(   32) = (   0.3212560   0.3212560   0.3212560), wk =   0.0109739
        k(   33) = (   0.3212560   0.3212560  -0.4130435), wk =   0.0164609
        k(   34) = (   0.3212560  -0.4130435  -0.4130435), wk =   0.0082305
        k(   35) = (  -0.4130435  -0.4130435  -0.4130435), wk =   0.0013717

     Dense  grid:   288971 G-vectors     FFT dimensions: (  90,  90,  90)

     Smooth grid:   155331 G-vectors     FFT dimensions: (  72,  72,  72)

     Estimated max dynamical RAM per process >      67.48 MB

     Estimated total dynamical RAM >       4.74 GB

     Check: negative core charge=   -0.000004
     Generating pointlists ...
     new r_m :   0.2162 (alat units)  2.2204 (a.u.) for type    1
     new r_m :   0.2162 (alat units)  2.2204 (a.u.) for type    2

     Initial potential from superposition of free atoms

     starting charge  255.99300, renormalised to  256.00000
     Starting wfcs are  160 randomized atomic wfcs
     Checking if some PAW data can be deallocated... 

     total cpu time spent up to now is        9.9 secs

     Self-consistent Calculation

     iteration #  1     ecut=    71.00 Ry     beta= 0.10
     Davidson diagonalization with overlap
     ethr =  1.00E-02,  avg # of iterations =  3.7

     Threshold (ethr) on eigenvalues was too large:
     Diagonalizing with lowered threshold

     Davidson diagonalization with overlap
     ethr =  4.49E-04,  avg # of iterations =  4.9

     total cpu time spent up to now is       50.5 secs

     total energy              =   -5266.57055744 Ry
     estimated scf accuracy    <       0.77110620 Ry

     total magnetization       =    40.71 Bohr mag/cell
     absolute magnetization    =    40.84 Bohr mag/cell

     iteration #  2     ecut=    71.00 Ry     beta= 0.10
     Davidson diagonalization with overlap
     ethr =  3.01E-04,  avg # of iterations =  1.5

     total cpu time spent up to now is       67.0 secs

     total energy              =   -5266.86378057 Ry
     estimated scf accuracy    <       0.68833545 Ry

     total magnetization       =    42.25 Bohr mag/cell
     absolute magnetization    =    42.44 Bohr mag/cell

     iteration #  3     ecut=    71.00 Ry     beta= 0.10
     Davidson diagonalization with overlap
     ethr =  2.69E-04,  avg # of iterations =  2.8

     negative rho (up, down):  0.000E+00 9.697E-04

     total cpu time spent up to now is       85.4 secs

     total energy              =   -5267.16389077 Ry
     estimated scf accuracy    <       0.34047211 Ry

     total magnetization       =    46.58 Bohr mag/cell
     absolute magnetization    =    47.33 Bohr mag/cell

     iteration #  4     ecut=    71.00 Ry     beta= 0.10
     Davidson diagonalization with overlap
     ethr =  1.33E-04,  avg # of iterations =  3.2

     negative rho (up, down):  0.000E+00 2.227E-04

     total cpu time spent up to now is      104.8 secs

     total energy              =   -5267.12925997 Ry
     estimated scf accuracy    <       0.13824413 Ry

     total magnetization       =    47.02 Bohr mag/cell
     absolute magnetization    =    48.91 Bohr mag/cell

     iteration #  5     ecut=    71.00 Ry     beta= 0.10
     Davidson diagonalization with overlap
     ethr =  5.40E-05,  avg # of iterations =  4.5

     negative rho (up, down):  0.000E+00 2.035E-03

     total cpu time spent up to now is      126.7 secs

     total energy              =   -5267.22787097 Ry
     estimated scf accuracy    <       0.12305491 Ry

     total magnetization       =    46.39 Bohr mag/cell
     absolute magnetization    =    48.14 Bohr mag/cell

     iteration #  6     ecut=    71.00 Ry     beta= 0.10
     Davidson diagonalization with overlap
     ethr =  4.81E-05,  avg # of iterations =  4.1

     negative rho (up, down):  0.000E+00 2.388E-03

     total cpu time spent up to now is      147.6 secs

     total energy              =   -5267.24490087 Ry
     estimated scf accuracy    <       0.01082625 Ry

     total magnetization       =    46.96 Bohr mag/cell
     absolute magnetization    =    49.68 Bohr mag/cell

     iteration #  7     ecut=    71.00 Ry     beta= 0.10
     Davidson diagonalization with overlap
     ethr =  4.23E-06,  avg # of iterations =  4.4

     negative rho (up, down):  0.000E+00 2.629E-03

     total cpu time spent up to now is      171.2 secs

     total energy              =   -5267.24538729 Ry
     estimated scf accuracy    <       0.01006743 Ry

     total magnetization       =    47.21 Bohr mag/cell
     absolute magnetization    =    50.37 Bohr mag/cell

     iteration #  8     ecut=    71.00 Ry     beta= 0.10
     Davidson diagonalization with overlap
     ethr =  3.93E-06,  avg # of iterations =  3.9

     negative rho (up, down):  0.000E+00 2.361E-03

     total cpu time spent up to now is      195.2 secs

     total energy              =   -5267.25224710 Ry
     estimated scf accuracy    <       0.01320629 Ry

     total magnetization       =    46.95 Bohr mag/cell
     absolute magnetization    =    50.88 Bohr mag/cell

     iteration #  9     ecut=    71.00 Ry     beta= 0.10
     Davidson diagonalization with overlap
     ethr =  3.93E-06,  avg # of iterations =  2.5

     negative rho (up, down):  0.000E+00 2.342E-03

     total cpu time spent up to now is      215.1 secs

     total energy              =   -5267.25365594 Ry
     estimated scf accuracy    <       0.00051590 Ry

     total magnetization       =    46.84 Bohr mag/cell
     absolute magnetization    =    50.61 Bohr mag/cell

     iteration # 10     ecut=    71.00 Ry     beta= 0.10
     Davidson diagonalization with overlap
     ethr =  2.02E-07,  avg # of iterations =  5.1

     negative rho (up, down):  0.000E+00 2.352E-03

     total cpu time spent up to now is      241.5 secs

     total energy              =   -5267.25393489 Ry
     estimated scf accuracy    <       0.00042739 Ry

     total magnetization       =    46.86 Bohr mag/cell
     absolute magnetization    =    50.59 Bohr mag/cell

     iteration # 11     ecut=    71.00 Ry     beta= 0.10
     Davidson diagonalization with overlap
     ethr =  1.67E-07,  avg # of iterations =  2.4

     negative rho (up, down):  0.000E+00 2.399E-03

     total cpu time spent up to now is      259.8 secs

     total energy              =   -5267.25396652 Ry
     estimated scf accuracy    <       0.00008150 Ry

     total magnetization       =    46.85 Bohr mag/cell
     absolute magnetization    =    50.59 Bohr mag/cell

     iteration # 12     ecut=    71.00 Ry     beta= 0.10
     Davidson diagonalization with overlap
     ethr =  3.18E-08,  avg # of iterations =  5.5

     negative rho (up, down):  0.000E+00 2.379E-03

     total cpu time spent up to now is      285.9 secs

     total energy              =   -5267.25408965 Ry
     estimated scf accuracy    <       0.00007699 Ry

     total magnetization       =    46.79 Bohr mag/cell
     absolute magnetization    =    50.70 Bohr mag/cell

     iteration # 13     ecut=    71.00 Ry     beta= 0.10
     Davidson diagonalization with overlap
     ethr =  3.01E-08,  avg # of iterations =  4.4

     negative rho (up, down):  0.000E+00 2.384E-03

     total cpu time spent up to now is      309.7 secs

     total energy              =   -5267.25412312 Ry
     estimated scf accuracy    <       0.00004149 Ry

     total magnetization       =    46.81 Bohr mag/cell
     absolute magnetization    =    50.64 Bohr mag/cell

     iteration # 14     ecut=    71.00 Ry     beta= 0.10
     Davidson diagonalization with overlap
     ethr =  1.62E-08,  avg # of iterations =  3.0

     negative rho (up, down):  0.000E+00 2.383E-03

     total cpu time spent up to now is      328.4 secs

     total energy              =   -5267.25412419 Ry
     estimated scf accuracy    <       0.00002389 Ry

     total magnetization       =    46.79 Bohr mag/cell
     absolute magnetization    =    50.66 Bohr mag/cell

     iteration # 15     ecut=    71.00 Ry     beta= 0.10
     Davidson diagonalization with overlap
     ethr =  9.33E-09,  avg # of iterations =  3.0

     negative rho (up, down):  0.000E+00 2.385E-03

     total cpu time spent up to now is      347.7 secs

     total energy              =   -5267.25412823 Ry
     estimated scf accuracy    <       0.00000236 Ry

     total magnetization       =    46.79 Bohr mag/cell
     absolute magnetization    =    50.66 Bohr mag/cell

     iteration # 16     ecut=    71.00 Ry     beta= 0.10
     Davidson diagonalization with overlap
     ethr =  9.21E-10,  avg # of iterations =  4.2

     negative rho (up, down):  0.000E+00 2.385E-03

     total cpu time spent up to now is      368.5 secs

     total energy              =   -5267.25413010 Ry
     estimated scf accuracy    <       0.00000044 Ry

     total magnetization       =    46.80 Bohr mag/cell
     absolute magnetization    =    50.67 Bohr mag/cell

     iteration # 17     ecut=    71.00 Ry     beta= 0.10
     Davidson diagonalization with overlap
     ethr =  1.71E-10,  avg # of iterations =  4.3

     negative rho (up, down):  0.000E+00 2.386E-03

     total cpu time spent up to now is      389.8 secs

     total energy              =   -5267.25413144 Ry
     estimated scf accuracy    <       0.00000012 Ry

     total magnetization       =    46.80 Bohr mag/cell
     absolute magnetization    =    50.67 Bohr mag/cell

     iteration # 18     ecut=    71.00 Ry     beta= 0.10
     Davidson diagonalization with overlap
     ethr =  4.80E-11,  avg # of iterations =  4.7

     negative rho (up, down):  0.000E+00 2.387E-03
 
     Magnetic moment per site:
     atom:    1    charge:   14.7141    magn:    3.0402    constr:    0.0000
     atom:    2    charge:   14.7143    magn:    3.0403    constr:    0.0000
     atom:    3    charge:   14.7141    magn:    3.0403    constr:    0.0000
     atom:    4    charge:   14.7143    magn:    3.0403    constr:    0.0000
     atom:    5    charge:   14.7141    magn:    3.0403    constr:    0.0000
     atom:    6    charge:   14.7143    magn:    3.0403    constr:    0.0000
     atom:    7    charge:   14.7141    magn:    3.0403    constr:    0.0000
     atom:    8    charge:   14.7143    magn:    3.0403    constr:    0.0000
     atom:    9    charge:   14.7141    magn:    3.0403    constr:    0.0000
     atom:   10    charge:   14.7143    magn:    3.0403    constr:    0.0000
     atom:   11    charge:   14.7141    magn:    3.0403    constr:    0.0000
     atom:   12    charge:   14.7143    magn:    3.0403    constr:    0.0000
     atom:   13    charge:   14.7141    magn:    3.0403    constr:    0.0000
     atom:   14    charge:   14.7143    magn:    3.0403    constr:    0.0000
     atom:   15    charge:   14.7141    magn:    3.0402    constr:    0.0000
     atom:   16    charge:   14.7143    magn:    3.0403    constr:    0.0000

     total cpu time spent up to now is      412.7 secs

     End of self-consistent calculation

 ------ SPIN UP ------------


          k = 0.0459 0.0459 0.0459 ( 19414 PWs)   bands (ev):

   -78.0107 -78.0021 -78.0021 -78.0021 -78.0010 -78.0010 -78.0010 -78.0009
   -78.0009 -78.0008 -78.0006 -78.0006 -78.0005 -78.0005 -78.0004 -77.9931
   -44.0712 -44.0712 -44.0712 -44.0708 -44.0708 -44.0708 -44.0543 -44.0543
   -44.0529 -44.0384 -44.0372 -44.0372 -44.0372 -44.0351 -44.0351 -44.0324
   -44.0323 -44.0323 -44.0282 -44.0282 -44.0255 -44.0255 -44.0255 -44.0245
   -44.0235 -44.0235 -44.0235 -44.0229 -44.0229 -44.0229 -44.0225 -44.0225
   -44.0224 -44.0203 -44.0203 -44.0203 -44.0184 -44.0184 -44.0184 -43.9951
   -43.9938 -43.9938 -43.9935 -43.9935 -43.9935 -43.9931 -43.9931 -43.9931
     4.0247   6.7158   6.7158   6.7158   6.8077   6.8077   6.8077   6.8217
     6.8217   6.8217   6.9725   6.9725   7.0426   7.0426   7.0426   7.6148
     7.6148   7.6148   7.6212   7.6212   7.6212   7.6612   7.7092   7.7092
     7.7894   7.7894   7.7894   7.7920   7.7920   7.8246   7.9390   7.9390
     7.9390   8.1180   8.1180   8.1369   8.3108   8.3108   8.3108   8.3484
     8.3485   8.3485   8.3956   8.3956   8.3956   8.4341   8.4341   8.4341
     8.7016   8.7016   8.7016   8.7261   8.7261   8.7372   8.7372   8.7372
     8.7410   8.7410   8.7410   8.7597   8.7597   8.7597   8.7981   8.7981
     8.7981   8.8056   8.8056   8.8056   8.8130   8.8130   8.8136   8.8136
     9.2903   9.3179   9.3179   9.3286   9.3286   9.3286   9.4095   9.4095
     9.4095   9.4246   9.4247   9.4247   9.7499   9.7499   9.7499  10.7643
    10.7643  10.7644

          k = 0.0459 0.0459 0.1377 ( 19445 PWs)   bands (ev):

   -78.0105 -78.0037 -78.0021 -78.0021 -78.0012 -78.0011 -78.0010 -78.0008
   -78.0008 -78.0007 -78.0006 -78.0006 -78.0005 -78.0004 -77.9991 -77.9933
   -44.0702 -44.0702 -44.0700 -44.0696 -44.0688 -44.0688 -44.0542 -44.0531
   -44.0514 -44.0432 -44.0423 -44.0423 -44.0418 -44.0417 -44.0375 -44.0375
   -44.0328 -44.0308 -44.0289 -44.0287 -44.0267 -44.0256 -44.0256 -44.0235
   -44.0234 -44.0234 -44.0229 -44.0220 -44.0220 -44.0213 -44.0205 -44.0205
   -44.0195 -44.0192 -44.0192 -44.0153 -44.0143 -44.0143 -44.0137 -43.9972
   -43.9951 -43.9950 -43.9950 -43.9947 -43.9944 -43.9942 -43.9936 -43.9936
     4.1161   6.2769   6.7509   6.7509   6.8110   6.8110   6.8539   6.8539
     6.8583   6.8712   7.0001   7.0013   7.0636   7.0636   7.2227   7.6015
     7.6109   7.6167   7.6358   7.6358   7.6383   7.6526   7.6549   7.6549
     7.6756   7.7323   7.7802   7.7803   7.9039   7.9047   7.9138   7.9138
     8.0766   8.1094   8.1182   8.1642   8.2187   8.2187   8.2414   8.2894
     8.2984   8.2984   8.4077   8.4077   8.4666   8.4666   8.4970   8.5399
     8.5991   8.6432   8.6432   8.7018   8.7101   8.7101   8.7232   8.7232
     8.7359   8.7434   8.7465   8.7537   8.7686   8.7686   8.7971   8.7971
     8.7990   8.8114   8.8122   8.8126   8.8138   8.8976   8.8976   8.9078
     9.0847   9.2095   9.2294   9.2475   9.2713   9.3147   9.3564   9.3564
     9.3709   9.3709   9.4140   9.4140   9.8083   9.8084  10.3795  10.4237
    10.4237  10.9730

          k = 0.0459 0.0459 0.2295 ( 19444 PWs)   bands (ev):

   -78.0099 -78.0052 -78.0020 -78.0020 -78.0013 -78.0013 -78.0009 -78.0008
   -78.0007 -78.0006 -78.0006 -78.0006 -78.0005 -78.0005 -77.9977 -77.9938
   -44.0678 -44.0678 -44.0676 -44.0672 -44.0657 -44.0656 -44.0537 -44.0512
   -44.0492 -44.0490 -44.0483 -44.0483 -44.0482 -44.0456 -44.0438 -44.0438
   -44.0359 -44.0336 -44.0310 -44.0287 -44.0255 -44.0255 -44.0245 -44.0238
   -44.0238 -44.0238 -44.0216 -44.0216 -44.0209 -44.0206 -44.0206 -44.0150
   -44.0139 -44.0139 -44.0138 -44.0107 -44.0094 -44.0094 -44.0091 -43.9999
   -43.9971 -43.9971 -43.9968 -43.9967 -43.9965 -43.9957 -43.9949 -43.9949
     4.2974   5.7955   6.8039   6.8040   6.8272   6.8272   6.9026   6.9026
     6.9552   6.9661   7.0543   7.0546   7.0825   7.0825   7.2799   7.4923
     7.5286   7.5643   7.6043   7.6095   7.6174   7.6554   7.6834   7.6834
     7.7150   7.7150   7.7999   7.7999   7.9121   7.9122   8.0413   8.0467
     8.0971   8.0972   8.1070   8.1208   8.1588   8.1685   8.1686   8.1875
     8.2054   8.2946   8.4697   8.4697   8.4965   8.4966   8.5009   8.5190
     8.5190   8.5751   8.5751   8.6150   8.6541   8.6622   8.6984   8.6984
     8.7289   8.7385   8.7385   8.7550   8.7555   8.7565   8.8007   8.8065
     8.8080   8.8104   8.8142   8.9182   8.9182   8.9414   8.9508   9.0055
     9.0155   9.0155   9.0168   9.1358   9.1843   9.2869   9.3119   9.3119
     9.3775   9.3776   9.4157   9.4157   9.9224   9.9225  10.0968  10.0968
    10.7825  10.7826

          k = 0.0459 0.0459 0.3213 ( 19401 PWs)   bands (ev):

   -78.0090 -78.0066 -78.0019 -78.0018 -78.0015 -78.0015 -78.0008 -78.0007
   -78.0006 -78.0006 -78.0006 -78.0006 -78.0006 -78.0005 -77.9965 -77.9945
   -44.0642 -44.0642 -44.0640 -44.0638 -44.0614 -44.0614 -44.0545 -44.0542
   -44.0542 -44.0540 -44.0527 -44.0499 -44.0499 -44.0486 -44.0483 -44.0462
   -44.0407 -44.0384 -44.0292 -44.0277 -44.0257 -44.0251 -44.0251 -44.0249
   -44.0242 -44.0241 -44.0213 -44.0213 -44.0206 -44.0206 -44.0148 -44.0091
   -44.0087 -44.0087 -44.0084 -44.0063 -44.0047 -44.0045 -44.0044 -44.0043
   -44.0001 -44.0001 -43.9998 -43.9997 -43.9992 -43.9980 -43.9973 -43.9973
     4.5650   5.3292   6.8467   6.8467   6.8480   6.8480   6.9628   6.9628
     7.0704   7.0704   7.0896   7.0971   7.1242   7.1340   7.2592   7.3566
     7.4049   7.4134   7.5977   7.5997   7.6027   7.6129   7.7553   7.7553
     7.7987   7.7987   7.8842   7.8843   7.9382   7.9382   8.0201   8.0202
     8.0420   8.0420   8.1117   8.1268   8.1495   8.1548   8.2172   8.2208
     8.2605   8.2649   8.2649   8.3671   8.3672   8.3898   8.4100   8.5740
     8.5740   8.5829   8.5829   8.5840   8.6214   8.6653   8.6653   8.6716
     8.7041   8.7041   8.7462   8.7699   8.7720   8.7833   8.7961   8.7976
     8.7987   8.8030   8.8083   8.8165   8.8642   8.8727   9.0169   9.0365
     9.0365   9.0680   9.0952   9.1306   9.1306   9.2352   9.2352   9.2389
     9.3163   9.3163   9.5114   9.5114   9.8391   9.8391  10.0868  10.0868
    10.5344  10.5344

          k = 0.0459 0.0459-0.4130 ( 19418 PWs)   bands (ev):

   -78.0079 -78.0079 -78.0017 -78.0017 -78.0017 -78.0017 -78.0007 -78.0007
   -78.0006 -78.0006 -78.0006 -78.0006 -78.0006 -78.0006 -77.9954 -77.9954
   -44.0598 -44.0598 -44.0597 -44.0597 -44.0595 -44.0595 -44.0594 -44.0594
   -44.0560 -44.0560 -44.0560 -44.0560 -44.0512 -44.0511 -44.0448 -44.0447
   -44.0427 -44.0427 -44.0275 -44.0275 -44.0264 -44.0263 -44.0247 -44.0247
   -44.0247 -44.0247 -44.0209 -44.0209 -44.0209 -44.0209 -44.0089 -44.0089
   -44.0043 -44.0043 -44.0043 -44.0043 -44.0039 -44.0039 -44.0038 -44.0038
   -44.0024 -44.0024 -44.0010 -44.0010 -44.0005 -44.0005 -44.0004 -44.0004
     4.9126   4.9126   6.8598   6.8598   6.8598   6.8598   7.0244   7.0244
     7.0244   7.0244   7.1983   7.1983   7.2359   7.2359   7.2481   7.2482
     7.2501   7.2501   7.5948   7.5948   7.6011   7.6011   7.8475   7.8475
     7.8475   7.8475   7.8982   7.8982   7.8983   7.8983   8.0676   8.0676
     8.0676   8.0676   8.1251   8.1251   8.1382   8.1382   8.1562   8.1562
     8.1562   8.1562   8.3291   8.3291   8.4211   8.4211   8.4287   8.4287
     8.4941   8.4941   8.6235   8.6235   8.6235   8.6235   8.6532   8.6532
     8.6532   8.6532   8.7850   8.7850   8.7852   8.7853   8.8057   8.8057
     8.8214   8.8214   8.8253   8.8253   8.8834   8.8834   8.9347   8.9347
     9.1428   9.1428   9.1429   9.1429   9.1739   9.1739   9.2327   9.2327
     9.2327   9.2327   9.6492   9.6492   9.6493   9.6493  10.2942  10.2942
    10.2942  10.2942

          k = 0.0459 0.1377 0.1377 ( 19430 PWs)   bands (ev):

   -78.0101 -78.0036 -78.0036 -78.0021 -78.0016 -78.0011 -78.0011 -78.0007
   -78.0007 -78.0006 -78.0005 -78.0004 -78.0004 -77.9991 -77.9991 -77.9935
   -44.0702 -44.0690 -44.0690 -44.0678 -44.0678 -44.0661 -44.0548 -44.0524
   -44.0489 -44.0466 -44.0465 -44.0464 -44.0452 -44.0438 -44.0406 -44.0343
   -44.0318 -44.0318 -44.0307 -44.0307 -44.0276 -44.0264 -44.0247 -44.0240
   -44.0240 -44.0240 -44.0240 -44.0225 -44.0225 -44.0210 -44.0207 -44.0187
   -44.0160 -44.0157 -44.0156 -44.0155 -44.0116 -44.0097 -44.0097 -43.9997
   -43.9971 -43.9958 -43.9958 -43.9957 -43.9946 -43.9945 -43.9939 -43.9931
     4.2069   6.3299   6.3300   6.7775   6.7891   6.8629   6.8629   6.9029
     6.9029   6.9099   7.0266   7.0306   7.0900   7.2400   7.2400   7.5471
     7.6054   7.6308   7.6308   7.6406   7.6406   7.6439   7.6482   7.6482
     7.7003   7.7010   7.7604   7.7696   7.8780   7.9088   7.9125   8.0268
     8.0268   8.0860   8.1151   8.1552   8.1552   8.1934   8.2089   8.2519
     8.3725   8.3726   8.3937   8.3937   8.4228   8.4842   8.5078   8.5469
     8.5469   8.6290   8.6290   8.6888   8.6968   8.6968   8.6979   8.7109
     8.7109   8.7175   8.7290   8.7294   8.7294   8.7650   8.7650   8.7921
     8.8083   8.8117   8.8119   8.8166   8.8569   8.9441   8.9958   8.9958
     9.0888   9.0888   9.1464   9.1699   9.1699   9.2359   9.2646   9.2646
     9.2930   9.3258   9.4055   9.4270   9.8830   9.9052  10.4627  10.4627
    10.7029  10.7029

          k = 0.0459 0.1377 0.2295 ( 19426 PWs)   bands (ev):

   -78.0096 -78.0051 -78.0034 -78.0020 -78.0020 -78.0013 -78.0010 -78.0007
   -78.0006 -78.0006 -78.0006 -78.0005 -78.0001 -77.9992 -77.9978 -77.9940
   -44.0686 -44.0669 -44.0667 -44.0657 -44.0648 -44.0622 -44.0554 -44.0520
   -44.0506 -44.0505 -44.0499 -44.0496 -44.0488 -44.0459 -44.0455 -44.0384
   -44.0357 -44.0330 -44.0303 -44.0289 -44.0273 -44.0264 -44.0261 -44.0258
   -44.0252 -44.0246 -44.0233 -44.0221 -44.0213 -44.0194 -44.0185 -44.0159
   -44.0137 -44.0116 -44.0116 -44.0109 -44.0077 -44.0052 -44.0050 -44.0035
   -44.0002 -43.9978 -43.9975 -43.9974 -43.9966 -43.9958 -43.9944 -43.9936
     4.3868   5.8629   6.4239   6.7454   6.8479   6.8805   6.9512   6.9621
     6.9791   6.9959   7.0770   7.0862   7.1185   7.2450   7.2998   7.4898
     7.5033   7.5392   7.6226   7.6374   7.6588   7.6753   7.6777   7.6783
     7.7030   7.7136   7.7597   7.7727   7.8545   7.9939   7.9952   8.0128
     8.0540   8.0665   8.0880   8.1142   8.1160   8.1167   8.1631   8.2586
     8.2665   8.3325   8.3822   8.4520   8.4802   8.4923   8.5051   8.5301
     8.5560   8.5566   8.5849   8.5978   8.6444   8.6507   8.6558   8.6613
     8.6861   8.7059   8.7364   8.7422   8.7435   8.7587   8.7676   8.8019
     8.8067   8.8121   8.8202   8.8221   8.9298   8.9438   8.9464   9.0133
     9.0355   9.0745   9.0880   9.1006   9.1073   9.1354   9.1507   9.1826
     9.2533   9.3196   9.4117   9.5049   9.5348  10.0233  10.3622  10.6193
    10.9995  11.1057

          k = 0.0459 0.1377 0.3213 ( 19393 PWs)   bands (ev):

   -78.0087 -78.0064 -78.0032 -78.0024 -78.0018 -78.0015 -78.0009 -78.0007
   -78.0006 -78.0006 -78.0006 -78.0005 -77.9998 -77.9993 -77.9966 -77.9947
   -44.0660 -44.0635 -44.0633 -44.0627 -44.0609 -44.0573 -44.0571 -44.0552
   -44.0549 -44.0546 -44.0541 -44.0525 -44.0507 -44.0478 -44.0451 -44.0423
   -44.0403 -44.0338 -44.0310 -44.0294 -44.0273 -44.0268 -44.0266 -44.0263
   -44.0252 -44.0243 -44.0217 -44.0214 -44.0196 -44.0182 -44.0165 -44.0131
   -44.0084 -44.0084 -44.0076 -44.0071 -44.0066 -44.0038 -44.0038 -44.0012
   -44.0007 -44.0004 -44.0000 -43.9998 -43.9997 -43.9978 -43.9959 -43.9950
     4.6520   5.4062   6.5347   6.7022   6.8971   6.9025   7.0112   7.0581
     7.0992   7.1147   7.1230   7.1465   7.1635   7.2086   7.2819   7.3747
     7.3996   7.4182   7.6140   7.6203   7.6275   7.6515   7.7373   7.7400
     7.7746   7.7806   7.8103   7.8567   7.8667   7.9143   8.0565   8.0631
     8.0719   8.0724   8.0755   8.1154   8.1205   8.1221   8.1395   8.1473
     8.1611   8.2543   8.3351   8.3423   8.4378   8.4434   8.4836   8.5026
     8.5435   8.5729   8.5753   8.5829   8.5840   8.6008   8.6241   8.6319
     8.6740   8.7008   8.7282   8.7601   8.7644   8.7716   8.7735   8.7914
     8.7956   8.8135   8.8345   8.8408   8.8625   8.9063   8.9330   8.9354
     8.9944   9.0359   9.0878   9.0879   9.0965   9.1317   9.1702   9.2134
     9.2158   9.2898   9.3300   9.3697   9.6516  10.0744  10.2169  10.7216
    10.8333  11.3307

          k = 0.0459 0.1377-0.4130 ( 19416 PWs)   bands (ev):

   -78.0077 -78.0076 -78.0028 -78.0028 -78.0016 -78.0016 -78.0008 -78.0008
   -78.0006 -78.0006 -78.0005 -78.0005 -77.9995 -77.9995 -77.9956 -77.9955
   -44.0622 -44.0622 -44.0594 -44.0594 -44.0592 -44.0591 -44.0591 -44.0591
   -44.0560 -44.0560 -44.0543 -44.0543 -44.0514 -44.0514 -44.0444 -44.0444
   -44.0385 -44.0385 -44.0290 -44.0289 -44.0284 -44.0284 -44.0258 -44.0258
   -44.0256 -44.0256 -44.0216 -44.0215 -44.0173 -44.0173 -44.0134 -44.0134
   -44.0082 -44.0082 -44.0038 -44.0038 -44.0038 -44.0038 -44.0033 -44.0033
   -44.0029 -44.0029 -44.0005 -44.0005 -43.9981 -43.9981 -43.9975 -43.9975
     4.9957   4.9957   6.6332   6.6332   6.9139   6.9139   7.0720   7.0720
     7.1392   7.1392   7.2216   7.2216   7.2589   7.2589   7.2600   7.2600
     7.2667   7.2667   7.6104   7.6104   7.6271   7.6271   7.8138   7.8138
     7.8177   7.8177   7.8373   7.8373   7.9280   7.9280   8.0032   8.0032
     8.0579   8.0579   8.0911   8.0911   8.1194   8.1194   8.1481   8.1481
     8.2140   8.2141   8.3283   8.3283   8.3372   8.3372   8.4142   8.4142
     8.5247   8.5247   8.5958   8.5958   8.6332   8.6332   8.6473   8.6473
     8.6678   8.6678   8.7684   8.7684   8.7778   8.7778   8.7791   8.7791
     8.8103   8.8104   8.8187   8.8187   8.8634   8.8634   8.9057   8.9057
     9.0201   9.0201   9.0495   9.0495   9.1581   9.1581   9.2049   9.2049
     9.2388   9.2388   9.3025   9.3025   9.8407   9.8407  10.4532  10.4532
    11.0833  11.0833

          k = 0.0459 0.2295 0.2295 ( 19385 PWs)   bands (ev):

   -78.0090 -78.0048 -78.0048 -78.0026 -78.0019 -78.0012 -78.0012 -78.0007
   -78.0006 -78.0006 -78.0006 -78.0004 -77.9995 -77.9980 -77.9979 -77.9944
   -44.0679 -44.0649 -44.0649 -44.0633 -44.0633 -44.0575 -44.0567 -44.0548
   -44.0548 -44.0527 -44.0520 -44.0512 -44.0489 -44.0483 -44.0420 -44.0349
   -44.0348 -44.0331 -44.0323 -44.0323 -44.0280 -44.0274 -44.0264 -44.0261
   -44.0261 -44.0233 -44.0233 -44.0229 -44.0229 -44.0219 -44.0173 -44.0115
   -44.0115 -44.0103 -44.0089 -44.0085 -44.0083 -44.0054 -44.0037 -44.0011
   -44.0011 -43.9989 -43.9989 -43.9988 -43.9975 -43.9975 -43.9936 -43.9932
     4.5636   5.9898   5.9899   6.6450   6.9192   6.9820   6.9820   7.0428
     7.0428   7.0588   7.1200   7.1463   7.1679   7.3065   7.3065   7.4540
     7.4934   7.5549   7.5549   7.6619   7.6619   7.6838   7.6838   7.6893
     7.6990   7.7231   7.7354   7.8036   7.8553   7.9712   7.9934   7.9934
     8.0023   8.0270   8.0775   8.0775   8.0937   8.1082   8.1280   8.1700
     8.3429   8.3660   8.3661   8.4051   8.4051   8.4825   8.4825   8.4898
     8.4898   8.5236   8.5625   8.6193   8.6226   8.6226   8.6423   8.6597
     8.7213   8.7213   8.7216   8.7216   8.7349   8.7365   8.7365   8.7813
     8.7926   8.8006   8.8179   8.8346   8.9035   8.9090   8.9308   8.9308
     8.9440   8.9687   8.9688   9.0196   9.0677   9.0958   9.0959   9.1894
     9.1894   9.2573   9.3401   9.4187   9.6626  10.2025  10.7282  10.7283
    11.3491  11.3491

          k = 0.0459 0.2295 0.3213 ( 19385 PWs)   bands (ev):

   -78.0082 -78.0061 -78.0044 -78.0033 -78.0017 -78.0014 -78.0011 -78.0008
   -78.0006 -78.0006 -78.0005 -78.0004 -77.9989 -77.9982 -77.9968 -77.9950
   -44.0662 -44.0621 -44.0620 -44.0611 -44.0601 -44.0595 -44.0576 -44.0566
   -44.0556 -44.0552 -44.0547 -44.0521 -44.0521 -44.0462 -44.0392 -44.0391
   -44.0379 -44.0336 -44.0319 -44.0301 -44.0282 -44.0280 -44.0277 -44.0269
   -44.0260 -44.0260 -44.0240 -44.0228 -44.0222 -44.0180 -44.0156 -44.0135
   -44.0125 -44.0077 -44.0075 -44.0067 -44.0060 -44.0054 -44.0029 -44.0011
   -44.0007 -44.0005 -43.9999 -43.9989 -43.9980 -43.9976 -43.9942 -43.9938
     4.8235   5.5551   6.1592   6.5118   6.9844   7.0047   7.1009   7.1200
     7.1389   7.1649   7.1786   7.1878   7.2289   7.2744   7.2952   7.3971
     7.4103   7.4372   7.6486   7.6626   7.6659   7.6661   7.6943   7.7153
     7.7341   7.7371   7.7439   7.7849   7.8957   7.9560   7.9798   7.9974
     7.9981   8.0488   8.0621   8.0783   8.0812   8.0968   8.1035   8.1035
     8.2216   8.2221   8.2770   8.3178   8.3560   8.4284   8.4324   8.4898
     8.5169   8.5777   8.5849   8.5951   8.5976   8.6088   8.6209   8.6256
     8.6922   8.7009   8.7188   8.7243   8.7431   8.7452   8.7530   8.7693
     8.7784   8.7870   8.8266   8.8377   8.8391   8.8425   8.8558   8.8793
     8.9221   8.9565   8.9570   8.9711   8.9740   9.0390   9.0891   9.1205
     9.2575   9.2809   9.3361   9.3986   9.8677  10.3956  10.4374  11.0250
    11.1403  11.7151

          k = 0.0459 0.2295-0.4130 ( 19406 PWs)   bands (ev):

   -78.0072 -78.0072 -78.0039 -78.0039 -78.0016 -78.0016 -78.0010 -78.0010
   -78.0006 -78.0006 -78.0005 -78.0005 -77.9986 -77.9986 -77.9959 -77.9958
   -44.0634 -44.0634 -44.0588 -44.0587 -44.0585 -44.0585 -44.0585 -44.0585
   -44.0577 -44.0577 -44.0561 -44.0561 -44.0460 -44.0460 -44.0430 -44.0430
   -44.0333 -44.0333 -44.0321 -44.0321 -44.0301 -44.0301 -44.0275 -44.0275
   -44.0252 -44.0252 -44.0225 -44.0225 -44.0194 -44.0194 -44.0140 -44.0139
   -44.0127 -44.0127 -44.0040 -44.0040 -44.0032 -44.0032 -44.0031 -44.0031
   -44.0027 -44.0027 -44.0007 -44.0007 -43.9956 -43.9956 -43.9952 -43.9952
     5.1585   5.1585   6.3436   6.3436   7.0127   7.0127   7.1576   7.1576
     7.2139   7.2139   7.2431   7.2431   7.2743   7.2743   7.2946   7.2946
     7.3274   7.3274   7.6444   7.6444   7.6639   7.6639   7.7635   7.7636
     7.7652   7.7652   7.8106   7.8106   7.8186   7.8186   7.9811   7.9811
     8.0851   8.0851   8.0935   8.0935   8.1010   8.1010   8.1129   8.1129
     8.1930   8.1930   8.1987   8.1987   8.2160   8.2160   8.5213   8.5213
     8.5722   8.5722   8.5872   8.5872   8.6265   8.6265   8.6490   8.6490
     8.6543   8.6543   8.6589   8.6589   8.7611   8.7611   8.7666   8.7666
     8.7897   8.7897   8.8349   8.8349   8.8427   8.8427   8.8625   8.8625
     8.8957   8.8957   8.9680   8.9680   8.9991   8.9991   9.0660   9.0660
     9.3075   9.3075   9.3520   9.3520  10.1113  10.1113  10.7147  10.7147
    11.5858  11.5858

          k = 0.0459 0.3213 0.3213 ( 19387 PWs)   bands (ev):

   -78.0075 -78.0056 -78.0055 -78.0042 -78.0016 -78.0013 -78.0012 -78.0010
   -78.0006 -78.0006 -78.0005 -78.0005 -77.9983 -77.9972 -77.9972 -77.9956
   -44.0653 -44.0605 -44.0604 -44.0602 -44.0602 -44.0594 -44.0589 -44.0589
   -44.0565 -44.0564 -44.0561 -44.0541 -44.0463 -44.0440 -44.0375 -44.0375
   -44.0332 -44.0330 -44.0328 -44.0328 -44.0319 -44.0288 -44.0288 -44.0287
   -44.0254 -44.0237 -44.0237 -44.0230 -44.0229 -44.0229 -44.0194 -44.0130
   -44.0124 -44.0090 -44.0089 -44.0044 -44.0042 -44.0038 -44.0032 -44.0019
   -44.0014 -44.0014 -44.0003 -44.0003 -43.9954 -43.9954 -43.9935 -43.9933
     5.0740   5.7648   5.7648   6.2756   7.0772   7.1394   7.1394   7.2051
     7.2154   7.2154   7.2192   7.2501   7.2845   7.2845   7.3205   7.3718
     7.3817   7.5471   7.5471   7.6871   7.6917   7.6917   7.6962   7.7021
     7.7021   7.7047   7.7421   7.7740   7.8402   7.8953   7.8954   7.9483
     8.0025   8.0365   8.0423   8.0625   8.0716   8.0955   8.1041   8.1041
     8.1606   8.1606   8.1720   8.1720   8.2959   8.3425   8.3425   8.5297
     8.5887   8.5900   8.5900   8.6211   8.6230   8.6383   8.6460   8.6578
     8.6578   8.6905   8.7129   8.7129   8.7183   8.7183   8.7438   8.7438
     8.7439   8.7585   8.7682   8.7708   8.8159   8.8160   8.8428   8.8540
     8.8810   8.9024   8.9025   8.9336   8.9867   8.9867   8.9940   9.0075
     9.3299   9.3299   9.3593   9.4020  10.1275  10.7161  10.7586  10.7586
    11.3944  11.3944

          k = 0.0459 0.3213-0.4130 ( 19368 PWs)   bands (ev):

   -78.0066 -78.0066 -78.0049 -78.0049 -78.0015 -78.0014 -78.0011 -78.0011
   -78.0006 -78.0006 -78.0005 -78.0005 -77.9977 -77.9977 -77.9963 -77.9963
   -44.0634 -44.0634 -44.0604 -44.0604 -44.0583 -44.0583 -44.0579 -44.0579
   -44.0576 -44.0576 -44.0566 -44.0566 -44.0410 -44.0410 -44.0397 -44.0397
   -44.0354 -44.0354 -44.0305 -44.0305 -44.0292 -44.0292 -44.0279 -44.0279
   -44.0261 -44.0261 -44.0247 -44.0247 -44.0235 -44.0235 -44.0176 -44.0176
   -44.0107 -44.0107 -44.0058 -44.0058 -44.0027 -44.0027 -44.0023 -44.0023
   -44.0022 -44.0022 -44.0010 -44.0010 -43.9940 -43.9940 -43.9938 -43.9938
     5.3935   5.3935   6.0151   6.0151   7.1332   7.1332   7.2542   7.2542
     7.2556   7.2556   7.2594   7.2594   7.2763   7.2763   7.3221   7.3221
     7.4294   7.4295   7.6825   7.6825   7.6866   7.6866   7.6902   7.6902
     7.7065   7.7065   7.7235   7.7235   7.8254   7.8254   7.9134   7.9134
     8.0537   8.0537   8.0615   8.0615   8.0686   8.0686   8.0865   8.0865
     8.0962   8.0962   8.1659   8.1659   8.2008   8.2008   8.4780   8.4780
     8.6106   8.6106   8.6175   8.6175   8.6380   8.6380   8.6506   8.6506
     8.6690   8.6690   8.6852   8.6852   8.7347   8.7347   8.7467   8.7467
     8.7486   8.7486   8.7656   8.7656   8.7817   8.7817   8.8650   8.8650
     8.8723   8.8723   8.9178   8.9178   8.9205   8.9205   8.9937   8.9937
     9.3569   9.3569   9.3790   9.3790  10.4233  10.4233  11.0376  11.0376
    11.1550  11.1550

          k = 0.0459-0.4130-0.4130 ( 19408 PWs)   bands (ev):

   -78.0059 -78.0059 -78.0059 -78.0058 -78.0013 -78.0013 -78.0013 -78.0013
   -78.0005 -78.0005 -78.0005 -78.0005 -77.9970 -77.9970 -77.9969 -77.9969
   -44.0626 -44.0626 -44.0625 -44.0625 -44.0579 -44.0579 -44.0579 -44.0578
   -44.0570 -44.0570 -44.0570 -44.0570 -44.0385 -44.0385 -44.0385 -44.0384
   -44.0331 -44.0331 -44.0330 -44.0330 -44.0302 -44.0302 -44.0302 -44.0302
   -44.0242 -44.0242 -44.0242 -44.0242 -44.0230 -44.0230 -44.0229 -44.0229
   -44.0082 -44.0082 -44.0081 -44.0081 -44.0023 -44.0023 -44.0023 -44.0023
   -44.0014 -44.0014 -44.0014 -44.0014 -43.9936 -43.9936 -43.9936 -43.9936
     5.6868   5.6868   5.6868   5.6868   7.2334   7.2334   7.2334   7.2334
     7.2662   7.2662   7.2662   7.2662   7.3194   7.3194   7.3194   7.3194
     7.5528   7.5528   7.5528   7.5528   7.6897   7.6897   7.6897   7.6897
     7.7030   7.7030   7.7030   7.7030   7.8602   7.8602   7.8603   7.8603
     8.0146   8.0146   8.0146   8.0146   8.0473   8.0473   8.0474   8.0474
     8.1168   8.1168   8.1168   8.1168   8.3336   8.3336   8.3336   8.3336
     8.6480   8.6480   8.6480   8.6480   8.6675   8.6675   8.6676   8.6676
     8.7014   8.7014   8.7014   8.7014   8.7185   8.7186   8.7186   8.7186
     8.7534   8.7534   8.7534   8.7534   8.7550   8.7550   8.7550   8.7550
     8.8874   8.8874   8.8874   8.8874   8.9484   8.9484   8.9485   8.9485
     9.3809   9.3809   9.3809   9.3809  10.7700  10.7700  10.7700  10.7700
    11.4046  11.4046

          k = 0.1377 0.1377 0.1377 ( 19405 PWs)   bands (ev):

   -78.0098 -78.0035 -78.0035 -78.0035 -78.0016 -78.0016 -78.0015 -78.0006
   -78.0004 -78.0004 -78.0004 -78.0003 -77.9992 -77.9992 -77.9992 -77.9938
   -44.0688 -44.0688 -44.0688 -44.0654 -44.0654 -44.0654 -44.0539 -44.0539
   -44.0492 -44.0491 -44.0491 -44.0490 -44.0461 -44.0410 -44.0410 -44.0352
   -44.0352 -44.0352 -44.0316 -44.0316 -44.0316 -44.0254 -44.0254 -44.0254
   -44.0211 -44.0211 -44.0210 -44.0207 -44.0207 -44.0205 -44.0205 -44.0205
   -44.0157 -44.0157 -44.0157 -44.0125 -44.0071 -44.0071 -44.0071 -44.0024
   -43.9976 -43.9976 -43.9976 -43.9949 -43.9949 -43.9943 -43.9943 -43.9943
     4.2971   6.3844   6.3844   6.3844   6.8330   6.8330   6.8330   6.9567
     6.9567   6.9567   7.0562   7.0562   7.2649   7.2649   7.2649   7.5008
     7.6327   7.6327   7.6327   7.6388   7.6389   7.6389   7.6534   7.6534
     7.6905   7.6905   7.6906   7.8626   7.8626   7.8754   7.9725   7.9725
     7.9725   8.0837   8.0837   8.1343   8.1343   8.1344   8.2589   8.3154
     8.3154   8.3154   8.3995   8.3995   8.3995   8.4892   8.4892   8.4892
     8.5743   8.5743   8.5743   8.7014   8.7014   8.7014   8.7094   8.7094
     8.7213   8.7214   8.7214   8.7733   8.7733   8.7733   8.7930   8.7930
     8.7930   8.8062   8.8062   8.8187   8.8187   9.0300   9.0300   9.0300
     9.0328   9.0328   9.0328   9.0453   9.1091   9.1091   9.1091   9.2790
     9.2790   9.3103   9.3103   9.3103  10.2267  10.2267  10.2267  10.5546
    10.5546  10.5547

          k = 0.1377 0.1377 0.2295 ( 19421 PWs)   bands (ev):

   -78.0093 -78.0049 -78.0034 -78.0033 -78.0019 -78.0019 -78.0014 -78.0008
   -78.0003 -78.0003 -78.0001 -78.0001 -77.9993 -77.9992 -77.9979 -77.9942
   -44.0675 -44.0675 -44.0665 -44.0638 -44.0617 -44.0617 -44.0551 -44.0529
   -44.0529 -44.0524 -44.0520 -44.0519 -44.0474 -44.0425 -44.0405 -44.0405
   -44.0380 -44.0368 -44.0317 -44.0316 -44.0293 -44.0272 -44.0272 -44.0272
   -44.0252 -44.0223 -44.0216 -44.0196 -44.0196 -44.0162 -44.0162 -44.0161
   -44.0161 -44.0147 -44.0109 -44.0089 -44.0067 -44.0040 -44.0039 -44.0033
   -44.0004 -44.0004 -43.9988 -43.9968 -43.9964 -43.9947 -43.9946 -43.9946
     4.4757   5.9308   6.4812   6.4812   6.8048   6.8048   6.9394   7.0245
     7.0245   7.0449   7.1065   7.1108   7.2825   7.2825   7.3292   7.4591
     7.5045   7.5960   7.6257   7.6304   7.6521   7.6521   7.6718   7.6718
     7.6734   7.7541   7.7541   7.7769   7.9217   7.9251   7.9251   7.9781
     8.0315   8.0549   8.0694   8.0695   8.0798   8.0829   8.2107   8.2108
     8.3165   8.3165   8.3260   8.3995   8.4210   8.4445   8.4787   8.4787
     8.5932   8.5932   8.6199   8.6199   8.6708   8.6735   8.6735   8.6851
     8.6860   8.6988   8.7237   8.7309   8.7567   8.7567   8.7802   8.7948
     8.7985   8.8040   8.8142   8.8322   8.8564   8.8564   8.9202   8.9424
     8.9424   8.9433   9.0973   9.0973   9.1168   9.1481   9.1649   9.1649
     9.1923   9.2948   9.3162   9.3162   9.8665   9.8665  10.6231  10.7253
    10.7254  11.3920

          k = 0.1377 0.1377 0.3213 ( 19383 PWs)   bands (ev):

   -78.0085 -78.0062 -78.0031 -78.0031 -78.0024 -78.0023 -78.0013 -78.0010
   -78.0003 -78.0003 -77.9998 -77.9998 -77.9994 -77.9993 -77.9967 -77.9948
   -44.0650 -44.0649 -44.0630 -44.0614 -44.0572 -44.0572 -44.0570 -44.0570
   -44.0556 -44.0555 -44.0540 -44.0534 -44.0492 -44.0462 -44.0462 -44.0414
   -44.0387 -44.0351 -44.0309 -44.0309 -44.0298 -44.0294 -44.0286 -44.0286
   -44.0231 -44.0228 -44.0219 -44.0185 -44.0185 -44.0168 -44.0168 -44.0115
   -44.0115 -44.0114 -44.0090 -44.0063 -44.0057 -44.0036 -44.0036 -44.0007
   -44.0006 -44.0005 -43.9999 -43.9995 -43.9992 -43.9959 -43.9959 -43.9957
     4.7386   5.4832   6.5955   6.5955   6.7646   6.7646   7.0874   7.1030
     7.1030   7.1633   7.1797   7.1820   7.2529   7.2530   7.3152   7.3828
     7.3965   7.4427   7.6140   7.6210   7.6582   7.6961   7.7269   7.7269
     7.7375   7.7375   7.8295   7.8295   7.8739   7.8740   8.0370   8.0487
     8.0579   8.0579   8.0586   8.0614   8.0752   8.1029   8.1029   8.1103
     8.1366   8.1367   8.3636   8.3815   8.3815   8.4046   8.4744   8.4779
     8.5105   8.5696   8.5696   8.5886   8.6077   8.6077   8.6156   8.6473
     8.6473   8.7126   8.7126   8.7512   8.7599   8.7611   8.7820   8.7873
     8.7973   8.8005   8.8020   8.8129   8.8544   8.8591   8.9058   8.9058
     8.9310   8.9311   9.0057   9.0773   9.1715   9.1716   9.1897   9.2717
     9.2718   9.2829   9.2905   9.2905   9.6126   9.6126  10.9558  10.9558
    11.0531  11.4951

          k = 0.1377 0.1377-0.4130 ( 19428 PWs)   bands (ev):

   -78.0075 -78.0074 -78.0027 -78.0027 -78.0027 -78.0027 -78.0011 -78.0011
   -78.0003 -78.0003 -77.9996 -77.9996 -77.9996 -77.9996 -77.9957 -77.9957
   -44.0616 -44.0616 -44.0616 -44.0616 -44.0587 -44.0587 -44.0587 -44.0587
   -44.0552 -44.0552 -44.0517 -44.0517 -44.0517 -44.0517 -44.0456 -44.0456
   -44.0347 -44.0347 -44.0322 -44.0322 -44.0300 -44.0300 -44.0300 -44.0300
   -44.0227 -44.0227 -44.0176 -44.0176 -44.0176 -44.0176 -44.0171 -44.0171
   -44.0075 -44.0075 -44.0075 -44.0075 -44.0039 -44.0039 -44.0030 -44.0030
   -44.0025 -44.0024 -43.9979 -43.9979 -43.9979 -43.9979 -43.9974 -43.9974
     5.0786   5.0786   6.6963   6.6963   6.6964   6.6964   7.1843   7.1843
     7.1843   7.1843   7.2567   7.2567   7.2621   7.2621   7.2730   7.2730
     7.2911   7.2911   7.6140   7.6140   7.6584   7.6585   7.7989   7.7989
     7.7989   7.7989   7.8489   7.8489   7.8489   7.8490   8.0334   8.0334
     8.0335   8.0335   8.0340   8.0340   8.0694   8.0694   8.1689   8.1689
     8.1690   8.1690   8.2459   8.2459   8.2497   8.2497   8.4928   8.4928
     8.5483   8.5483   8.6249   8.6249   8.6249   8.6249   8.6415   8.6415
     8.6507   8.6507   8.6508   8.6508   8.7733   8.7733   8.7783   8.7783
     8.7996   8.7996   8.8004   8.8004   8.9113   8.9113   8.9253   8.9253
     8.9253   8.9253   8.9465   8.9465   9.2396   9.2396   9.2396   9.2396
     9.2465   9.2465   9.4223   9.4223   9.4223   9.4223  11.2242  11.2242
    11.2242  11.2242

          k = 0.1377 0.2295 0.2295 ( 19380 PWs)   bands (ev):

   -78.0088 -78.0047 -78.0046 -78.0032 -78.0026 -78.0018 -78.0018 -78.0010
   -78.0002 -78.0001 -78.0000 -77.9995 -77.9993 -77.9980 -77.9980 -77.9946
   -44.0668 -44.0653 -44.0652 -44.0607 -44.0607 -44.0574 -44.0557 -44.0553
   -44.0552 -44.0547 -44.0541 -44.0511 -44.0489 -44.0439 -44.0396 -44.0386
   -44.0366 -44.0366 -44.0346 -44.0346 -44.0328 -44.0296 -44.0293 -44.0293
   -44.0206 -44.0206 -44.0201 -44.0200 -44.0200 -44.0173 -44.0164 -44.0127
   -44.0125 -44.0113 -44.0113 -44.0112 -44.0066 -44.0035 -44.0022 -44.0007
   -44.0007 -44.0006 -44.0006 -43.9976 -43.9966 -43.9966 -43.9946 -43.9942
     4.6513   6.0588   6.0589   6.5840   6.7104   6.9186   6.9186   7.1026
     7.1094   7.1094   7.1518   7.1679   7.3308   7.3494   7.3494   7.4384
     7.5417   7.5417   7.5602   7.6310   7.6597   7.6605   7.6606   7.6924
     7.7245   7.7245   7.7975   7.8256   7.8604   7.8676   7.9609   7.9612
     7.9613   8.0208   8.0366   8.0384   8.0384   8.0623   8.1420   8.1575
     8.2756   8.2756   8.2800   8.2800   8.4075   8.4938   8.4938   8.4953
     8.4953   8.5162   8.5588   8.6318   8.6478   8.6724   8.6836   8.6836
     8.7045   8.7045   8.7218   8.7390   8.7390   8.7477   8.7822   8.7828
     8.7892   8.7900   8.7900   8.8023   8.8169   8.8319   8.8319   8.8473
     8.8807   8.9565   8.9565   9.0962   9.1474   9.1729   9.1730   9.1770
     9.1770   9.2931   9.2947   9.3396   9.5436  10.2318  10.2318  10.9186
    11.5812  11.5812

          k = 0.1377 0.2295 0.3213 ( 19413 PWs)   bands (ev):

   -78.0080 -78.0059 -78.0043 -78.0032 -78.0029 -78.0022 -78.0016 -78.0012
   -78.0001 -78.0001 -77.9998 -77.9995 -77.9990 -77.9983 -77.9969 -77.9952
   -44.0652 -44.0631 -44.0619 -44.0593 -44.0591 -44.0574 -44.0570 -44.0569
   -44.0567 -44.0559 -44.0533 -44.0524 -44.0488 -44.0482 -44.0413 -44.0407
   -44.0378 -44.0357 -44.0346 -44.0330 -44.0319 -44.0319 -44.0311 -44.0286
   -44.0251 -44.0203 -44.0203 -44.0188 -44.0170 -44.0163 -44.0158 -44.0154
   -44.0123 -44.0093 -44.0080 -44.0071 -44.0070 -44.0045 -44.0033 -44.0015
   -44.0005 -44.0000 -43.9997 -43.9981 -43.9980 -43.9975 -43.9949 -43.9947
     4.9091   5.6323   6.2297   6.5817   6.7069   6.8835   7.0766   7.1827
     7.1860   7.2126   7.2205   7.2468   7.3202   7.3281   7.3387   7.4062
     7.4359   7.4423   7.6436   7.6476   7.6479   7.6743   7.6970   7.7094
     7.7351   7.7356   7.7732   7.8231   7.8773   7.9003   7.9391   7.9662
     7.9887   8.0002   8.0131   8.0341   8.0344   8.0482   8.0517   8.0716
     8.1198   8.1523   8.2177   8.2577   8.2929   8.3223   8.3716   8.5007
     8.5345   8.5738   8.5803   8.6353   8.6372   8.6384   8.6565   8.6600
     8.6868   8.7006   8.7016   8.7062   8.7415   8.7429   8.7439   8.7750
     8.7960   8.8032   8.8034   8.8037   8.8106   8.8386   8.8409   8.8603
     8.8821   8.8855   9.0330   9.0431   9.0448   9.1159   9.1728   9.2338
     9.2386   9.2948   9.3308   9.3325   9.4706   9.9261  10.6205  11.1755
    11.4819  11.7839

          k = 0.1377 0.2295-0.4130 ( 19418 PWs)   bands (ev):

   -78.0070 -78.0070 -78.0038 -78.0038 -78.0026 -78.0026 -78.0015 -78.0015
   -78.0001 -78.0001 -77.9996 -77.9996 -77.9986 -77.9986 -77.9960 -77.9960
   -44.0625 -44.0625 -44.0604 -44.0604 -44.0579 -44.0579 -44.0577 -44.0577
   -44.0573 -44.0573 -44.0527 -44.0527 -44.0468 -44.0468 -44.0455 -44.0455
   -44.0349 -44.0349 -44.0339 -44.0339 -44.0323 -44.0323 -44.0300 -44.0300
   -44.0223 -44.0223 -44.0205 -44.0205 -44.0178 -44.0178 -44.0136 -44.0136
   -44.0112 -44.0112 -44.0060 -44.0060 -44.0036 -44.0036 -44.0032 -44.0032
   -44.0027 -44.0027 -43.9988 -43.9988 -43.9962 -43.9962 -43.9960 -43.9960
     5.2409   5.2409   6.4149   6.4149   6.8147   6.8147   7.2586   7.2586
     7.2614   7.2614   7.2660   7.2660   7.2818   7.2818   7.3317   7.3317
     7.3376   7.3376   7.6393   7.6393   7.6925   7.6925   7.7615   7.7615
     7.7693   7.7693   7.7962   7.7962   7.7988   7.7988   7.9703   7.9703
     8.0375   8.0375   8.0385   8.0385   8.0420   8.0420   8.0810   8.0810
     8.0983   8.0983   8.1312   8.1312   8.1376   8.1376   8.4959   8.4959
     8.5857   8.5857   8.6042   8.6042   8.6400   8.6400   8.6455   8.6455
     8.6467   8.6467   8.6721   8.6721   8.7581   8.7581   8.7769   8.7769
     8.7823   8.7824   8.8052   8.8052   8.8298   8.8298   8.8778   8.8778
     8.9200   8.9200   8.9454   8.9454   9.1474   9.1474   9.1686   9.1686
     9.2754   9.2754   9.2950   9.2950   9.6793   9.6793  11.0346  11.0346
    11.4742  11.4743

          k = 0.1377 0.3213 0.3213 ( 19411 PWs)   bands (ev):

   -78.0073 -78.0054 -78.0054 -78.0041 -78.0026 -78.0020 -78.0020 -78.0015
   -78.0000 -77.9999 -77.9999 -77.9996 -77.9983 -77.9973 -77.9973 -77.9958
   -44.0643 -44.0606 -44.0605 -44.0598 -44.0597 -44.0585 -44.0580 -44.0567
   -44.0567 -44.0562 -44.0548 -44.0506 -44.0471 -44.0469 -44.0400 -44.0400
   -44.0381 -44.0351 -44.0347 -44.0347 -44.0345 -44.0338 -44.0337 -44.0300
   -44.0221 -44.0204 -44.0203 -44.0193 -44.0188 -44.0188 -44.0173 -44.0126
   -44.0111 -44.0083 -44.0083 -44.0070 -44.0056 -44.0036 -44.0030 -44.0030
   -44.0019 -44.0000 -43.9997 -43.9997 -43.9961 -43.9961 -43.9945 -43.9944
     5.1581   5.8420   5.8420   6.3504   6.8450   7.0461   7.0461   7.2488
     7.2551   7.2902   7.2902   7.3283   7.3283   7.3361   7.3750   7.3862
     7.4131   7.5467   7.5467   7.6428   7.6791   7.6915   7.6915   7.7216
     7.7216   7.7299   7.7656   7.7810   7.8382   7.8786   7.8841   7.8841
     7.9398   7.9651   8.0015   8.0017   8.0355   8.0367   8.0368   8.0384
     8.0834   8.0835   8.1014   8.1014   8.1864   8.2349   8.2349   8.4892
     8.5966   8.5966   8.6079   8.6185   8.6477   8.6503   8.6847   8.6970
     8.7108   8.7108   8.7322   8.7322   8.7367   8.7429   8.7429   8.7551
     8.7678   8.7896   8.7896   8.7969   8.8102   8.8330   8.8330   8.8680
     8.8680   8.8695   8.9132   8.9539   9.0580   9.0580   9.0761   9.1476
     9.2855   9.2855   9.3108   9.3411   9.7028  10.2643  10.2643  11.0305
    11.4640  12.1556

          k = 0.1377 0.3213-0.4130 ( 19390 PWs)   bands (ev):

   -78.0064 -78.0064 -78.0048 -78.0048 -78.0024 -78.0023 -78.0018 -78.0018
   -77.9999 -77.9999 -77.9997 -77.9997 -77.9978 -77.9978 -77.9964 -77.9964
   -44.0624 -44.0624 -44.0595 -44.0595 -44.0591 -44.0591 -44.0576 -44.0576
   -44.0565 -44.0565 -44.0538 -44.0538 -44.0437 -44.0437 -44.0409 -44.0409
   -44.0378 -44.0378 -44.0364 -44.0364 -44.0347 -44.0347 -44.0283 -44.0283
   -44.0250 -44.0250 -44.0191 -44.0191 -44.0179 -44.0179 -44.0156 -44.0156
   -44.0101 -44.0101 -44.0049 -44.0049 -44.0047 -44.0047 -44.0030 -44.0030
   -44.0025 -44.0025 -43.9998 -43.9998 -43.9948 -43.9948 -43.9947 -43.9947
     5.4750   5.4750   6.0919   6.0919   6.9697   6.9697   7.2262   7.2262
     7.2980   7.2980   7.2990   7.2990   7.3598   7.3598   7.3800   7.3800
     7.4398   7.4399   7.6816   7.6816   7.6865   7.6866   7.6901   7.6902
     7.7026   7.7026   7.7407   7.7407   7.8160   7.8160   7.9041   7.9041
     7.9576   7.9576   7.9794   7.9794   8.0210   8.0210   8.0328   8.0328
     8.0344   8.0344   8.0824   8.0824   8.1097   8.1097   8.3508   8.3508
     8.6286   8.6286   8.6510   8.6511   8.6666   8.6666   8.6864   8.6865
     8.7204   8.7204   8.7240   8.7240   8.7317   8.7318   8.7625   8.7625
     8.7721   8.7721   8.7768   8.7768   8.8196   8.8196   8.8464   8.8464
     8.8528   8.8528   8.9696   8.9696   8.9969   8.9969   9.0614   9.0614
     9.3097   9.3097   9.3246   9.3246   9.9644   9.9644  10.6293  10.6293
    11.7992  11.7992

          k = 0.1377-0.4130-0.4130 ( 19416 PWs)   bands (ev):

   -78.0057 -78.0057 -78.0057 -78.0056 -78.0021 -78.0021 -78.0021 -78.0021
   -77.9998 -77.9998 -77.9998 -77.9998 -77.9970 -77.9970 -77.9970 -77.9970
   -44.0613 -44.0613 -44.0613 -44.0613 -44.0580 -44.0580 -44.0580 -44.0580
   -44.0551 -44.0551 -44.0551 -44.0551 -44.0412 -44.0412 -44.0412 -44.0412
   -44.0364 -44.0364 -44.0363 -44.0363 -44.0347 -44.0347 -44.0346 -44.0346
   -44.0203 -44.0203 -44.0203 -44.0203 -44.0184 -44.0184 -44.0183 -44.0183
   -44.0072 -44.0072 -44.0072 -44.0072 -44.0037 -44.0037 -44.0037 -44.0037
   -44.0012 -44.0012 -44.0012 -44.0011 -43.9945 -43.9945 -43.9945 -43.9945
     5.7666   5.7666   5.7666   5.7667   7.1238   7.1238   7.1238   7.1238
     7.3079   7.3079   7.3079   7.3079   7.4072   7.4072   7.4072   7.4072
     7.5608   7.5608   7.5608   7.5608   7.6758   7.6758   7.6758   7.6758
     7.7180   7.7181   7.7181   7.7181   7.8512   7.8512   7.8512   7.8512
     7.9146   7.9146   7.9146   7.9146   8.0049   8.0049   8.0050   8.0050
     8.0441   8.0441   8.0441   8.0441   8.2182   8.2182   8.2182   8.2182
     8.6544   8.6544   8.6544   8.6544   8.6989   8.6989   8.6989   8.6989
     8.7523   8.7523   8.7523   8.7523   8.7556   8.7556   8.7556   8.7556
     8.7602   8.7602   8.7602   8.7602   8.8353   8.8353   8.8353   8.8353
     8.8554   8.8554   8.8554   8.8554   9.0023   9.0023   9.0023   9.0023
     9.3288   9.3288   9.3288   9.3288  10.2779  10.2779  10.2779  10.2779
    12.1757  12.1757

          k = 0.2295 0.2295 0.2295 ( 19387 PWs)   bands (ev):

   -78.0082 -78.0044 -78.0044 -78.0044 -78.0024 -78.0024 -78.0024 -78.0013
   -78.0000 -77.9996 -77.9996 -77.9995 -77.9982 -77.9982 -77.9981 -77.9950
   -44.0646 -44.0645 -44.0645 -44.0571 -44.0571 -44.0571 -44.0565 -44.0565
   -44.0565 -44.0550 -44.0539 -44.0539 -44.0459 -44.0459 -44.0385 -44.0385
   -44.0385 -44.0380 -44.0379 -44.0379 -44.0347 -44.0323 -44.0323 -44.0323
   -44.0172 -44.0172 -44.0172 -44.0167 -44.0167 -44.0167 -44.0155 -44.0142
   -44.0142 -44.0113 -44.0113 -44.0113 -44.0051 -44.0034 -44.0034 -44.0034
   -43.9996 -43.9996 -43.9996 -43.9963 -43.9963 -43.9963 -43.9962 -43.9962
     4.8244   6.1892   6.1892   6.1893   6.8369   6.8369   6.8369   7.1840
     7.1840   7.1840   7.2102   7.2102   7.4122   7.4122   7.4122   7.4383
     7.5334   7.5335   7.5335   7.6455   7.6455   7.6805   7.6806   7.6806
     7.6946   7.7785   7.7785   7.7785   7.8715   7.8715   7.9144   7.9145
     7.9145   7.9813   7.9813   7.9814   8.0096   8.0096   8.1302   8.1302
     8.1302   8.1668   8.1668   8.1668   8.3514   8.3514   8.3514   8.5001
     8.5356   8.5356   8.5356   8.6350   8.6945   8.6945   8.6945   8.6962
     8.6962   8.7258   8.7258   8.7258   8.7270   8.7271   8.7271   8.7836
     8.7836   8.7836   8.7879   8.7879   8.8319   8.8319   8.8319   8.8471
     8.8471   9.0510   9.0510   9.0510   9.1627   9.1627   9.1627   9.2064
     9.2064   9.2160   9.2161   9.2161   9.8680   9.8680   9.8680  11.4491
    11.7827  11.7827

          k = 0.2295 0.2295 0.3213 ( 19418 PWs)   bands (ev):

   -78.0075 -78.0056 -78.0041 -78.0040 -78.0031 -78.0030 -78.0022 -78.0017
   -77.9998 -77.9996 -77.9991 -77.9991 -77.9984 -77.9984 -77.9971 -77.9956
   -44.0631 -44.0630 -44.0612 -44.0586 -44.0586 -44.0573 -44.0568 -44.0558
   -44.0557 -44.0530 -44.0530 -44.0517 -44.0511 -44.0433 -44.0433 -44.0428
   -44.0428 -44.0382 -44.0382 -44.0355 -44.0350 -44.0350 -44.0327 -44.0304
   -44.0211 -44.0206 -44.0171 -44.0155 -44.0151 -44.0151 -44.0128 -44.0128
   -44.0120 -44.0120 -44.0088 -44.0067 -44.0061 -44.0061 -44.0039 -44.0031
   -43.9996 -43.9991 -43.9984 -43.9984 -43.9976 -43.9968 -43.9967 -43.9960
     5.0777   5.7816   6.3635   6.3635   6.7168   6.7168   7.0149   7.2640
     7.2640   7.2713   7.2861   7.2890   7.4054   7.4054   7.4159   7.4339
     7.4373   7.4593   7.6109   7.6109   7.6442   7.6659   7.7207   7.7207
     7.7336   7.7726   7.7908   7.8241   7.8241   7.8493   7.8494   7.9481
     7.9494   7.9503   7.9635   7.9636   7.9679   7.9881   7.9881   7.9936
     8.0642   8.0642   8.0861   8.1390   8.1543   8.1544   8.2335   8.4844
     8.5727   8.5936   8.5936   8.6062   8.6602   8.6975   8.6975   8.6981
     8.6981   8.7285   8.7309   8.7309   8.7365   8.7472   8.7717   8.7850
     8.7872   8.7892   8.7936   8.7936   8.8293   8.8315   8.8315   8.8418
     8.8783   8.8985   9.0870   9.0931   9.1764   9.1765   9.2049   9.2049
     9.2114   9.2214   9.2214   9.2364   9.6007   9.6007  10.2145  10.9922
    12.0523  12.0523

          k = 0.2295 0.2295-0.4130 ( 19404 PWs)   bands (ev):

   -78.0066 -78.0066 -78.0036 -78.0036 -78.0036 -78.0036 -78.0020 -78.0019
   -77.9997 -77.9997 -77.9987 -77.9987 -77.9987 -77.9987 -77.9963 -77.9963
   -44.0609 -44.0609 -44.0609 -44.0609 -44.0570 -44.0570 -44.0569 -44.0569
   -44.0563 -44.0563 -44.0483 -44.0483 -44.0483 -44.0483 -44.0473 -44.0473
   -44.0391 -44.0391 -44.0370 -44.0370 -44.0370 -44.0370 -44.0266 -44.0266
   -44.0256 -44.0256 -44.0165 -44.0165 -44.0132 -44.0132 -44.0132 -44.0132
   -44.0092 -44.0092 -44.0092 -44.0092 -44.0037 -44.0037 -44.0033 -44.0033
   -44.0026 -44.0026 -43.9974 -43.9974 -43.9974 -43.9974 -43.9965 -43.9965
     5.4021   5.4021   6.5516   6.5517   6.5517   6.5517   7.2296   7.2296
     7.3422   7.3422   7.3422   7.3422   7.3483   7.3483   7.3630   7.3630
     7.3866   7.3866   7.6525   7.6525   7.7200   7.7200   7.7470   7.7470
     7.7471   7.7471   7.7790   7.7790   7.7791   7.7791   7.9458   7.9458
     7.9502   7.9502   7.9735   7.9735   7.9810   7.9810   7.9810   7.9810
     8.0171   8.0171   8.0172   8.0172   8.0248   8.0248   8.3451   8.3451
     8.6170   8.6170   8.6515   8.6515   8.6515   8.6515   8.7132   8.7132
     8.7132   8.7132   8.7192   8.7192   8.7538   8.7538   8.7712   8.7712
     8.7862   8.7862   8.7946   8.7946   8.8150   8.8150   8.8150   8.8150
     8.9673   8.9674   8.9778   8.9778   9.2032   9.2032   9.2032   9.2032
     9.2373   9.2373   9.3877   9.3877   9.3877   9.3877  10.5860  10.5860
    12.3551  12.3552

          k = 0.2295 0.3213 0.3213 ( 19392 PWs)   bands (ev):

   -78.0069 -78.0051 -78.0051 -78.0038 -78.0037 -78.0028 -78.0027 -78.0020
   -77.9996 -77.9993 -77.9992 -77.9986 -77.9985 -77.9975 -77.9975 -77.9960
   -44.0620 -44.0600 -44.0600 -44.0587 -44.0587 -44.0583 -44.0563 -44.0551
   -44.0537 -44.0537 -44.0526 -44.0501 -44.0483 -44.0466 -44.0440 -44.0429
   -44.0429 -44.0399 -44.0385 -44.0384 -44.0383 -44.0377 -44.0377 -44.0261
   -44.0256 -44.0169 -44.0169 -44.0144 -44.0144 -44.0135 -44.0120 -44.0116
   -44.0099 -44.0092 -44.0074 -44.0074 -44.0066 -44.0051 -44.0051 -44.0037
   -44.0004 -43.9995 -43.9995 -43.9989 -43.9972 -43.9972 -43.9964 -43.9963
     5.3231   5.9915   5.9915   6.4955   6.5439   6.9065   6.9065   7.3225
     7.3314   7.3490   7.3667   7.3677   7.3677   7.4124   7.4124   7.4654
     7.4914   7.5430   7.5430   7.5838   7.6812   7.7033   7.7033   7.7299
     7.7503   7.7507   7.7507   7.7586   7.8149   7.8334   7.8662   7.8663
     7.8926   7.8989   7.9050   7.9236   7.9423   7.9423   7.9637   7.9637
     7.9650   7.9828   7.9828   7.9864   8.0368   8.1016   8.1016   8.3328
     8.6201   8.6201   8.6317   8.6723   8.6935   8.7131   8.7131   8.7229
     8.7272   8.7299   8.7566   8.7623   8.7623   8.7673   8.7745   8.7843
     8.7882   8.7882   8.7896   8.7896   8.8197   8.8286   8.8287   8.8428
     8.9260   9.0143   9.0143   9.0457   9.1024   9.1024   9.1265   9.2147
     9.2148   9.2233   9.2388   9.3670   9.4076   9.8967   9.8967  10.5786
    12.3456  12.9927

          k = 0.2295 0.3213-0.4130 ( 19410 PWs)   bands (ev):

   -78.0061 -78.0061 -78.0045 -78.0045 -78.0033 -78.0033 -78.0024 -78.0024
   -77.9994 -77.9994 -77.9989 -77.9989 -77.9979 -77.9979 -77.9967 -77.9967
   -44.0603 -44.0603 -44.0589 -44.0589 -44.0578 -44.0578 -44.0563 -44.0563
   -44.0544 -44.0544 -44.0502 -44.0502 -44.0470 -44.0470 -44.0430 -44.0430
   -44.0417 -44.0417 -44.0413 -44.0413 -44.0400 -44.0400 -44.0320 -44.0320
   -44.0212 -44.0212 -44.0138 -44.0138 -44.0128 -44.0128 -44.0128 -44.0128
   -44.0091 -44.0091 -44.0074 -44.0074 -44.0043 -44.0043 -44.0035 -44.0035
   -44.0031 -44.0031 -43.9992 -43.9992 -43.9967 -43.9967 -43.9966 -43.9966
     5.6342   5.6342   6.2407   6.2407   6.7397   6.7397   7.1311   7.1311
     7.3735   7.3735   7.3817   7.3817   7.4481   7.4481   7.4543   7.4543
     7.4596   7.4596   7.6799   7.6799   7.6839   7.6839   7.6891   7.6891
     7.7167   7.7167   7.7583   7.7584   7.7988   7.7988   7.8318   7.8318
     7.8868   7.8868   7.8949   7.8949   7.9303   7.9303   7.9359   7.9359
     7.9478   7.9478   7.9654   7.9654   7.9874   7.9874   8.1978   8.1978
     8.6509   8.6509   8.6651   8.6651   8.6749   8.6749   8.7346   8.7346
     8.7499   8.7499   8.7723   8.7723   8.7789   8.7789   8.7798   8.7798
     8.7865   8.7865   8.8047   8.8047   8.8153   8.8153   8.8612   8.8612
     8.9398   8.9398   8.9981   8.9981   9.1068   9.1068   9.1790   9.1790
     9.2288   9.2288   9.2321   9.2321   9.6352   9.6352  10.2194  10.2194
    12.6825  12.6825

          k = 0.2295-0.4130-0.4130 ( 19428 PWs)   bands (ev):

   -78.0053 -78.0053 -78.0053 -78.0053 -78.0029 -78.0029 -78.0029 -78.0029
   -77.9992 -77.9992 -77.9991 -77.9991 -77.9973 -77.9973 -77.9972 -77.9972
   -44.0592 -44.0592 -44.0591 -44.0591 -44.0570 -44.0570 -44.0570 -44.0570
   -44.0523 -44.0523 -44.0523 -44.0523 -44.0448 -44.0448 -44.0448 -44.0448
   -44.0421 -44.0421 -44.0421 -44.0421 -44.0375 -44.0375 -44.0375 -44.0375
   -44.0169 -44.0169 -44.0169 -44.0169 -44.0129 -44.0129 -44.0129 -44.0129
   -44.0059 -44.0059 -44.0059 -44.0058 -44.0056 -44.0056 -44.0056 -44.0056
   -44.0015 -44.0015 -44.0015 -44.0015 -43.9963 -43.9963 -43.9963 -43.9963
     5.9222   5.9222   5.9222   5.9222   6.9504   6.9504   6.9504   6.9504
     7.3875   7.3875   7.3875   7.3876   7.5071   7.5071   7.5071   7.5071
     7.5756   7.5756   7.5756   7.5756   7.6594   7.6594   7.6594   7.6594
     7.7369   7.7369   7.7369   7.7369   7.8097   7.8097   7.8097   7.8097
     7.8339   7.8339   7.8339   7.8339   7.9095   7.9095   7.9096   7.9096
     7.9444   7.9444   7.9444   7.9444   8.0708   8.0708   8.0708   8.0708
     8.6721   8.6721   8.6721   8.6721   8.7053   8.7053   8.7053   8.7053
     8.7469   8.7469   8.7469   8.7469   8.7950   8.7950   8.7950   8.7950
     8.8166   8.8166   8.8167   8.8167   8.8628   8.8628   8.8628   8.8628
     9.0102   9.0102   9.0102   9.0102   9.0339   9.0339   9.0339   9.0339
     9.2368   9.2368   9.2369   9.2369   9.9091   9.9091   9.9091   9.9091
    13.0633  13.0633

          k = 0.3213 0.3213 0.3213 ( 19397 PWs)   bands (ev):

   -78.0063 -78.0047 -78.0047 -78.0046 -78.0035 -78.0035 -78.0034 -78.0026
   -77.9992 -77.9987 -77.9987 -77.9986 -77.9978 -77.9978 -77.9978 -77.9965
   -44.0586 -44.0586 -44.0586 -44.0577 -44.0577 -44.0576 -44.0533 -44.0533
   -44.0533 -44.0501 -44.0501 -44.0501 -44.0496 -44.0496 -44.0451 -44.0450
   -44.0450 -44.0423 -44.0423 -44.0422 -44.0416 -44.0416 -44.0416 -44.0313
   -44.0215 -44.0134 -44.0134 -44.0134 -44.0107 -44.0107 -44.0106 -44.0082
   -44.0082 -44.0074 -44.0074 -44.0074 -44.0070 -44.0070 -44.0070 -44.0048
   -43.9995 -43.9995 -43.9995 -43.9994 -43.9994 -43.9982 -43.9982 -43.9981
     5.5622   6.2017   6.2017   6.2017   6.7008   6.7008   6.7009   7.1938
     7.4100   7.4100   7.4411   7.4411   7.4411   7.5224   7.5224   7.5224
     7.5283   7.5369   7.5369   7.5369   7.6924   7.6924   7.7304   7.7304
     7.7304   7.7860   7.7860   7.7930   7.7930   7.7930   7.8240   7.8240
     7.8240   7.8460   7.8461   7.8461   7.8561   7.8561   7.8561   7.8898
     7.8898   7.8899   7.9010   7.9010   7.9743   7.9743   7.9743   8.1787
     8.6540   8.6540   8.6540   8.7029   8.7029   8.7119   8.7120   8.7120
     8.7599   8.7599   8.7658   8.7658   8.7658   8.7779   8.7779   8.7779
     8.8093   8.8093   8.8093   8.8648   8.8748   8.8748   8.8748   8.9126
     8.9126   9.1112   9.1112   9.1204   9.1205   9.1205   9.1510   9.1510
     9.1510   9.1919   9.1919   9.1919   9.6178   9.6178   9.6178  10.2092
    13.3338  13.3339

          k = 0.3213 0.3213-0.4130 ( 19442 PWs)   bands (ev):

   -78.0056 -78.0056 -78.0042 -78.0042 -78.0041 -78.0041 -78.0031 -78.0031
   -77.9989 -77.9989 -77.9982 -77.9982 -77.9982 -77.9981 -77.9971 -77.9971
   -44.0576 -44.0576 -44.0576 -44.0576 -44.0559 -44.0559 -44.0545 -44.0545
   -44.0521 -44.0521 -44.0497 -44.0497 -44.0462 -44.0462 -44.0460 -44.0460
   -44.0460 -44.0460 -44.0448 -44.0448 -44.0448 -44.0448 -44.0365 -44.0365
   -44.0172 -44.0172 -44.0101 -44.0101 -44.0101 -44.0101 -44.0096 -44.0096
   -44.0083 -44.0083 -44.0083 -44.0083 -44.0057 -44.0057 -44.0035 -44.0035
   -44.0030 -44.0030 -43.9993 -43.9993 -43.9993 -43.9993 -43.9986 -43.9986
     5.8625   5.8625   6.4505   6.4505   6.4506   6.4506   6.9470   6.9470
     7.4630   7.4630   7.4962   7.4962   7.4971   7.4971   7.4971   7.4971
     7.5411   7.5411   7.6703   7.6703   7.6703   7.6703   7.7098   7.7098
     7.7234   7.7234   7.7666   7.7666   7.7783   7.7783   7.7783   7.7783
     7.8083   7.8083   7.8516   7.8516   7.8517   7.8517   7.8612   7.8612
     7.8701   7.8701   7.8701   7.8701   7.8747   7.8747   8.0472   8.0472
     8.6790   8.6790   8.6889   8.6889   8.6889   8.6889   8.7352   8.7352
     8.7390   8.7390   8.7632   8.7632   8.7665   8.7665   8.7665   8.7665
     8.8594   8.8594   8.8594   8.8594   8.8726   8.8726   8.9905   8.9905
     9.0071   9.0071   9.0176   9.0176   9.1255   9.1255   9.1256   9.1256
     9.1465   9.1465   9.3904   9.3904   9.3904   9.3905   9.8953   9.8953
    13.6504  13.6504

          k = 0.3213-0.4130-0.4130 ( 19416 PWs)   bands (ev):

   -78.0049 -78.0049 -78.0049 -78.0049 -78.0037 -78.0037 -78.0037 -78.0036
   -77.9985 -77.9985 -77.9985 -77.9985 -77.9976 -77.9976 -77.9975 -77.9975
   -44.0560 -44.0560 -44.0560 -44.0560 -44.0548 -44.0548 -44.0548 -44.0548
   -44.0491 -44.0491 -44.0491 -44.0491 -44.0486 -44.0486 -44.0486 -44.0486
   -44.0474 -44.0474 -44.0473 -44.0473 -44.0412 -44.0412 -44.0412 -44.0412
   -44.0134 -44.0134 -44.0134 -44.0134 -44.0078 -44.0078 -44.0078 -44.0078
   -44.0077 -44.0077 -44.0077 -44.0077 -44.0044 -44.0044 -44.0044 -44.0044
   -44.0022 -44.0022 -44.0022 -44.0022 -43.9993 -43.9993 -43.9992 -43.9992
     6.1440   6.1440   6.1440   6.1440   6.6997   6.6997   6.6997   6.6997
     7.4968   7.4968   7.4968   7.4968   7.5954   7.5954   7.5954   7.5954
     7.6158   7.6158   7.6158   7.6158   7.6397   7.6397   7.6397   7.6397
     7.7596   7.7596   7.7596   7.7596   7.7645   7.7645   7.7645   7.7645
     7.7915   7.7915   7.7915   7.7915   7.8108   7.8108   7.8108   7.8108
     7.8513   7.8513   7.8513   7.8513   7.9204   7.9204   7.9204   7.9204
     8.6977   8.6977   8.6977   8.6977   8.7161   8.7161   8.7162   8.7162
     8.7387   8.7387   8.7387   8.7388   8.7605   8.7605   8.7605   8.7605
     8.9019   8.9019   8.9019   8.9019   8.9483   8.9483   8.9483   8.9483
     9.0364   9.0364   9.0365   9.0365   9.1236   9.1236   9.1237   9.1237
     9.1918   9.1918   9.1918   9.1918   9.6263   9.6263   9.6263   9.6263
    14.0374  14.0374

          k =-0.4130-0.4130-0.4130 ( 19400 PWs)   bands (ev):

   -78.0044 -78.0044 -78.0044 -78.0044 -78.0044 -78.0044 -78.0043 -78.0043
   -77.9979 -77.9979 -77.9979 -77.9979 -77.9979 -77.9979 -77.9979 -77.9979
   -44.0519 -44.0519 -44.0519 -44.0519 -44.0519 -44.0519 -44.0519 -44.0519
   -44.0519 -44.0519 -44.0519 -44.0519 -44.0519 -44.0519 -44.0519 -44.0519
   -44.0453 -44.0453 -44.0453 -44.0453 -44.0453 -44.0453 -44.0453 -44.0453
   -44.0101 -44.0101 -44.0101 -44.0101 -44.0101 -44.0100 -44.0100 -44.0100
   -44.0033 -44.0033 -44.0033 -44.0033 -44.0033 -44.0033 -44.0033 -44.0033
   -44.0033 -44.0033 -44.0033 -44.0033 -44.0033 -44.0033 -44.0033 -44.0033
     6.4140   6.4140   6.4140   6.4140   6.4140   6.4140   6.4140   6.4141
     7.6177   7.6177   7.6177   7.6177   7.6177   7.6177   7.6177   7.6177
     7.6177   7.6177   7.6177   7.6177   7.6177   7.6177   7.6178   7.6178
     7.7849   7.7849   7.7849   7.7849   7.7849   7.7849   7.7849   7.7849
     7.7849   7.7849   7.7849   7.7849   7.7849   7.7849   7.7849   7.7849
     7.7855   7.7855   7.7855   7.7855   7.7855   7.7855   7.7855   7.7855
     8.7279   8.7279   8.7279   8.7280   8.7280   8.7280   8.7280   8.7280
     8.7280   8.7280   8.7280   8.7280   8.7280   8.7280   8.7280   8.7280
     9.0075   9.0075   9.0075   9.0075   9.0075   9.0075   9.0076   9.0076
     9.0076   9.0076   9.0076   9.0076   9.0076   9.0076   9.0076   9.0076
     9.3944   9.3944   9.3944   9.3944   9.3944   9.3944   9.3944   9.3944
    14.9804  14.9804

 ------ SPIN DOWN ----------


          k = 0.0459 0.0459 0.0459 ( 19414 PWs)   bands (ev):

   -74.5262 -74.5164 -74.5164 -74.5163 -74.5151 -74.5151 -74.5151 -74.5149
   -74.5149 -74.5149 -74.5145 -74.5145 -74.5145 -74.5145 -74.5144 -74.5063
   -40.6742 -40.6742 -40.6742 -40.6738 -40.6738 -40.6738 -40.6533 -40.6533
   -40.6516 -40.6353 -40.6339 -40.6339 -40.6339 -40.6313 -40.6313 -40.6282
   -40.6282 -40.6282 -40.6232 -40.6232 -40.6194 -40.6194 -40.6194 -40.6188
   -40.6172 -40.6172 -40.6172 -40.6162 -40.6162 -40.6162 -40.6157 -40.6157
   -40.6157 -40.6133 -40.6133 -40.6133 -40.6112 -40.6112 -40.6112 -40.5838
   -40.5823 -40.5823 -40.5821 -40.5821 -40.5821 -40.5816 -40.5816 -40.5816
     4.1254   7.1238   7.1239   7.1239   7.7306   7.7307   7.7307   8.4799
     8.4799   8.4799   8.5420   8.5420   8.5420   9.3450   9.3450   9.7860
     9.7993   9.8181   9.8181   9.8290   9.8290  10.1093  10.1093  10.1093
    10.1159  10.1159  10.1159  10.5454  10.5454  10.5455  10.7480  10.7480
    10.7480  10.7738  10.7739  10.7739  10.7745  10.7745  10.7747  10.8314
    10.8314  10.8557  10.9539  10.9540  10.9540  11.0451  11.0451  11.0451
    11.0497  11.0498  11.0498  11.1101  11.1101  11.1101  11.5560  11.5560
    11.5560  11.6873  11.6873  11.6873  11.9011  11.9011  11.9011  11.9142
    11.9143  11.9143  12.0178  12.0178  12.1501  12.1501  12.1502  12.1717
    12.1717  12.1721  12.1721  12.2045  12.2045  12.2046  12.2948  12.3386
    12.3386  12.3480  12.3480  12.3480  12.4512  12.4512  12.4512  12.5227
    12.5227  12.5227

          k = 0.0459 0.0459 0.1377 ( 19445 PWs)   bands (ev):

   -74.5260 -74.5182 -74.5164 -74.5164 -74.5153 -74.5152 -74.5150 -74.5149
   -74.5148 -74.5148 -74.5146 -74.5146 -74.5144 -74.5143 -74.5128 -74.5065
   -40.6730 -40.6730 -40.6728 -40.6723 -40.6714 -40.6714 -40.6533 -40.6519
   -40.6498 -40.6410 -40.6398 -40.6398 -40.6392 -40.6391 -40.6342 -40.6342
   -40.6286 -40.6257 -40.6240 -40.6232 -40.6215 -40.6196 -40.6195 -40.6170
   -40.6168 -40.6168 -40.6164 -40.6152 -40.6152 -40.6150 -40.6135 -40.6135
   -40.6129 -40.6122 -40.6121 -40.6074 -40.6064 -40.6064 -40.6056 -40.5863
   -40.5838 -40.5838 -40.5838 -40.5835 -40.5830 -40.5829 -40.5822 -40.5822
     4.2171   6.5244   7.1922   7.1923   7.7910   7.7910   8.2984   8.3614
     8.3614   8.5462   8.5486   8.5486   8.6071   9.3555   9.3850   9.7004
     9.7106   9.8316   9.8324   9.8553   9.8681  10.0916  10.0971  10.1364
    10.1364  10.1560  10.1560  10.3233  10.4714  10.4714  10.6282  10.6282
    10.6441  10.6442  10.6504  10.6504  10.6636  10.6677  10.8169  10.8267
    10.8430  10.8473  10.8473  10.8833  10.8884  10.9373  10.9373  11.1099
    11.1705  11.1851  11.1851  11.2018  11.2018  11.2256  11.4269  11.6689
    11.6690  11.7973  11.7973  11.8164  11.8619  11.8619  11.8984  11.8985
    11.9157  11.9272  11.9796  12.0329  12.1516  12.1531  12.1544  12.1702
    12.1713  12.1796  12.1830  12.1830  12.1956  12.2581  12.2857  12.3184
    12.3184  12.3356  12.3487  12.3487  12.4669  12.4669  12.4751  12.4751
    12.5460  12.5460

          k = 0.0459 0.0459 0.2295 ( 19444 PWs)   bands (ev):

   -74.5253 -74.5200 -74.5163 -74.5163 -74.5154 -74.5154 -74.5150 -74.5148
   -74.5147 -74.5147 -74.5147 -74.5146 -74.5145 -74.5144 -74.5113 -74.5070
   -40.6702 -40.6702 -40.6699 -40.6695 -40.6676 -40.6676 -40.6527 -40.6496
   -40.6478 -40.6472 -40.6470 -40.6470 -40.6469 -40.6437 -40.6417 -40.6417
   -40.6316 -40.6290 -40.6264 -40.6237 -40.6194 -40.6194 -40.6183 -40.6175
   -40.6173 -40.6173 -40.6147 -40.6147 -40.6147 -40.6137 -40.6137 -40.6075
   -40.6062 -40.6059 -40.6059 -40.6020 -40.6007 -40.6006 -40.6003 -40.5896
   -40.5863 -40.5863 -40.5859 -40.5858 -40.5856 -40.5846 -40.5838 -40.5838
     4.3995   5.9628   7.3243   7.3244   7.9052   7.9052   8.1866   8.1866
     8.4965   8.4965   8.6742   8.7326   8.7690   9.3652   9.4638   9.5245
     9.5520   9.8624   9.8636   9.9258   9.9380  10.0580  10.0621  10.1066
    10.1960  10.1960  10.2284  10.2284  10.3798  10.3798  10.4756  10.4757
    10.4973  10.5047  10.5063  10.5064  10.5096  10.5097  10.6984  10.6984
    10.7794  10.7794  10.8056  10.8202  10.8344  10.8358  10.9381  11.2905
    11.3038  11.3152  11.3353  11.3353  11.3512  11.3512  11.3737  11.7984
    11.7984  11.8243  11.8244  11.8506  11.8506  11.9043  11.9397  11.9438
    11.9471  11.9471  11.9530  12.0453  12.0619  12.1144  12.1191  12.1212
    12.1543  12.1659  12.1676  12.1690  12.2354  12.2354  12.2374  12.2990
    12.3494  12.3494  12.3732  12.3732  12.4045  12.4045  12.4959  12.4960
    12.5569  12.5570

          k = 0.0459 0.0459 0.3213 ( 19401 PWs)   bands (ev):

   -74.5243 -74.5216 -74.5160 -74.5160 -74.5157 -74.5157 -74.5148 -74.5146
   -74.5146 -74.5146 -74.5146 -74.5146 -74.5146 -74.5144 -74.5099 -74.5077
   -40.6659 -40.6659 -40.6657 -40.6655 -40.6625 -40.6625 -40.6544 -40.6539
   -40.6539 -40.6538 -40.6516 -40.6489 -40.6489 -40.6471 -40.6462 -40.6438
   -40.6372 -40.6346 -40.6242 -40.6224 -40.6198 -40.6189 -40.6189 -40.6188
   -40.6178 -40.6178 -40.6144 -40.6144 -40.6137 -40.6137 -40.6074 -40.6005
   -40.5999 -40.5999 -40.5998 -40.5968 -40.5951 -40.5949 -40.5949 -40.5949
   -40.5898 -40.5898 -40.5895 -40.5895 -40.5886 -40.5872 -40.5866 -40.5866
     4.6701   5.4588   7.5102   7.5102   7.9684   7.9684   8.0592   8.0592
     8.3852   8.3853   8.8544   8.9088   9.0963   9.3044   9.3440   9.3516
     9.5792   9.9058   9.9081   9.9089  10.0126  10.0149  10.0283  10.0400
    10.2843  10.2843  10.3111  10.3111  10.3176  10.3176  10.3218  10.3314
    10.3628  10.3628  10.4148  10.4149  10.4222  10.4222  10.5480  10.5480
    10.6168  10.6168  10.7983  10.8091  10.8141  10.8189  11.0055  11.1905
    11.4742  11.4742  11.4797  11.4829  11.5121  11.5121  11.5471  11.7115
    11.7116  11.7688  11.7688  11.7935  11.8626  11.9330  11.9826  11.9840
    11.9840  11.9896  12.0533  12.0755  12.0788  12.0965  12.0965  12.1003
    12.1578  12.1616  12.1647  12.1658  12.1915  12.2332  12.2333  12.2368
    12.3274  12.3275  12.3452  12.3452  12.3483  12.3483  12.5321  12.5321
    12.5744  12.5744

          k = 0.0459 0.0459-0.4130 ( 19418 PWs)   bands (ev):

   -74.5230 -74.5230 -74.5159 -74.5159 -74.5158 -74.5158 -74.5147 -74.5147
   -74.5147 -74.5147 -74.5147 -74.5147 -74.5146 -74.5146 -74.5087 -74.5087
   -40.6605 -40.6605 -40.6605 -40.6605 -40.6603 -40.6603 -40.6602 -40.6602
   -40.6561 -40.6561 -40.6561 -40.6561 -40.6499 -40.6499 -40.6420 -40.6420
   -40.6396 -40.6396 -40.6221 -40.6221 -40.6207 -40.6207 -40.6185 -40.6185
   -40.6184 -40.6184 -40.6140 -40.6140 -40.6140 -40.6140 -40.6004 -40.6004
   -40.5947 -40.5947 -40.5947 -40.5947 -40.5945 -40.5945 -40.5943 -40.5943
   -40.5923 -40.5923 -40.5907 -40.5907 -40.5902 -40.5902 -40.5902 -40.5902
     5.0251   5.0251   7.7330   7.7330   7.7330   7.7330   8.2296   8.2296
     8.2296   8.2296   9.0717   9.0717   9.1199   9.1199   9.2776   9.2776
     9.7281   9.7281   9.9609   9.9609   9.9613   9.9613  10.1618  10.1618
    10.1726  10.1726  10.2913  10.2913  10.2913  10.2913  10.3729  10.3729
    10.3729  10.3729  10.4199  10.4199  10.4199  10.4199  10.4668  10.4668
    10.4668  10.4668  10.7981  10.7981  10.8125  10.8125  11.0902  11.0902
    11.6021  11.6021  11.6021  11.6021  11.6504  11.6504  11.6543  11.6543
    11.6543  11.6543  11.6692  11.6692  11.7378  11.7378  12.0279  12.0279
    12.0330  12.0330  12.1289  12.1289  12.1289  12.1289  12.1455  12.1455
[...]
   -40.6353 -40.6342 -40.6342 -40.6342 -40.6302 -40.6276 -40.6276 -40.6276
   -40.6098 -40.6098 -40.6098 -40.6092 -40.6092 -40.6092 -40.6081 -40.6065
   -40.6065 -40.6029 -40.6029 -40.6029 -40.5957 -40.5936 -40.5936 -40.5936
   -40.5892 -40.5892 -40.5892 -40.5853 -40.5853 -40.5853 -40.5853 -40.5853
     4.9357   6.4375   6.4376   6.4376   7.6698   7.6699   7.6699   8.7637
     9.0316   9.0316   9.0316   9.0937   9.0937   9.0937   9.5537   9.5537
     9.6361   9.9060   9.9060   9.9476   9.9476  10.0036  10.0036  10.0036
    10.1605  10.1605  10.1606  10.1713  10.1713  10.1713  10.2511  10.2511
    10.2511  10.3006  10.3007  10.3007  10.4825  10.4825  10.4825  10.5201
    10.5201  10.5201  10.6601  10.6601  10.7404  10.7404  10.7404  11.2778
    11.2919  11.5672  11.5672  11.5672  11.6284  11.6284  11.6285  11.7496
    11.7496  11.7496  11.7945  11.7945  11.7945  11.9163  11.9163  11.9163
    11.9637  11.9637  12.0687  12.0687  12.1033  12.1033  12.1175  12.1175
    12.1175  12.1384  12.1385  12.1385  12.1556  12.1556  12.1890  12.1890
    12.1890  12.2503  12.2503  12.2503  12.4686  12.4687  12.4687  13.4632
    13.4632  13.5081

          k = 0.2295 0.2295 0.3213 ( 19418 PWs)   bands (ev):

   -74.5225 -74.5203 -74.5186 -74.5186 -74.5174 -74.5174 -74.5164 -74.5158
   -74.5137 -74.5135 -74.5129 -74.5129 -74.5121 -74.5121 -74.5107 -74.5089
   -40.6643 -40.6643 -40.6622 -40.6590 -40.6589 -40.6573 -40.6570 -40.6558
   -40.6554 -40.6526 -40.6526 -40.6510 -40.6497 -40.6410 -40.6410 -40.6402
   -40.6399 -40.6345 -40.6345 -40.6315 -40.6307 -40.6307 -40.6285 -40.6252
   -40.6143 -40.6141 -40.6097 -40.6080 -40.6073 -40.6073 -40.6047 -40.6046
   -40.6036 -40.6036 -40.6001 -40.5974 -40.5968 -40.5967 -40.5943 -40.5933
   -40.5892 -40.5885 -40.5877 -40.5877 -40.5868 -40.5859 -40.5859 -40.5849
     5.1978   5.9571   6.6665   6.6665   7.2994   7.2994   7.8833   8.4525
     9.1327   9.1328   9.1929   9.1929   9.2463   9.3414   9.5652   9.5746
     9.6406   9.8729   9.9331   9.9565   9.9769   9.9769   9.9967  10.0024
    10.0517  10.0518  10.0925  10.1206  10.1420  10.1843  10.2259  10.2259
    10.3193  10.3194  10.3392  10.3393  10.3869  10.3869  10.4390  10.4390
    10.5226  10.5359  10.5900  10.5900  10.5970  10.6253  10.8008  11.0816
    11.3967  11.6199  11.6199  11.6593  11.6829  11.6985  11.6985  11.7208
    11.7208  11.7234  11.8370  11.8822  11.8823  11.8985  11.9505  11.9505
    11.9566  11.9936  12.0039  12.0143  12.0568  12.0810  12.1096  12.1096
    12.1101  12.1167  12.1283  12.1652  12.1653  12.1659  12.1756  12.1756
    12.1835  12.2041  12.2422  12.2422  12.3110  12.3110  12.7003  13.2233
    13.6678  13.6678

          k = 0.2295 0.2295-0.4130 ( 19404 PWs)   bands (ev):

   -74.5215 -74.5215 -74.5180 -74.5180 -74.5180 -74.5180 -74.5161 -74.5161
   -74.5136 -74.5136 -74.5125 -74.5125 -74.5125 -74.5124 -74.5097 -74.5097
   -40.6618 -40.6618 -40.6618 -40.6618 -40.6571 -40.6571 -40.6568 -40.6568
   -40.6564 -40.6564 -40.6470 -40.6470 -40.6470 -40.6470 -40.6452 -40.6452
   -40.6358 -40.6358 -40.6331 -40.6331 -40.6331 -40.6331 -40.6212 -40.6212
   -40.6196 -40.6196 -40.6091 -40.6091 -40.6051 -40.6051 -40.6051 -40.6051
   -40.6004 -40.6004 -40.6003 -40.6003 -40.5941 -40.5941 -40.5934 -40.5934
   -40.5926 -40.5926 -40.5866 -40.5866 -40.5866 -40.5866 -40.5855 -40.5855
     5.5405   5.5405   6.9583   6.9583   6.9584   6.9584   8.1503   8.1503
     9.2029   9.2029   9.2029   9.2029   9.4190   9.4190   9.5116   9.5116
     9.7492   9.7492   9.9832   9.9832   9.9833   9.9833  10.0212  10.0212
    10.0289  10.0289  10.0624  10.0624  10.0784  10.0784  10.2986  10.2986
    10.2986  10.2986  10.3683  10.3683  10.3684  10.3684  10.4543  10.4543
    10.4543  10.4543  10.5492  10.5492  10.5834  10.5835  10.9108  10.9108
    11.5249  11.5249  11.6572  11.6572  11.6573  11.6573  11.8113  11.8113
    11.8114  11.8114  11.8163  11.8163  11.8297  11.8297  11.9248  11.9248
    12.0055  12.0055  12.0707  12.0707  12.0824  12.0825  12.0825  12.0825
    12.1112  12.1112  12.1145  12.1145  12.1892  12.1892  12.1892  12.1892
    12.2086  12.2086  12.2086  12.2086  12.2103  12.2103  12.9552  12.9552
    13.8549  13.8549

          k = 0.2295 0.3213 0.3213 ( 19392 PWs)   bands (ev):

   -74.5218 -74.5198 -74.5198 -74.5183 -74.5182 -74.5171 -74.5171 -74.5162
   -74.5134 -74.5131 -74.5131 -74.5124 -74.5121 -74.5111 -74.5111 -74.5094
   -40.6630 -40.6607 -40.6607 -40.6590 -40.6590 -40.6586 -40.6559 -40.6550
   -40.6533 -40.6533 -40.6520 -40.6486 -40.6470 -40.6449 -40.6417 -40.6400
   -40.6400 -40.6366 -40.6348 -40.6348 -40.6348 -40.6344 -40.6344 -40.6207
   -40.6196 -40.6093 -40.6093 -40.6066 -40.6066 -40.6057 -40.6037 -40.6032
   -40.6012 -40.6003 -40.5983 -40.5983 -40.5975 -40.5956 -40.5956 -40.5940
   -40.5900 -40.5891 -40.5891 -40.5884 -40.5863 -40.5863 -40.5854 -40.5853
     5.4555   6.1989   6.1990   6.8831   6.8938   7.5196   7.5197   8.1161
     9.2471   9.3386   9.3386   9.3860   9.4321   9.4321   9.6056   9.6498
     9.6556   9.8650   9.8650   9.8976   9.9466   9.9582   9.9982   9.9982
    10.0024  10.0351  10.0608  10.1681  10.1681  10.2126  10.2126  10.2177
    10.2177  10.2753  10.3057  10.3542  10.3569  10.3904  10.4295  10.4295
    10.4448  10.4683  10.4683  10.5334  10.5699  10.6245  10.6245  10.8710
    11.5282  11.6798  11.7003  11.7003  11.7085  11.7922  11.7936  11.7936
    11.8019  11.8020  11.8158  11.8159  11.8929  11.9113  11.9274  11.9274
    11.9379  11.9716  12.0055  12.0309  12.0638  12.0775  12.0849  12.0990
    12.1058  12.1058  12.1076  12.1076  12.1294  12.1408  12.1513  12.1513
    12.1894  12.1946  12.1946  12.2058  12.2477  12.5154  12.5154  12.9743
    13.9147  14.3200

          k = 0.2295 0.3213-0.4130 ( 19410 PWs)   bands (ev):

   -74.5209 -74.5209 -74.5191 -74.5191 -74.5177 -74.5176 -74.5167 -74.5167
   -74.5132 -74.5132 -74.5127 -74.5127 -74.5115 -74.5115 -74.5101 -74.5101
   -40.6610 -40.6610 -40.6593 -40.6593 -40.6578 -40.6578 -40.6563 -40.6563
   -40.6542 -40.6542 -40.6492 -40.6492 -40.6449 -40.6449 -40.6407 -40.6407
   -40.6389 -40.6389 -40.6382 -40.6381 -40.6368 -40.6368 -40.6276 -40.6276
   -40.6144 -40.6144 -40.6060 -40.6060 -40.6046 -40.6046 -40.6046 -40.6046
   -40.6002 -40.6002 -40.5983 -40.5983 -40.5946 -40.5946 -40.5936 -40.5936
   -40.5934 -40.5934 -40.5887 -40.5887 -40.5857 -40.5857 -40.5856 -40.5856
     5.7917   5.7917   6.5111   6.5111   7.1829   7.1829   7.7973   7.7973
     9.3355   9.3355   9.4699   9.4699   9.4964   9.4964   9.6015   9.6015
     9.7542   9.7543   9.8823   9.8823   9.9366   9.9366   9.9417   9.9417
    10.0935  10.0935  10.0983  10.0983  10.1311  10.1311  10.2286  10.2286
    10.2808  10.2808  10.3160  10.3160  10.3430  10.3430  10.4068  10.4068
    10.4733  10.4733  10.4845  10.4845  10.5185  10.5185  10.7106  10.7106
    11.6686  11.6686  11.6852  11.6852  11.7646  11.7646  11.8138  11.8138
    11.8604  11.8604  11.8654  11.8654  11.8665  11.8665  11.8979  11.8979
    11.9751  11.9752  11.9802  11.9802  12.0478  12.0478  12.0865  12.0865
    12.0904  12.0904  12.1029  12.1029  12.1080  12.1081  12.1313  12.1313
    12.2036  12.2036  12.2273  12.2273  12.3411  12.3411  12.7395  12.7395
    14.1581  14.1581

          k = 0.2295-0.4130-0.4130 ( 19428 PWs)   bands (ev):

   -74.5200 -74.5200 -74.5200 -74.5200 -74.5172 -74.5172 -74.5172 -74.5172
   -74.5130 -74.5130 -74.5130 -74.5129 -74.5108 -74.5108 -74.5108 -74.5108
   -40.6595 -40.6595 -40.6595 -40.6595 -40.6571 -40.6571 -40.6571 -40.6571
   -40.6517 -40.6517 -40.6517 -40.6517 -40.6423 -40.6423 -40.6423 -40.6423
   -40.6393 -40.6393 -40.6393 -40.6393 -40.6342 -40.6342 -40.6342 -40.6342
   -40.6094 -40.6094 -40.6094 -40.6094 -40.6048 -40.6048 -40.6048 -40.6048
   -40.5965 -40.5965 -40.5965 -40.5965 -40.5962 -40.5962 -40.5962 -40.5962
   -40.5915 -40.5915 -40.5914 -40.5914 -40.5853 -40.5853 -40.5853 -40.5853
     6.1181   6.1181   6.1181   6.1181   7.4676   7.4676   7.4676   7.4676
     9.4586   9.4586   9.4586   9.4586   9.6189   9.6189   9.6189   9.6189
     9.7848   9.7848   9.7848   9.7848   9.9096   9.9096   9.9097   9.9097
    10.1548  10.1548  10.1548  10.1548  10.1911  10.1911  10.1912  10.1912
    10.2018  10.2018  10.2018  10.2018  10.4000  10.4000  10.4000  10.4000
    10.4603  10.4603  10.4603  10.4603  10.5622  10.5622  10.5622  10.5622
    11.7450  11.7450  11.7450  11.7450  11.8206  11.8206  11.8206  11.8206
    11.8484  11.8484  11.8484  11.8484  11.8874  11.8875  11.8875  11.8875
    11.9273  11.9273  11.9273  11.9273  12.0469  12.0469  12.0469  12.0469
    12.0910  12.0910  12.0910  12.0910  12.1052  12.1053  12.1053  12.1053
    12.2231  12.2231  12.2231  12.2231  12.5350  12.5350  12.5350  12.5350
    14.4739  14.4740

          k = 0.3213 0.3213 0.3213 ( 19397 PWs)   bands (ev):

   -74.5212 -74.5192 -74.5192 -74.5192 -74.5179 -74.5179 -74.5179 -74.5168
   -74.5130 -74.5123 -74.5123 -74.5123 -74.5114 -74.5114 -74.5114 -74.5099
   -40.6590 -40.6590 -40.6590 -40.6578 -40.6578 -40.6578 -40.6529 -40.6524
   -40.6524 -40.6491 -40.6491 -40.6491 -40.6483 -40.6483 -40.6427 -40.6427
   -40.6427 -40.6394 -40.6394 -40.6394 -40.6391 -40.6390 -40.6390 -40.6268
   -40.6147 -40.6052 -40.6052 -40.6052 -40.6022 -40.6022 -40.6022 -40.5993
   -40.5993 -40.5982 -40.5982 -40.5982 -40.5979 -40.5979 -40.5978 -40.5951
   -40.5891 -40.5891 -40.5891 -40.5889 -40.5889 -40.5875 -40.5875 -40.5875
     5.7093   6.4382   6.4383   6.4383   7.1122   7.1122   7.1122   7.7455
     9.5284   9.5285   9.5285   9.5390   9.5390   9.5390   9.7099   9.7099
     9.7717   9.8637   9.8637   9.8637   9.9073   9.9073   9.9417   9.9417
     9.9417  10.0964  10.0964  10.2094  10.2094  10.2094  10.2222  10.2222
    10.2222  10.2525  10.2525  10.2525  10.3697  10.3697  10.3698  10.3746
    10.3746  10.3746  10.4338  10.4338  10.4338  10.4865  10.4865  10.6475
    11.6696  11.7895  11.7895  11.7895  11.8040  11.8040  11.8040  11.8551
    11.8551  11.8551  11.9392  11.9392  11.9392  11.9653  11.9653  11.9730
    11.9730  11.9730  12.0001  12.0001  12.0436  12.0436  12.0501  12.0501
    12.0773  12.0773  12.0773  12.0917  12.0918  12.0918  12.1297  12.1297
    12.1297  12.1393  12.1393  12.1393  12.3290  12.3290  12.3290  12.7478
    14.6228  14.6228

          k = 0.3213 0.3213-0.4130 ( 19442 PWs)   bands (ev):

   -74.5204 -74.5203 -74.5187 -74.5187 -74.5187 -74.5187 -74.5175 -74.5175
   -74.5126 -74.5126 -74.5118 -74.5118 -74.5118 -74.5118 -74.5106 -74.5106
   -40.6578 -40.6578 -40.6578 -40.6578 -40.6556 -40.6556 -40.6541 -40.6541
   -40.6514 -40.6514 -40.6481 -40.6481 -40.6442 -40.6442 -40.6442 -40.6442
   -40.6442 -40.6442 -40.6424 -40.6424 -40.6424 -40.6424 -40.6330 -40.6330
   -40.6097 -40.6097 -40.6013 -40.6013 -40.6013 -40.6013 -40.6009 -40.6009
   -40.5994 -40.5994 -40.5994 -40.5994 -40.5962 -40.5962 -40.5938 -40.5938
   -40.5931 -40.5931 -40.5888 -40.5888 -40.5888 -40.5888 -40.5879 -40.5879
     6.0395   6.0395   6.7464   6.7464   6.7464   6.7464   7.4043   7.4043
     9.6018   9.6018   9.6018   9.6018   9.6872   9.6872   9.6954   9.6954
     9.7829   9.7829   9.8783   9.8783   9.8783   9.8783   9.9235   9.9235
    10.0248  10.0248  10.1606  10.1606  10.1624  10.1624  10.2843  10.2843
    10.2843  10.2843  10.2873  10.2873  10.2873  10.2873  10.3100  10.3100
    10.3100  10.3100  10.4188  10.4188  10.4307  10.4307  10.4871  10.4871
    11.8127  11.8127  11.8127  11.8127  11.8209  11.8209  11.9045  11.9045
    11.9113  11.9113  11.9113  11.9113  11.9133  11.9133  11.9142  11.9142
    11.9939  11.9939  12.0262  12.0262  12.0552  12.0552  12.0657  12.0657
    12.0671  12.0671  12.0671  12.0671  12.1056  12.1056  12.1205  12.1205
    12.1205  12.1205  12.1557  12.1557  12.1557  12.1557  12.5337  12.5337
    14.8665  14.8666

          k = 0.3213-0.4130-0.4130 ( 19416 PWs)   bands (ev):

   -74.5195 -74.5195 -74.5195 -74.5195 -74.5181 -74.5181 -74.5181 -74.5181
   -74.5122 -74.5122 -74.5122 -74.5122 -74.5111 -74.5111 -74.5111 -74.5111
   -40.6558 -40.6558 -40.6558 -40.6558 -40.6544 -40.6544 -40.6544 -40.6544
   -40.6479 -40.6479 -40.6479 -40.6479 -40.6469 -40.6469 -40.6469 -40.6469
   -40.6455 -40.6455 -40.6455 -40.6455 -40.6386 -40.6386 -40.6385 -40.6385
   -40.6053 -40.6053 -40.6053 -40.6053 -40.5987 -40.5987 -40.5987 -40.5987
   -40.5986 -40.5986 -40.5986 -40.5986 -40.5948 -40.5948 -40.5948 -40.5948
   -40.5923 -40.5922 -40.5922 -40.5922 -40.5888 -40.5888 -40.5888 -40.5888
     6.3608   6.3608   6.3609   6.3609   7.0481   7.0481   7.0481   7.0481
     9.7254   9.7254   9.7254   9.7254   9.7404   9.7404   9.7404   9.7404
     9.8106   9.8106   9.8107   9.8107   9.8743   9.8743   9.8743   9.8743
    10.1046  10.1046  10.1047  10.1047  10.2201  10.2201  10.2201  10.2201
    10.2294  10.2294  10.2294  10.2294  10.3244  10.3244  10.3244  10.3244
    10.3475  10.3475  10.3476  10.3476  10.3662  10.3662  10.3662  10.3662
    11.8813  11.8813  11.8813  11.8813  11.8997  11.8997  11.8997  11.8997
    11.9391  11.9391  11.9391  11.9391  11.9651  11.9651  11.9651  11.9651
    11.9836  11.9836  11.9836  11.9836  12.0265  12.0265  12.0265  12.0265
    12.0512  12.0512  12.0512  12.0512  12.0576  12.0576  12.0576  12.0576
    12.0952  12.0952  12.0952  12.0952  12.3400  12.3400  12.3400  12.3400
    15.2204  15.2204

          k =-0.4130-0.4130-0.4130 ( 19400 PWs)   bands (ev):

   -74.5190 -74.5190 -74.5190 -74.5190 -74.5190 -74.5190 -74.5190 -74.5190
   -74.5115 -74.5115 -74.5115 -74.5115 -74.5115 -74.5115 -74.5115 -74.5115
   -40.6509 -40.6509 -40.6509 -40.6509 -40.6509 -40.6509 -40.6509 -40.6509
   -40.6509 -40.6509 -40.6509 -40.6509 -40.6509 -40.6509 -40.6509 -40.6509
   -40.6434 -40.6434 -40.6434 -40.6434 -40.6434 -40.6434 -40.6434 -40.6434
   -40.6013 -40.6013 -40.6013 -40.6013 -40.6013 -40.6013 -40.6013 -40.6013
   -40.5936 -40.5936 -40.5936 -40.5936 -40.5935 -40.5935 -40.5935 -40.5935
   -40.5935 -40.5935 -40.5935 -40.5935 -40.5935 -40.5935 -40.5935 -40.5935
     6.6741   6.6741   6.6743   6.6743   6.6743   6.6743   6.6743   6.6743
     9.8411   9.8411   9.8411   9.8411   9.8411   9.8411   9.8411   9.8411
     9.8411   9.8411   9.8411   9.8411   9.8411   9.8411   9.8411   9.8411
    10.1157  10.1157  10.1157  10.1157  10.1157  10.1157  10.1157  10.1157
    10.2857  10.2857  10.2857  10.2857  10.2857  10.2857  10.2858  10.2858
    10.2858  10.2858  10.2858  10.2858  10.2858  10.2858  10.2858  10.2858
    11.9836  11.9836  11.9836  11.9836  11.9836  11.9836  11.9836  11.9836
    11.9836  11.9836  11.9836  11.9836  11.9836  11.9836  11.9836  11.9836
    11.9988  11.9988  11.9988  11.9988  11.9988  11.9988  11.9988  11.9988
    11.9988  11.9988  11.9988  11.9988  11.9988  11.9988  11.9988  11.9988
    12.1580  12.1580  12.1580  12.1580  12.1580  12.1580  12.1580  12.1580
    16.0030  16.0030

     the Fermi energy is    10.6657 ev

!    total energy              =   -5267.25413675 Ry

     total all-electron energy =    -40727.998666 Ry
     estimated scf accuracy    <       0.00000004 Ry
     smearing contrib. (-TS)   =       0.00838028 Ry
     internal energy E=F+TS    =   -5267.26251704 Ry

     The total energy is F=E-TS. E is the sum of the following terms:
     one-electron contribution =   -2383.29865570 Ry
     hartree contribution      =    1280.52759019 Ry
     xc contribution           =    -441.73818482 Ry
     ewald contribution        =   -2398.25699197 Ry
     one-center paw contrib.   =   -1324.49627473 Ry

     total magnetization       =    46.79 Bohr mag/cell
     absolute magnetization    =    50.67 Bohr mag/cell

     convergence has been achieved in  18 iterations

     negative rho (up, down):  0.000E+00 2.387E-03

     Forces acting on atoms (cartesian axes, Ry/au):

     atom    1 type  1   force =     0.00000000    0.00000000    0.00000000
     atom    2 type  2   force =    -0.00000086   -0.00000086   -0.00000086
     atom    3 type  1   force =     0.00000000    0.00000000    0.00000000
     atom    4 type  2   force =    -0.00000086   -0.00000086    0.00000086
     atom    5 type  1   force =     0.00000000    0.00000000    0.00000000
     atom    6 type  2   force =    -0.00000086    0.00000086   -0.00000086
     atom    7 type  1   force =     0.00000000    0.00000000    0.00000000
     atom    8 type  2   force =    -0.00000086    0.00000086    0.00000086
     atom    9 type  1   force =     0.00000000    0.00000000    0.00000000
     atom   10 type  2   force =     0.00000086   -0.00000086   -0.00000086
     atom   11 type  1   force =     0.00000000    0.00000000    0.00000000
     atom   12 type  2   force =     0.00000086   -0.00000086    0.00000086
     atom   13 type  1   force =     0.00000000    0.00000000    0.00000000
     atom   14 type  2   force =     0.00000086    0.00000086   -0.00000086
     atom   15 type  1   force =     0.00000000    0.00000000    0.00000000
     atom   16 type  2   force =     0.00000086    0.00000086    0.00000086

     Total force =     0.000004     Total SCF correction =     0.000029
     SCF correction compared to forces is large: reduce conv_thr to get better values


     Computing stress (Cartesian axis) and pressure


     negative rho (up, down):  0.000E+00 2.387E-03
          total   stress  (Ry/bohr**3)                   (kbar)     P=     -300.13
  -0.00204024   0.00000000   0.00000000         -300.13        0.00        0.00
   0.00000000  -0.00204024   0.00000000            0.00     -300.13        0.00
   0.00000000   0.00000000  -0.00204024            0.00        0.00     -300.13


     Writing output data file /scratch/xkgJwqUxZzdoUWvg.save/
 
     init_run     :      6.79s CPU      7.00s WALL (       1 calls)
     electrons    :    396.94s CPU    402.90s WALL (       1 calls)
     forces       :      2.32s CPU      2.36s WALL (       1 calls)
     stress       :      5.66s CPU      5.71s WALL (       1 calls)

     Called by init_run:
     wfcinit      :      6.10s CPU      6.23s WALL (       1 calls)
     potinit      :      0.23s CPU      0.25s WALL (       1 calls)
     hinit0       :      0.11s CPU      0.11s WALL (       1 calls)

     Called by electrons:
     c_bands      :    345.37s CPU    349.88s WALL (      19 calls)
     sum_band     :     48.20s CPU     49.20s WALL (      19 calls)
     v_of_rho     :      0.46s CPU      0.49s WALL (      19 calls)
     newd         :      0.57s CPU      0.73s WALL (      19 calls)
     PAW_pot      :      2.19s CPU      2.43s WALL (      19 calls)
     mix_rho      :      0.26s CPU      0.28s WALL (      19 calls)

     Called by c_bands:
     init_us_2    :      2.11s CPU      2.21s WALL (    2870 calls)
     cegterg      :    338.90s CPU    343.27s WALL (    1330 calls)

     Called by *egterg:
     cdiaghg      :     57.35s CPU     57.64s WALL (    6319 calls)
     h_psi        :    210.46s CPU    214.05s WALL (    6459 calls)
     s_psi        :      7.63s CPU      7.72s WALL (    6459 calls)
     g_psi        :      0.32s CPU      0.33s WALL (    5059 calls)

     Called by h_psi:
     h_psi:calbec :     19.43s CPU     19.59s WALL (    6459 calls)
     vloc_psi     :    181.57s CPU    184.89s WALL (    6459 calls)
     add_vuspsi   :      8.75s CPU      8.85s WALL (    6459 calls)

     General routines
     calbec       :     28.73s CPU     28.97s WALL (    8139 calls)
     fft          :      0.40s CPU      0.41s WALL (     515 calls)
     ffts         :      0.14s CPU      0.15s WALL (     449 calls)
     fftw         :    214.20s CPU    218.05s WALL ( 1222828 calls)
     interpolate  :      0.04s CPU      0.04s WALL (      38 calls)
 
     Parallel routines
     fft_scatt_xy :      9.22s CPU      9.38s WALL ( 1223792 calls)
     fft_scatt_yz :    187.83s CPU    191.27s WALL ( 1223792 calls)
 
     PWSCF        :   7m 0.50s CPU   7m 7.91s WALL

 
   This run was terminated on:  14:15: 9  17Jan2022            

=------------------------------------------------------------------------------=
   JOB DONE.
=------------------------------------------------------------------------------=
