
     Program PWSCF v.6.7MaX starts on 17Jan2022 at 15:19:46 

     This program is part of the open-source Quantum ESPRESSO suite
     for quantum simulation of materials; please cite
         "P. Giannozzi et al., J. Phys.:Condens. Matter 21 395502 (2009);
         "P. Giannozzi et al., J. Phys.:Condens. Matter 29 465901 (2017);
          URL http://www.quantum-espresso.org", 
     in publications or presentations arising from this work. More details at
     http://www.quantum-espresso.org/quote

     Parallel version (MPI & OpenMP), running on      72 processor cores
     Number of MPI processes:                72
     Threads/MPI process:                     1

     MPI processes distributed on     1 nodes
     R & G space division:  proc/nbgrp/npool/nimage =      72
     Reading input from bcc_13.in
Warning: card &CELL ignored
Warning: card CELL_DYNAMICS = 'BFGS', ignored
Warning: card CELL_FACTOR = 2.0, ignored
Warning: card PRESS = 0.0, ignored
Warning: card / ignored

     Current dimensions of program PWSCF are:
     Max number of different atomic species (ntypx) = 10
     Max number of k-points (npk) =  40000
     Max angular momentum in pseudopotentials (lmaxx) =  3
     file Fe.pbe-spn-kjpaw_psl.1.0.0.UPF: wavefunction(s)  3P 3D renormalized
     file Fe.pbe-spn-kjpaw_psl.1.0.0.UPF: wavefunction(s)  3P 3D renormalized

     Subspace diagonalization in iterative solution of the eigenvalue problem:
     one sub-group per band group will be used
     ELPA distributed-memory algorithm (size of sub-group:  8*  8 procs)

     Found symmetry operation: I + (  0.0000  0.0000 -0.5000)
     This is a supercell, fractional translations are disabled
     Message from routine setup:
     using ibrav=0 with symmetry is DISCOURAGED, use correct ibrav instead
 
     Parallelization info
     --------------------
     sticks:   dense  smooth     PW     G-vecs:    dense   smooth      PW
     Min         118      78     21                 8258     4432     623
     Max         119      79     22                 8267     4441     627
     Sum        8553    5637   1533               594865   319249   45025
 


     bravais-lattice index     =            0
     lattice parameter (alat)  =      10.2690  a.u.
     unit-cell volume          =    3950.9954 (a.u.)^3
     number of atoms/cell      =           16
     number of atomic types    =            2
     number of electrons       =       256.00
     number of Kohn-Sham states=          154
     kinetic-energy cutoff     =      71.0000  Ry
     charge density cutoff     =     430.0000  Ry
     scf convergence threshold =      1.0E-07
     mixing beta               =       0.1000
     number of iterations used =           10  local-TF  mixing
     Exchange-correlation= SLA  PW   PBX  PBC
                           (   1   4   3   4   0   0   0)

     celldm(1)=  10.269041  celldm(2)=   0.000000  celldm(3)=   0.000000
     celldm(4)=   0.000000  celldm(5)=   0.000000  celldm(6)=   0.000000

     crystal axes: (cart. coord. in units of alat)
               a(1) = (   1.539474   0.000000   0.000000 )  
               a(2) = (   0.000000   1.539474   0.000000 )  
               a(3) = (   0.000000   0.000000   1.539474 )  

     reciprocal axes: (cart. coord. in units 2 pi/alat)
               b(1) = (  0.649573  0.000000  0.000000 )  
               b(2) = (  0.000000  0.649573  0.000000 )  
               b(3) = (  0.000000  0.000000  0.649573 )  


     PseudoPot. # 1 for Fe read from file:
     /rds/homes/b/bxp912/pp/Fe.pbe-spn-kjpaw_psl.1.0.0.UPF
     MD5 check sum: 42f43b795421b414b0dc916aa790dbcb
     Pseudo is Projector augmented-wave + core cor, Zval = 16.0
     Generated using &quot;atomic&quot; code by A. Dal Corso  v.6.3
     Shape of augmentation charge: PSQ
     Using radial grid of 1191 points,  6 beta functions with: 
                l(1) =   0
                l(2) =   0
                l(3) =   1
                l(4) =   1
                l(5) =   2
                l(6) =   2
     Q(r) pseudized with 0 coefficients 


     PseudoPot. # 2 for Fe read from file:
     /rds/homes/b/bxp912/pp/Fe.pbe-spn-kjpaw_psl.1.0.0.UPF
     MD5 check sum: 42f43b795421b414b0dc916aa790dbcb
     Pseudo is Projector augmented-wave + core cor, Zval = 16.0
     Generated using &quot;atomic&quot; code by A. Dal Corso  v.6.3
     Shape of augmentation charge: PSQ
     Using radial grid of 1191 points,  6 beta functions with: 
                l(1) =   0
                l(2) =   0
                l(3) =   1
                l(4) =   1
                l(5) =   2
                l(6) =   2
     Q(r) pseudized with 0 coefficients 


     atomic species   valence    mass     pseudopotential
        Fe1           16.00    55.84500     Fe( 1.00)
        Fe2           16.00    55.84500     Fe( 1.00)

     Starting magnetic structure 
     atomic species   magnetization
        Fe1          0.100
        Fe2          0.100

     48 Sym. Ops., with inversion, found



   Cartesian axes

     site n.     atom                  positions (alat units)
         1           Fe1 tau(   1) = (   0.0000000   0.0000000   0.0000000  )
         2           Fe2 tau(   2) = (   0.3848684   0.3848684   0.3848684  )
         3           Fe1 tau(   3) = (   0.0000000   0.0000000   0.7697368  )
         4           Fe2 tau(   4) = (   0.3848684   0.3848684   1.1546053  )
         5           Fe1 tau(   5) = (   0.0000000   0.7697368   0.0000000  )
         6           Fe2 tau(   6) = (   0.3848684   1.1546053   0.3848684  )
         7           Fe1 tau(   7) = (   0.0000000   0.7697368   0.7697368  )
         8           Fe2 tau(   8) = (   0.3848684   1.1546053   1.1546053  )
         9           Fe1 tau(   9) = (   0.7697368   0.0000000   0.0000000  )
        10           Fe2 tau(  10) = (   1.1546053   0.3848684   0.3848684  )
        11           Fe1 tau(  11) = (   0.7697368   0.0000000   0.7697368  )
        12           Fe2 tau(  12) = (   1.1546053   0.3848684   1.1546053  )
        13           Fe1 tau(  13) = (   0.7697368   0.7697368   0.0000000  )
        14           Fe2 tau(  14) = (   1.1546053   1.1546053   0.3848684  )
        15           Fe1 tau(  15) = (   0.7697368   0.7697368   0.7697368  )
        16           Fe2 tau(  16) = (   1.1546053   1.1546053   1.1546053  )

     number of k points=    35  Marzari-Vanderbilt smearing, width (Ry)=  0.0400
                       cart. coord. in units 2pi/alat
        k(    1) = (   0.0360874   0.0360874   0.0360874), wk =   0.0109739
        k(    2) = (   0.0360874   0.0360874   0.1082621), wk =   0.0329218
        k(    3) = (   0.0360874   0.0360874   0.1804368), wk =   0.0329218
        k(    4) = (   0.0360874   0.0360874   0.2526116), wk =   0.0329218
        k(    5) = (   0.0360874   0.0360874  -0.3247863), wk =   0.0164609
        k(    6) = (   0.0360874   0.1082621   0.1082621), wk =   0.0329218
        k(    7) = (   0.0360874   0.1082621   0.1804368), wk =   0.0658436
        k(    8) = (   0.0360874   0.1082621   0.2526116), wk =   0.0658436
        k(    9) = (   0.0360874   0.1082621  -0.3247863), wk =   0.0329218
        k(   10) = (   0.0360874   0.1804368   0.1804368), wk =   0.0329218
        k(   11) = (   0.0360874   0.1804368   0.2526116), wk =   0.0658436
        k(   12) = (   0.0360874   0.1804368  -0.3247863), wk =   0.0329218
        k(   13) = (   0.0360874   0.2526116   0.2526116), wk =   0.0329218
        k(   14) = (   0.0360874   0.2526116  -0.3247863), wk =   0.0329218
        k(   15) = (   0.0360874  -0.3247863  -0.3247863), wk =   0.0082305
        k(   16) = (   0.1082621   0.1082621   0.1082621), wk =   0.0109739
        k(   17) = (   0.1082621   0.1082621   0.1804368), wk =   0.0329218
        k(   18) = (   0.1082621   0.1082621   0.2526116), wk =   0.0329218
        k(   19) = (   0.1082621   0.1082621  -0.3247863), wk =   0.0164609
        k(   20) = (   0.1082621   0.1804368   0.1804368), wk =   0.0329218
        k(   21) = (   0.1082621   0.1804368   0.2526116), wk =   0.0658436
        k(   22) = (   0.1082621   0.1804368  -0.3247863), wk =   0.0329218
        k(   23) = (   0.1082621   0.2526116   0.2526116), wk =   0.0329218
        k(   24) = (   0.1082621   0.2526116  -0.3247863), wk =   0.0329218
        k(   25) = (   0.1082621  -0.3247863  -0.3247863), wk =   0.0082305
        k(   26) = (   0.1804368   0.1804368   0.1804368), wk =   0.0109739
        k(   27) = (   0.1804368   0.1804368   0.2526116), wk =   0.0329218
        k(   28) = (   0.1804368   0.1804368  -0.3247863), wk =   0.0164609
        k(   29) = (   0.1804368   0.2526116   0.2526116), wk =   0.0329218
        k(   30) = (   0.1804368   0.2526116  -0.3247863), wk =   0.0329218
        k(   31) = (   0.1804368  -0.3247863  -0.3247863), wk =   0.0082305
        k(   32) = (   0.2526116   0.2526116   0.2526116), wk =   0.0109739
        k(   33) = (   0.2526116   0.2526116  -0.3247863), wk =   0.0164609
        k(   34) = (   0.2526116  -0.3247863  -0.3247863), wk =   0.0082305
        k(   35) = (  -0.3247863  -0.3247863  -0.3247863), wk =   0.0013717

     Dense  grid:   594865 G-vectors     FFT dimensions: ( 108, 108, 108)

     Smooth grid:   319249 G-vectors     FFT dimensions: (  90,  90,  90)

     Estimated max dynamical RAM per process >     134.30 MB

     Estimated total dynamical RAM >       9.44 GB

     Check: negative core charge=   -0.000003
     Generating pointlists ...
     new r_m :   0.2750 (alat units)  2.8238 (a.u.) for type    1
     new r_m :   0.2750 (alat units)  2.8238 (a.u.) for type    2

     Initial potential from superposition of free atoms

     starting charge  255.99300, renormalised to  256.00000
     Starting wfcs are  160 randomized atomic wfcs
     Checking if some PAW data can be deallocated... 

     total cpu time spent up to now is       13.1 secs

     Self-consistent Calculation

     iteration #  1     ecut=    71.00 Ry     beta= 0.10
     Davidson diagonalization with overlap
     ethr =  1.00E-02,  avg # of iterations =  2.3

     total cpu time spent up to now is       40.9 secs

     total energy              =   -5263.87779280 Ry
     estimated scf accuracy    <       8.32875504 Ry

     total magnetization       =    43.86 Bohr mag/cell
     absolute magnetization    =    43.86 Bohr mag/cell

     iteration #  2     ecut=    71.00 Ry     beta= 0.10
     Davidson diagonalization with overlap
     ethr =  3.25E-03,  avg # of iterations =  1.5

     total cpu time spent up to now is       65.7 secs

     total energy              =   -5263.42926705 Ry
     estimated scf accuracy    <       4.54034720 Ry

     total magnetization       =    45.68 Bohr mag/cell
     absolute magnetization    =    45.69 Bohr mag/cell

     iteration #  3     ecut=    71.00 Ry     beta= 0.10
     Davidson diagonalization with overlap
     ethr =  1.77E-03,  avg # of iterations =  3.6

     total cpu time spent up to now is       94.7 secs

     total energy              =   -5263.99458140 Ry
     estimated scf accuracy    <       0.63709191 Ry

     total magnetization       =    50.14 Bohr mag/cell
     absolute magnetization    =    50.71 Bohr mag/cell

     iteration #  4     ecut=    71.00 Ry     beta= 0.10
     Davidson diagonalization with overlap
     ethr =  2.49E-04,  avg # of iterations =  5.4

     negative rho (up, down):  0.000E+00 1.285E-04

     total cpu time spent up to now is      129.4 secs

     total energy              =   -5264.30045643 Ry
     estimated scf accuracy    <       0.49999520 Ry

     total magnetization       =    51.07 Bohr mag/cell
     absolute magnetization    =    51.86 Bohr mag/cell

     iteration #  5     ecut=    71.00 Ry     beta= 0.10
     Davidson diagonalization with overlap
     ethr =  1.95E-04,  avg # of iterations =  2.0

     negative rho (up, down):  0.000E+00 4.783E-03

     total cpu time spent up to now is      155.2 secs

     total energy              =   -5264.40288902 Ry
     estimated scf accuracy    <       0.16578224 Ry

     total magnetization       =    51.46 Bohr mag/cell
     absolute magnetization    =    52.67 Bohr mag/cell

     iteration #  6     ecut=    71.00 Ry     beta= 0.10
     Davidson diagonalization with overlap
     ethr =  6.48E-05,  avg # of iterations =  5.6

     negative rho (up, down):  0.000E+00 5.473E-03

     total cpu time spent up to now is      190.8 secs

     total energy              =   -5264.44985111 Ry
     estimated scf accuracy    <       0.02965394 Ry

     total magnetization       =    51.80 Bohr mag/cell
     absolute magnetization    =    54.75 Bohr mag/cell

     iteration #  7     ecut=    71.00 Ry     beta= 0.10
     Davidson diagonalization with overlap
     ethr =  1.16E-05,  avg # of iterations =  4.2

     negative rho (up, down):  0.000E+00 5.096E-03

     total cpu time spent up to now is      221.6 secs

     total energy              =   -5264.44490945 Ry
     estimated scf accuracy    <       0.02171592 Ry

     total magnetization       =    51.80 Bohr mag/cell
     absolute magnetization    =    55.03 Bohr mag/cell

     iteration #  8     ecut=    71.00 Ry     beta= 0.10
     Davidson diagonalization with overlap
     ethr =  8.48E-06,  avg # of iterations =  2.7

     negative rho (up, down):  0.000E+00 5.141E-03

     total cpu time spent up to now is      249.3 secs

     total energy              =   -5264.42805797 Ry
     estimated scf accuracy    <       0.04332357 Ry

     total magnetization       =    51.86 Bohr mag/cell
     absolute magnetization    =    55.03 Bohr mag/cell

     iteration #  9     ecut=    71.00 Ry     beta= 0.10
     Davidson diagonalization with overlap
     ethr =  8.48E-06,  avg # of iterations =  6.9

     negative rho (up, down):  0.000E+00 5.904E-03

     total cpu time spent up to now is      298.6 secs

     total energy              =   -5264.44592687 Ry
     estimated scf accuracy    <       0.13004097 Ry

     total magnetization       =    51.08 Bohr mag/cell
     absolute magnetization    =    54.61 Bohr mag/cell

     iteration # 10     ecut=    71.00 Ry     beta= 0.10
     Davidson diagonalization with overlap
     ethr =  8.48E-06,  avg # of iterations =  5.4

     negative rho (up, down):  0.000E+00 5.540E-03

     total cpu time spent up to now is      344.5 secs

     total energy              =   -5264.46385426 Ry
     estimated scf accuracy    <       0.01902635 Ry

     total magnetization       =    51.56 Bohr mag/cell
     absolute magnetization    =    56.04 Bohr mag/cell

     iteration # 11     ecut=    71.00 Ry     beta= 0.10
     Davidson diagonalization with overlap
     ethr =  7.43E-06,  avg # of iterations =  3.1

     negative rho (up, down):  0.000E+00 5.616E-03

     total cpu time spent up to now is      375.4 secs

     total energy              =   -5264.46493762 Ry
     estimated scf accuracy    <       0.01320479 Ry

     total magnetization       =    51.69 Bohr mag/cell
     absolute magnetization    =    55.91 Bohr mag/cell

     iteration # 12     ecut=    71.00 Ry     beta= 0.10
     Davidson diagonalization with overlap
     ethr =  5.16E-06,  avg # of iterations =  2.0

     negative rho (up, down):  0.000E+00 5.497E-03

     total cpu time spent up to now is      402.0 secs

     total energy              =   -5264.46739090 Ry
     estimated scf accuracy    <       0.00281511 Ry

     total magnetization       =    51.58 Bohr mag/cell
     absolute magnetization    =    55.71 Bohr mag/cell

     iteration # 13     ecut=    71.00 Ry     beta= 0.10
     Davidson diagonalization with overlap
     ethr =  1.10E-06,  avg # of iterations =  4.2

     negative rho (up, down):  0.000E+00 5.416E-03

     total cpu time spent up to now is      433.7 secs

     total energy              =   -5264.46668011 Ry
     estimated scf accuracy    <       0.00118686 Ry

     total magnetization       =    51.63 Bohr mag/cell
     absolute magnetization    =    55.61 Bohr mag/cell

     iteration # 14     ecut=    71.00 Ry     beta= 0.10
     Davidson diagonalization with overlap
     ethr =  4.64E-07,  avg # of iterations =  5.7

     negative rho (up, down):  0.000E+00 5.450E-03

     total cpu time spent up to now is      468.9 secs

     total energy              =   -5264.46755036 Ry
     estimated scf accuracy    <       0.00406054 Ry

     total magnetization       =    51.68 Bohr mag/cell
     absolute magnetization    =    55.60 Bohr mag/cell

     iteration # 15     ecut=    71.00 Ry     beta= 0.10
     Davidson diagonalization with overlap
     ethr =  4.64E-07,  avg # of iterations =  1.1

     negative rho (up, down):  0.000E+00 5.257E-03

     total cpu time spent up to now is      493.0 secs

     total energy              =   -5264.46803251 Ry
     estimated scf accuracy    <       0.00438702 Ry

     total magnetization       =    51.68 Bohr mag/cell
     absolute magnetization    =    55.61 Bohr mag/cell

     iteration # 16     ecut=    71.00 Ry     beta= 0.10
     Davidson diagonalization with overlap
     ethr =  4.64E-07,  avg # of iterations =  4.1

     negative rho (up, down):  0.000E+00 5.446E-03

     total cpu time spent up to now is      524.5 secs

     total energy              =   -5264.46900466 Ry
     estimated scf accuracy    <       0.01026353 Ry

     total magnetization       =    51.72 Bohr mag/cell
     absolute magnetization    =    55.55 Bohr mag/cell

     iteration # 17     ecut=    71.00 Ry     beta= 0.10
     Davidson diagonalization with overlap
     ethr =  4.64E-07,  avg # of iterations =  5.5

     negative rho (up, down):  0.000E+00 5.443E-03

     total cpu time spent up to now is      565.0 secs

     total energy              =   -5264.46989045 Ry
     estimated scf accuracy    <       0.01158099 Ry

     total magnetization       =    51.71 Bohr mag/cell
     absolute magnetization    =    55.69 Bohr mag/cell

     iteration # 18     ecut=    71.00 Ry     beta= 0.10
     Davidson diagonalization with overlap
     ethr =  4.64E-07,  avg # of iterations =  5.0

     negative rho (up, down):  0.000E+00 5.462E-03

     total cpu time spent up to now is      596.6 secs

     total energy              =   -5264.47028568 Ry
     estimated scf accuracy    <       0.00737156 Ry

     total magnetization       =    51.69 Bohr mag/cell
     absolute magnetization    =    55.62 Bohr mag/cell

     iteration # 19     ecut=    71.00 Ry     beta= 0.10
     Davidson diagonalization with overlap
     ethr =  4.64E-07,  avg # of iterations =  2.0

     negative rho (up, down):  0.000E+00 5.435E-03

     total cpu time spent up to now is      622.5 secs

     total energy              =   -5264.46962500 Ry
     estimated scf accuracy    <       0.00623457 Ry

     total magnetization       =    51.69 Bohr mag/cell
     absolute magnetization    =    55.60 Bohr mag/cell

     iteration # 20     ecut=    71.00 Ry     beta= 0.10
     Davidson diagonalization with overlap
     ethr =  4.64E-07,  avg # of iterations =  4.1

     negative rho (up, down):  0.000E+00 5.385E-03

     total cpu time spent up to now is      653.4 secs

     total energy              =   -5264.46949534 Ry
     estimated scf accuracy    <       0.00224924 Ry

     total magnetization       =    51.66 Bohr mag/cell
     absolute magnetization    =    55.49 Bohr mag/cell

     iteration # 21     ecut=    71.00 Ry     beta= 0.10
     Davidson diagonalization with overlap
     ethr =  4.64E-07,  avg # of iterations =  3.2

     negative rho (up, down):  0.000E+00 5.388E-03

     total cpu time spent up to now is      681.8 secs

     total energy              =   -5264.46956898 Ry
     estimated scf accuracy    <       0.00074278 Ry

     total magnetization       =    51.64 Bohr mag/cell
     absolute magnetization    =    55.39 Bohr mag/cell

     iteration # 22     ecut=    71.00 Ry     beta= 0.10
     Davidson diagonalization with overlap
     ethr =  2.90E-07,  avg # of iterations =  3.3

     negative rho (up, down):  0.000E+00 5.366E-03

     total cpu time spent up to now is      709.7 secs

     total energy              =   -5264.46950292 Ry
     estimated scf accuracy    <       0.00044762 Ry

     total magnetization       =    51.64 Bohr mag/cell
     absolute magnetization    =    55.38 Bohr mag/cell

     iteration # 23     ecut=    71.00 Ry     beta= 0.10
     Davidson diagonalization with overlap
     ethr =  1.75E-07,  avg # of iterations =  4.6

     negative rho (up, down):  0.000E+00 5.355E-03

     total cpu time spent up to now is      742.5 secs

     total energy              =   -5264.46959699 Ry
     estimated scf accuracy    <       0.00000881 Ry

     total magnetization       =    51.62 Bohr mag/cell
     absolute magnetization    =    55.29 Bohr mag/cell

     iteration # 24     ecut=    71.00 Ry     beta= 0.10
     Davidson diagonalization with overlap
     c_bands:  1 eigenvalues not converged
     c_bands:  1 eigenvalues not converged
     ethr =  3.44E-09,  avg # of iterations =  6.6

     negative rho (up, down):  0.000E+00 5.353E-03

     total cpu time spent up to now is      781.4 secs

     total energy              =   -5264.46960482 Ry
     estimated scf accuracy    <       0.00000835 Ry

     total magnetization       =    51.62 Bohr mag/cell
     absolute magnetization    =    55.29 Bohr mag/cell

     iteration # 25     ecut=    71.00 Ry     beta= 0.10
     Davidson diagonalization with overlap
     ethr =  3.26E-09,  avg # of iterations =  1.8

     negative rho (up, down):  0.000E+00 5.355E-03

     total cpu time spent up to now is      807.0 secs

     total energy              =   -5264.46960844 Ry
     estimated scf accuracy    <       0.00000505 Ry

     total magnetization       =    51.63 Bohr mag/cell
     absolute magnetization    =    55.29 Bohr mag/cell

     iteration # 26     ecut=    71.00 Ry     beta= 0.10
     Davidson diagonalization with overlap
     c_bands:  1 eigenvalues not converged
     ethr =  1.97E-09,  avg # of iterations =  3.0

     negative rho (up, down):  0.000E+00 5.352E-03

     total cpu time spent up to now is      836.1 secs

     total energy              =   -5264.46961003 Ry
     estimated scf accuracy    <       0.00000458 Ry

     total magnetization       =    51.63 Bohr mag/cell
     absolute magnetization    =    55.28 Bohr mag/cell

     iteration # 27     ecut=    71.00 Ry     beta= 0.10
     Davidson diagonalization with overlap
     ethr =  1.79E-09,  avg # of iterations =  4.6

     negative rho (up, down):  0.000E+00 5.351E-03

     total cpu time spent up to now is      866.5 secs

     total energy              =   -5264.46961292 Ry
     estimated scf accuracy    <       0.00000416 Ry

     total magnetization       =    51.63 Bohr mag/cell
     absolute magnetization    =    55.28 Bohr mag/cell

     iteration # 28     ecut=    71.00 Ry     beta= 0.10
     Davidson diagonalization with overlap
     ethr =  1.62E-09,  avg # of iterations =  3.8

     negative rho (up, down):  0.000E+00 5.354E-03

     total cpu time spent up to now is      899.1 secs

     total energy              =   -5264.46961289 Ry
     estimated scf accuracy    <       0.00001017 Ry

     total magnetization       =    51.63 Bohr mag/cell
     absolute magnetization    =    55.27 Bohr mag/cell

     iteration # 29     ecut=    71.00 Ry     beta= 0.10
     Davidson diagonalization with overlap
     ethr =  1.62E-09,  avg # of iterations =  3.9

     negative rho (up, down):  0.000E+00 5.353E-03

     total cpu time spent up to now is      932.3 secs

     total energy              =   -5264.46961448 Ry
     estimated scf accuracy    <       0.00000749 Ry

     total magnetization       =    51.63 Bohr mag/cell
     absolute magnetization    =    55.26 Bohr mag/cell

     iteration # 30     ecut=    71.00 Ry     beta= 0.10
     Davidson diagonalization with overlap
     ethr =  1.62E-09,  avg # of iterations =  1.0

     negative rho (up, down):  0.000E+00 5.356E-03

     total cpu time spent up to now is      956.0 secs

     total energy              =   -5264.46961438 Ry
     estimated scf accuracy    <       0.00000699 Ry

     total magnetization       =    51.63 Bohr mag/cell
     absolute magnetization    =    55.26 Bohr mag/cell

     iteration # 31     ecut=    71.00 Ry     beta= 0.10
     Davidson diagonalization with overlap
     ethr =  1.62E-09,  avg # of iterations =  3.9

     negative rho (up, down):  0.000E+00 5.355E-03

     total cpu time spent up to now is      987.7 secs

     total energy              =   -5264.46961441 Ry
     estimated scf accuracy    <       0.00000864 Ry

     total magnetization       =    51.63 Bohr mag/cell
     absolute magnetization    =    55.27 Bohr mag/cell

     iteration # 32     ecut=    71.00 Ry     beta= 0.10
     Davidson diagonalization with overlap
     ethr =  1.62E-09,  avg # of iterations =  3.6

     negative rho (up, down):  0.000E+00 5.355E-03

     total cpu time spent up to now is     1017.1 secs

     total energy              =   -5264.46961490 Ry
     estimated scf accuracy    <       0.00000623 Ry

     total magnetization       =    51.63 Bohr mag/cell
     absolute magnetization    =    55.27 Bohr mag/cell

     iteration # 33     ecut=    71.00 Ry     beta= 0.10
     Davidson diagonalization with overlap
     ethr =  1.62E-09,  avg # of iterations =  3.3

     negative rho (up, down):  0.000E+00 5.358E-03

     total cpu time spent up to now is     1045.8 secs

     total energy              =   -5264.46961475 Ry
     estimated scf accuracy    <       0.00000850 Ry

     total magnetization       =    51.63 Bohr mag/cell
     absolute magnetization    =    55.27 Bohr mag/cell

     iteration # 34     ecut=    71.00 Ry     beta= 0.10
     Davidson diagonalization with overlap
     ethr =  1.62E-09,  avg # of iterations =  2.2

     negative rho (up, down):  0.000E+00 5.349E-03

     total cpu time spent up to now is     1073.4 secs

     total energy              =   -5264.46961203 Ry
     estimated scf accuracy    <       0.00000724 Ry

     total magnetization       =    51.63 Bohr mag/cell
     absolute magnetization    =    55.27 Bohr mag/cell

     iteration # 35     ecut=    71.00 Ry     beta= 0.10
     Davidson diagonalization with overlap
     ethr =  1.62E-09,  avg # of iterations =  5.3

     negative rho (up, down):  0.000E+00 5.358E-03

     total cpu time spent up to now is     1112.6 secs

     total energy              =   -5264.46962333 Ry
     estimated scf accuracy    <       0.00003157 Ry

     total magnetization       =    51.63 Bohr mag/cell
     absolute magnetization    =    55.29 Bohr mag/cell

     iteration # 36     ecut=    71.00 Ry     beta= 0.10
     Davidson diagonalization with overlap
     ethr =  1.62E-09,  avg # of iterations =  4.9

     negative rho (up, down):  0.000E+00 5.360E-03

     total cpu time spent up to now is     1148.4 secs

     total energy              =   -5264.46962261 Ry
     estimated scf accuracy    <       0.00006556 Ry

     total magnetization       =    51.64 Bohr mag/cell
     absolute magnetization    =    55.30 Bohr mag/cell

     iteration # 37     ecut=    71.00 Ry     beta= 0.10
     Davidson diagonalization with overlap
     ethr =  1.62E-09,  avg # of iterations =  4.7

     negative rho (up, down):  0.000E+00 5.353E-03

     total cpu time spent up to now is     1181.2 secs

     total energy              =   -5264.46961338 Ry
     estimated scf accuracy    <       0.00006069 Ry

     total magnetization       =    51.64 Bohr mag/cell
     absolute magnetization    =    55.29 Bohr mag/cell

     iteration # 38     ecut=    71.00 Ry     beta= 0.10
     Davidson diagonalization with overlap
     ethr =  1.62E-09,  avg # of iterations =  5.6

     negative rho (up, down):  0.000E+00 5.354E-03

     total cpu time spent up to now is     1220.1 secs

     total energy              =   -5264.46961195 Ry
     estimated scf accuracy    <       0.00001541 Ry

     total magnetization       =    51.63 Bohr mag/cell
     absolute magnetization    =    55.27 Bohr mag/cell

     iteration # 39     ecut=    71.00 Ry     beta= 0.10
     Davidson diagonalization with overlap
     c_bands:  1 eigenvalues not converged
     ethr =  1.62E-09,  avg # of iterations =  7.6

     negative rho (up, down):  0.000E+00 5.354E-03

     total cpu time spent up to now is     1264.8 secs

     total energy              =   -5264.46961591 Ry
     estimated scf accuracy    <       0.00001567 Ry

     total magnetization       =    51.63 Bohr mag/cell
     absolute magnetization    =    55.26 Bohr mag/cell

     iteration # 40     ecut=    71.00 Ry     beta= 0.10
     Davidson diagonalization with overlap
     ethr =  1.62E-09,  avg # of iterations =  4.3

     negative rho (up, down):  0.000E+00 5.357E-03

     total cpu time spent up to now is     1298.2 secs

     total energy              =   -5264.46961676 Ry
     estimated scf accuracy    <       0.00003091 Ry

     total magnetization       =    51.63 Bohr mag/cell
     absolute magnetization    =    55.26 Bohr mag/cell

     iteration # 41     ecut=    71.00 Ry     beta= 0.10
     Davidson diagonalization with overlap
     ethr =  1.62E-09,  avg # of iterations =  1.9

     negative rho (up, down):  0.000E+00 5.357E-03

     total cpu time spent up to now is     1324.2 secs

     total energy              =   -5264.46961599 Ry
     estimated scf accuracy    <       0.00002135 Ry

     total magnetization       =    51.63 Bohr mag/cell
     absolute magnetization    =    55.26 Bohr mag/cell

     iteration # 42     ecut=    71.00 Ry     beta= 0.10
     Davidson diagonalization with overlap
     ethr =  1.62E-09,  avg # of iterations =  1.9

     negative rho (up, down):  0.000E+00 5.358E-03

     total cpu time spent up to now is     1350.2 secs

     total energy              =   -5264.46961700 Ry
     estimated scf accuracy    <       0.00002075 Ry

     total magnetization       =    51.63 Bohr mag/cell
     absolute magnetization    =    55.26 Bohr mag/cell

     iteration # 43     ecut=    71.00 Ry     beta= 0.10
     Davidson diagonalization with overlap
     ethr =  1.62E-09,  avg # of iterations =  4.1

     negative rho (up, down):  0.000E+00 5.355E-03

     total cpu time spent up to now is     1384.4 secs

     total energy              =   -5264.46961585 Ry
     estimated scf accuracy    <       0.00001359 Ry

     total magnetization       =    51.63 Bohr mag/cell
     absolute magnetization    =    55.26 Bohr mag/cell

     iteration # 44     ecut=    71.00 Ry     beta= 0.10
     Davidson diagonalization with overlap
     ethr =  1.62E-09,  avg # of iterations =  3.8

     negative rho (up, down):  0.000E+00 5.355E-03

     total cpu time spent up to now is     1417.9 secs

     total energy              =   -5264.46961658 Ry
     estimated scf accuracy    <       0.00000515 Ry

     total magnetization       =    51.63 Bohr mag/cell
     absolute magnetization    =    55.27 Bohr mag/cell

     iteration # 45     ecut=    71.00 Ry     beta= 0.10
     Davidson diagonalization with overlap
     ethr =  1.62E-09,  avg # of iterations =  1.0

     negative rho (up, down):  0.000E+00 5.354E-03

     total cpu time spent up to now is     1441.2 secs

     total energy              =   -5264.46961594 Ry
     estimated scf accuracy    <       0.00000431 Ry

     total magnetization       =    51.63 Bohr mag/cell
     absolute magnetization    =    55.27 Bohr mag/cell

     iteration # 46     ecut=    71.00 Ry     beta= 0.10
     Davidson diagonalization with overlap
     ethr =  1.62E-09,  avg # of iterations =  3.3

     negative rho (up, down):  0.000E+00 5.354E-03

     total cpu time spent up to now is     1470.1 secs

     total energy              =   -5264.46961661 Ry
     estimated scf accuracy    <       0.00000071 Ry

     total magnetization       =    51.63 Bohr mag/cell
     absolute magnetization    =    55.27 Bohr mag/cell

     iteration # 47     ecut=    71.00 Ry     beta= 0.10
     Davidson diagonalization with overlap
     c_bands:  1 eigenvalues not converged
     c_bands:  1 eigenvalues not converged
     ethr =  2.76E-10,  avg # of iterations =  6.3

     negative rho (up, down):  0.000E+00 5.356E-03

     total cpu time spent up to now is     1504.5 secs

     total energy              =   -5264.46961722 Ry
     estimated scf accuracy    <       0.00000048 Ry

     total magnetization       =    51.63 Bohr mag/cell
     absolute magnetization    =    55.27 Bohr mag/cell

     iteration # 48     ecut=    71.00 Ry     beta= 0.10
     Davidson diagonalization with overlap
     ethr =  1.88E-10,  avg # of iterations =  5.1

     negative rho (up, down):  0.000E+00 5.357E-03

     total cpu time spent up to now is     1537.3 secs

     total energy              =   -5264.46961736 Ry
     estimated scf accuracy    <       0.00000086 Ry

     total magnetization       =    51.63 Bohr mag/cell
     absolute magnetization    =    55.27 Bohr mag/cell

     iteration # 49     ecut=    71.00 Ry     beta= 0.10
     Davidson diagonalization with overlap
     ethr =  1.88E-10,  avg # of iterations =  5.5

     negative rho (up, down):  0.000E+00 5.357E-03

     total cpu time spent up to now is     1573.2 secs

     total energy              =   -5264.46961752 Ry
     estimated scf accuracy    <       0.00000033 Ry

     total magnetization       =    51.63 Bohr mag/cell
     absolute magnetization    =    55.27 Bohr mag/cell

     iteration # 50     ecut=    71.00 Ry     beta= 0.10
     Davidson diagonalization with overlap
     ethr =  1.29E-10,  avg # of iterations =  1.9

     negative rho (up, down):  0.000E+00 5.356E-03

     total cpu time spent up to now is     1599.0 secs

     total energy              =   -5264.46961758 Ry
     estimated scf accuracy    <       0.00000017 Ry

     total magnetization       =    51.63 Bohr mag/cell
     absolute magnetization    =    55.27 Bohr mag/cell

     iteration # 51     ecut=    71.00 Ry     beta= 0.10
     Davidson diagonalization with overlap
     c_bands:  1 eigenvalues not converged
     ethr =  6.82E-11,  avg # of iterations =  5.0

     negative rho (up, down):  0.000E+00 5.354E-03

     total cpu time spent up to now is     1631.7 secs

     total energy              =   -5264.46961763 Ry
     estimated scf accuracy    <       0.00000016 Ry

     total magnetization       =    51.63 Bohr mag/cell
     absolute magnetization    =    55.27 Bohr mag/cell

     iteration # 52     ecut=    71.00 Ry     beta= 0.10
     Davidson diagonalization with overlap
     c_bands:  1 eigenvalues not converged
     ethr =  6.44E-11,  avg # of iterations =  6.3

     negative rho (up, down):  0.000E+00 5.354E-03

     total cpu time spent up to now is     1669.3 secs

     total energy              =   -5264.46961772 Ry
     estimated scf accuracy    <       0.00000023 Ry

     total magnetization       =    51.63 Bohr mag/cell
     absolute magnetization    =    55.27 Bohr mag/cell

     iteration # 53     ecut=    71.00 Ry     beta= 0.10
     Davidson diagonalization with overlap
     ethr =  6.44E-11,  avg # of iterations =  1.4

     negative rho (up, down):  0.000E+00 5.354E-03

     total cpu time spent up to now is     1694.1 secs

     total energy              =   -5264.46961772 Ry
     estimated scf accuracy    <       0.00000016 Ry

     total magnetization       =    51.63 Bohr mag/cell
     absolute magnetization    =    55.27 Bohr mag/cell

     iteration # 54     ecut=    71.00 Ry     beta= 0.10
     Davidson diagonalization with overlap
     ethr =  6.19E-11,  avg # of iterations =  3.1

     negative rho (up, down):  0.000E+00 5.356E-03
 
     Magnetic moment per site:
     atom:    1    charge:   15.1678    magn:    3.3186    constr:    0.0000
     atom:    2    charge:   15.1686    magn:    3.3282    constr:    0.0000
     atom:    3    charge:   15.1688    magn:    3.3296    constr:    0.0000
     atom:    4    charge:   15.1686    magn:    3.3282    constr:    0.0000
     atom:    5    charge:   15.1688    magn:    3.3296    constr:    0.0000
     atom:    6    charge:   15.1686    magn:    3.3282    constr:    0.0000
     atom:    7    charge:   15.1689    magn:    3.3314    constr:    0.0000
     atom:    8    charge:   15.1686    magn:    3.3282    constr:    0.0000
     atom:    9    charge:   15.1688    magn:    3.3296    constr:    0.0000
     atom:   10    charge:   15.1686    magn:    3.3282    constr:    0.0000
     atom:   11    charge:   15.1689    magn:    3.3314    constr:    0.0000
     atom:   12    charge:   15.1686    magn:    3.3282    constr:    0.0000
     atom:   13    charge:   15.1689    magn:    3.3314    constr:    0.0000
     atom:   14    charge:   15.1686    magn:    3.3282    constr:    0.0000
     atom:   15    charge:   15.1681    magn:    3.3239    constr:    0.0000
     atom:   16    charge:   15.1686    magn:    3.3282    constr:    0.0000

     total cpu time spent up to now is     1721.1 secs

     End of self-consistent calculation

 ------ SPIN UP ------------


          k = 0.0361 0.0361 0.0361 ( 39904 PWs)   bands (ev):

   -85.4234 -85.4234 -85.4234 -85.4221 -85.4221 -85.4220 -85.4211 -85.4211
   -85.4211 -85.4211 -85.4211 -85.4211 -85.4211 -85.4210 -85.4185 -85.4146
   -51.4861 -51.4860 -51.4860 -51.4856 -51.4855 -51.4855 -51.4851 -51.4851
   -51.4851 -51.4844 -51.4844 -51.4844 -51.4842 -51.4841 -51.4841 -51.4839
   -51.4839 -51.4839 -51.4835 -51.4835 -51.4834 -51.4834 -51.4834 -51.4833
   -51.4833 -51.4833 -51.4833 -51.4833 -51.4823 -51.4822 -51.4822 -51.4822
   -51.4822 -51.4822 -51.4821 -51.4821 -51.4821 -51.4818 -51.4817 -51.4817
   -51.4817 -51.4817 -51.4800 -51.4800 -51.4799 -51.4766 -51.4766 -51.4766
    -0.7275   0.3979   0.3979   0.4901   0.4901   0.4903   0.4912   0.4912
     0.4914   0.5700   0.5702   0.5702   0.5883   0.5887   0.5887   0.6070
     0.6079   0.6079   0.6449   0.6458   0.6458   0.8091   0.8102   0.8102
     0.8124   0.8124   0.8135   0.8324   0.8324   0.8393   0.8393   0.8396
     0.8405   0.8405   0.8413   0.8413   0.8447   0.8456   0.8456   0.8746
     0.9031   0.9031   0.9363   0.9363   0.9436   0.9436   0.9443   0.9492
     0.9626   0.9626   0.9632   0.9646   0.9646   0.9655   1.0140   1.0140
     1.0164   1.0281   1.0297   1.0297   1.0432   1.0432   1.0440   1.0569
     1.0586   1.0586   1.1187   1.1187   1.1197   1.1494   1.1494   1.1519
     1.2914   1.2986   1.2986   1.3295   1.3295   1.3316   1.3321   1.3342
     1.3342   1.4908   1.4908   1.4913   1.9377   1.9377   1.9383   3.4769
     3.4769   3.4777

          k = 0.0361 0.0361 0.1083 ( 39881 PWs)   bands (ev):

   -85.4234 -85.4234 -85.4234 -85.4221 -85.4220 -85.4220 -85.4211 -85.4211
   -85.4211 -85.4211 -85.4211 -85.4211 -85.4211 -85.4210 -85.4185 -85.4146
   -51.4860 -51.4859 -51.4858 -51.4856 -51.4855 -51.4855 -51.4851 -51.4851
   -51.4851 -51.4846 -51.4845 -51.4845 -51.4843 -51.4843 -51.4841 -51.4840
   -51.4840 -51.4839 -51.4834 -51.4834 -51.4834 -51.4834 -51.4834 -51.4833
   -51.4832 -51.4832 -51.4831 -51.4831 -51.4824 -51.4822 -51.4822 -51.4822
   -51.4822 -51.4822 -51.4821 -51.4821 -51.4820 -51.4818 -51.4817 -51.4817
   -51.4817 -51.4817 -51.4799 -51.4799 -51.4799 -51.4766 -51.4766 -51.4766
    -0.6732   0.4051   0.4080   0.4869   0.4956   0.4957   0.4986   0.4987
     0.5082   0.5090   0.5693   0.5759   0.5764   0.5777   0.5894   0.5902
     0.6154   0.6165   0.6493   0.6503   0.6822   0.8069   0.8073   0.8104
     0.8123   0.8155   0.8168   0.8215   0.8223   0.8255   0.8265   0.8265
     0.8346   0.8359   0.8394   0.8402   0.8406   0.8421   0.8459   0.8543
     0.8790   0.9288   0.9418   0.9449   0.9456   0.9576   0.9599   0.9602
     0.9632   0.9655   0.9659   0.9667   0.9756   0.9786   0.9831   0.9844
     0.9900   1.0051   1.0104   1.0109   1.0187   1.0195   1.0479   1.0492
     1.0760   1.0862   1.0908   1.1453   1.1463   1.1583   1.1767   1.1774
     1.1811   1.2761   1.2872   1.2974   1.3055   1.3093   1.3196   1.3208
     1.3288   1.3300   1.5536   1.5539   2.0011   2.0015   2.4592   3.0417
     3.0422   3.5259

          k = 0.0361 0.0361 0.1804 ( 39902 PWs)   bands (ev):

   -85.4234 -85.4234 -85.4234 -85.4221 -85.4220 -85.4220 -85.4211 -85.4211
   -85.4211 -85.4211 -85.4211 -85.4211 -85.4211 -85.4211 -85.4185 -85.4146
   -51.4859 -51.4858 -51.4858 -51.4856 -51.4855 -51.4855 -51.4853 -51.4852
   -51.4852 -51.4847 -51.4846 -51.4845 -51.4844 -51.4844 -51.4843 -51.4841
   -51.4840 -51.4840 -51.4836 -51.4834 -51.4834 -51.4834 -51.4832 -51.4832
   -51.4830 -51.4830 -51.4829 -51.4829 -51.4824 -51.4824 -51.4823 -51.4823
   -51.4823 -51.4822 -51.4821 -51.4821 -51.4821 -51.4819 -51.4818 -51.4817
   -51.4817 -51.4816 -51.4799 -51.4799 -51.4799 -51.4766 -51.4766 -51.4766
    -0.5652   0.2973   0.4194   0.4275   0.5069   0.5070   0.5114   0.5114
     0.5323   0.5423   0.5426   0.5526   0.5747   0.5752   0.5803   0.5809
     0.6422   0.6432   0.6691   0.6702   0.7166   0.7578   0.7589   0.7987
     0.7995   0.8113   0.8130   0.8145   0.8186   0.8196   0.8302   0.8324
     0.8333   0.8384   0.8397   0.8407   0.8409   0.8418   0.8424   0.8471
     0.8639   0.9427   0.9455   0.9474   0.9477   0.9487   0.9511   0.9566
     0.9581   0.9584   0.9636   0.9669   0.9687   0.9693   0.9705   0.9715
     0.9723   0.9861   0.9901   0.9990   0.9995   1.0228   1.0275   1.0289
     1.0292   1.0616   1.1119   1.1270   1.1812   1.1822   1.2085   1.2115
     1.2132   1.2526   1.2608   1.2647   1.2671   1.2897   1.3026   1.3038
     1.3176   1.3188   1.6715   1.6719   2.1234   2.1239   2.6592   2.6598
     3.0386   3.1423

          k = 0.0361 0.0361 0.2526 ( 39915 PWs)   bands (ev):

   -85.4234 -85.4234 -85.4234 -85.4221 -85.4221 -85.4220 -85.4211 -85.4211
   -85.4211 -85.4211 -85.4211 -85.4211 -85.4211 -85.4211 -85.4185 -85.4146
   -51.4857 -51.4857 -51.4857 -51.4855 -51.4855 -51.4855 -51.4854 -51.4854
   -51.4853 -51.4849 -51.4846 -51.4846 -51.4845 -51.4845 -51.4843 -51.4842
   -51.4841 -51.4841 -51.4835 -51.4834 -51.4834 -51.4834 -51.4831 -51.4830
   -51.4829 -51.4828 -51.4828 -51.4827 -51.4825 -51.4825 -51.4824 -51.4824
   -51.4823 -51.4823 -51.4822 -51.4822 -51.4821 -51.4819 -51.4818 -51.4817
   -51.4817 -51.4817 -51.4799 -51.4799 -51.4799 -51.4766 -51.4766 -51.4766
    -0.4056   0.0458   0.4402   0.4547   0.4977   0.5206   0.5233   0.5233
     0.5281   0.5282   0.5614   0.5617   0.5650   0.5654   0.5890   0.5894
     0.6801   0.6810   0.7017   0.7031   0.7060   0.7073   0.7478   0.7638
     0.7646   0.7893   0.7903   0.7972   0.8135   0.8149   0.8233   0.8268
     0.8412   0.8423   0.8478   0.8489   0.8523   0.8534   0.8558   0.8659
     0.8668   0.8903   0.9122   0.9134   0.9329   0.9337   0.9464   0.9528
     0.9557   0.9603   0.9604   0.9634   0.9640   0.9647   0.9680   0.9712
     0.9756   0.9763   0.9807   0.9811   0.9876   1.0059   1.0070   1.0334
     1.0792   1.0863   1.1496   1.1649   1.2034   1.2094   1.2173   1.2185
     1.2225   1.2349   1.2370   1.2453   1.2467   1.2760   1.2794   1.2807
     1.2995   1.3008   1.8401   1.8405   2.3001   2.3006   2.3319   2.3325
     2.8095   2.8100

          k = 0.0361 0.0361-0.3248 ( 39946 PWs)   bands (ev):

   -85.4234 -85.4234 -85.4234 -85.4221 -85.4221 -85.4220 -85.4211 -85.4211
   -85.4211 -85.4211 -85.4211 -85.4211 -85.4211 -85.4211 -85.4185 -85.4146
   -51.4857 -51.4856 -51.4856 -51.4856 -51.4856 -51.4856 -51.4855 -51.4854
   -51.4854 -51.4850 -51.4847 -51.4846 -51.4845 -51.4845 -51.4844 -51.4842
   -51.4841 -51.4841 -51.4835 -51.4835 -51.4835 -51.4835 -51.4829 -51.4829
   -51.4828 -51.4827 -51.4827 -51.4827 -51.4826 -51.4826 -51.4825 -51.4825
   -51.4824 -51.4823 -51.4822 -51.4822 -51.4821 -51.4819 -51.4818 -51.4818
   -51.4817 -51.4817 -51.4799 -51.4799 -51.4799 -51.4766 -51.4766 -51.4766
    -0.1984  -0.1983   0.4663   0.4668   0.4865   0.4869   0.5423   0.5425
     0.5426   0.5427   0.5466   0.5468   0.5469   0.5471   0.6435   0.6439
     0.6445   0.6449   0.7223   0.7227   0.7232   0.7236   0.7491   0.7495
     0.7501   0.7506   0.7745   0.7750   0.8172   0.8175   0.8190   0.8194
     0.8415   0.8420   0.8514   0.8518   0.8618   0.8622   0.8797   0.8799
     0.8809   0.8810   0.8970   0.8972   0.8979   0.8981   0.9533   0.9535
     0.9602   0.9606   0.9608   0.9613   0.9670   0.9674   0.9676   0.9677
     0.9681   0.9681   0.9878   0.9880   0.9887   0.9888   1.0085   1.0089
     1.1407   1.1411   1.1475   1.1480   1.1872   1.1874   1.2021   1.2025
     1.2506   1.2507   1.2517   1.2518   1.2574   1.2579   1.2752   1.2752
     1.2764   1.2765   2.0594   2.0595   2.0600   2.0600   2.5288   2.5289
     2.5293   2.5294

          k = 0.0361 0.1083 0.1083 ( 39901 PWs)   bands (ev):

   -85.4234 -85.4234 -85.4234 -85.4221 -85.4221 -85.4220 -85.4211 -85.4211
   -85.4211 -85.4211 -85.4211 -85.4211 -85.4211 -85.4211 -85.4185 -85.4146
   -51.4860 -51.4859 -51.4858 -51.4856 -51.4856 -51.4855 -51.4852 -51.4852
   -51.4852 -51.4846 -51.4845 -51.4845 -51.4844 -51.4843 -51.4842 -51.4840
   -51.4840 -51.4839 -51.4835 -51.4834 -51.4834 -51.4834 -51.4833 -51.4833
   -51.4832 -51.4831 -51.4830 -51.4829 -51.4825 -51.4824 -51.4823 -51.4823
   -51.4822 -51.4822 -51.4821 -51.4821 -51.4821 -51.4818 -51.4818 -51.4817
   -51.4817 -51.4816 -51.4799 -51.4799 -51.4799 -51.4766 -51.4766 -51.4766
    -0.6191   0.4135   0.4169   0.4974   0.5023   0.5025   0.5062   0.5138
     0.5139   0.5159   0.5160   0.5684   0.5694   0.5870   0.5888   0.5897
     0.6021   0.6136   0.6492   0.6843   0.6848   0.8000   0.8015   0.8023
     0.8122   0.8129   0.8129   0.8141   0.8165   0.8178   0.8182   0.8241
     0.8283   0.8290   0.8327   0.8370   0.8421   0.8427   0.8449   0.8466
     0.8823   0.9356   0.9381   0.9462   0.9522   0.9563   0.9605   0.9608
     0.9614   0.9625   0.9682   0.9689   0.9690   0.9713   0.9720   0.9792
     0.9881   0.9906   0.9919   0.9977   1.0293   1.0419   1.0422   1.0582
     1.0811   1.0821   1.1088   1.1089   1.1462   1.1835   1.2057   1.2080
     1.2190   1.2193   1.2548   1.2785   1.2937   1.2949   1.3005   1.3041
     1.3053   1.3067   1.3316   1.6186   2.0647   2.5219   2.5223   2.6086
     3.0996   3.1001

          k = 0.0361 0.1083 0.1804 ( 39925 PWs)   bands (ev):

   -85.4234 -85.4234 -85.4234 -85.4221 -85.4221 -85.4220 -85.4211 -85.4211
   -85.4211 -85.4211 -85.4211 -85.4211 -85.4211 -85.4211 -85.4185 -85.4146
   -51.4859 -51.4858 -51.4858 -51.4856 -51.4855 -51.4855 -51.4853 -51.4853
   -51.4853 -51.4847 -51.4846 -51.4845 -51.4845 -51.4845 -51.4843 -51.4841
   -51.4840 -51.4840 -51.4836 -51.4835 -51.4834 -51.4834 -51.4833 -51.4832
   -51.4831 -51.4829 -51.4829 -51.4828 -51.4825 -51.4824 -51.4824 -51.4824
   -51.4823 -51.4822 -51.4821 -51.4821 -51.4821 -51.4818 -51.4818 -51.4817
   -51.4816 -51.4816 -51.4799 -51.4799 -51.4799 -51.4766 -51.4766 -51.4766
    -0.5119   0.3296   0.4277   0.4361   0.5039   0.5171   0.5215   0.5253
     0.5284   0.5358   0.5483   0.5489   0.5619   0.5632   0.5920   0.5965
     0.6153   0.6372   0.6629   0.6979   0.7176   0.7578   0.7610   0.7711
     0.7959   0.8055   0.8063   0.8091   0.8102   0.8125   0.8136   0.8253
     0.8308   0.8361   0.8390   0.8395   0.8405   0.8418   0.8465   0.8587
     0.8734   0.9282   0.9303   0.9312   0.9342   0.9446   0.9457   0.9507
     0.9535   0.9587   0.9611   0.9628   0.9697   0.9731   0.9750   0.9797
     0.9799   0.9895   1.0012   1.0184   1.0213   1.0245   1.0384   1.0481
     1.0602   1.0773   1.0971   1.1176   1.1461   1.1632   1.2021   1.2259
     1.2335   1.2396   1.2485   1.2573   1.2634   1.2764   1.2821   1.2951
     1.2991   1.3201   1.3265   1.7383   2.1868   2.2325   2.6450   2.7206
     3.1005   3.1990

          k = 0.0361 0.1083 0.2526 ( 39917 PWs)   bands (ev):

   -85.4234 -85.4234 -85.4234 -85.4221 -85.4220 -85.4220 -85.4211 -85.4211
   -85.4211 -85.4211 -85.4211 -85.4211 -85.4211 -85.4211 -85.4185 -85.4146
   -51.4858 -51.4857 -51.4856 -51.4856 -51.4855 -51.4855 -51.4854 -51.4854
   -51.4853 -51.4848 -51.4846 -51.4845 -51.4845 -51.4845 -51.4843 -51.4841
   -51.4841 -51.4840 -51.4835 -51.4834 -51.4834 -51.4833 -51.4832 -51.4830
   -51.4829 -51.4828 -51.4828 -51.4827 -51.4827 -51.4825 -51.4825 -51.4824
   -51.4823 -51.4822 -51.4822 -51.4822 -51.4821 -51.4818 -51.4818 -51.4817
   -51.4817 -51.4816 -51.4799 -51.4799 -51.4799 -51.4766 -51.4766 -51.4766
    -0.3536   0.0898   0.4478   0.4634   0.5030   0.5138   0.5291   0.5295
     0.5299   0.5418   0.5448   0.5543   0.5802   0.5812   0.5943   0.5956
     0.6509   0.6755   0.6984   0.7038   0.7080   0.7299   0.7332   0.7478
     0.7604   0.7820   0.7965   0.8043   0.8048   0.8070   0.8081   0.8106
     0.8330   0.8381   0.8441   0.8471   0.8514   0.8551   0.8600   0.8646
     0.8871   0.8872   0.8986   0.9020   0.9140   0.9302   0.9409   0.9414
     0.9539   0.9575   0.9599   0.9617   0.9641   0.9666   0.9784   0.9833
     0.9836   0.9862   0.9926   0.9973   1.0109   1.0263   1.0350   1.0633
     1.0711   1.0911   1.1153   1.1555   1.1850   1.1904   1.1923   1.1925
     1.2088   1.2281   1.2285   1.2523   1.2545   1.2573   1.2699   1.2779
     1.2909   1.3142   1.4645   1.9072   1.9163   2.3627   2.3959   2.8240
     2.8688   3.3391

          k = 0.0361 0.1083-0.3248 ( 39940 PWs)   bands (ev):

   -85.4234 -85.4234 -85.4234 -85.4221 -85.4221 -85.4221 -85.4211 -85.4211
   -85.4211 -85.4211 -85.4211 -85.4211 -85.4211 -85.4211 -85.4185 -85.4146
   -51.4857 -51.4856 -51.4856 -51.4856 -51.4856 -51.4855 -51.4855 -51.4854
   -51.4854 -51.4848 -51.4847 -51.4846 -51.4845 -51.4845 -51.4844 -51.4842
   -51.4841 -51.4840 -51.4834 -51.4834 -51.4834 -51.4834 -51.4831 -51.4830
   -51.4829 -51.4828 -51.4827 -51.4827 -51.4826 -51.4826 -51.4825 -51.4824
   -51.4824 -51.4823 -51.4822 -51.4822 -51.4822 -51.4818 -51.4818 -51.4817
   -51.4817 -51.4817 -51.4799 -51.4799 -51.4799 -51.4766 -51.4766 -51.4766
    -0.1491  -0.1490   0.4730   0.4735   0.4953   0.4957   0.5240   0.5241
     0.5426   0.5429   0.5611   0.5614   0.5631   0.5633   0.6474   0.6478
     0.6505   0.6509   0.6915   0.6919   0.7182   0.7187   0.7417   0.7421
     0.7725   0.7730   0.7741   0.7746   0.8049   0.8050   0.8052   0.8052
     0.8352   0.8354   0.8572   0.8574   0.8585   0.8590   0.8699   0.8701
     0.8770   0.8771   0.8852   0.8853   0.9215   0.9216   0.9332   0.9332
     0.9446   0.9446   0.9639   0.9644   0.9672   0.9676   0.9786   0.9786
     0.9821   0.9826   1.0037   1.0038   1.0112   1.0115   1.0354   1.0356
     1.1294   1.1298   1.1493   1.1497   1.1540   1.1541   1.1929   1.1933
     1.2215   1.2215   1.2239   1.2239   1.2550   1.2550   1.2764   1.2767
     1.2951   1.2952   1.6611   1.6611   2.1255   2.1255   2.5900   2.5901
     3.0560   3.0561

          k = 0.0361 0.1804 0.1804 ( 39898 PWs)   bands (ev):

   -85.4234 -85.4234 -85.4234 -85.4221 -85.4220 -85.4220 -85.4211 -85.4211
   -85.4211 -85.4211 -85.4211 -85.4211 -85.4211 -85.4211 -85.4185 -85.4146
   -51.4858 -51.4857 -51.4856 -51.4856 -51.4855 -51.4854 -51.4854 -51.4854
   -51.4853 -51.4847 -51.4846 -51.4845 -51.4845 -51.4845 -51.4843 -51.4841
   -51.4840 -51.4839 -51.4835 -51.4835 -51.4834 -51.4833 -51.4832 -51.4831
   -51.4830 -51.4829 -51.4828 -51.4827 -51.4826 -51.4825 -51.4824 -51.4824
   -51.4823 -51.4822 -51.4822 -51.4821 -51.4820 -51.4818 -51.4818 -51.4817
   -51.4816 -51.4816 -51.4799 -51.4799 -51.4799 -51.4766 -51.4766 -51.4766
    -0.4063   0.3841   0.3846   0.4417   0.4548   0.5011   0.5233   0.5367
     0.5377   0.5600   0.5601   0.5606   0.5606   0.5838   0.5847   0.6164
     0.6263   0.6263   0.6577   0.7258   0.7262   0.7366   0.7551   0.7591
     0.7668   0.7732   0.7895   0.7899   0.7984   0.7989   0.8083   0.8302
     0.8337   0.8367   0.8373   0.8399   0.8455   0.8478   0.8483   0.8722
     0.8837   0.9079   0.9155   0.9167   0.9177   0.9207   0.9273   0.9308
     0.9318   0.9578   0.9659   0.9669   0.9710   0.9839   0.9850   0.9940
     1.0016   1.0131   1.0281   1.0319   1.0355   1.0357   1.0574   1.0577
     1.0763   1.0768   1.0949   1.0960   1.1453   1.1455   1.1488   1.1919
     1.1951   1.2293   1.2305   1.2361   1.2535   1.2542   1.2559   1.2617
     1.2642   1.3047   1.3279   1.8603   1.8683   2.3082   2.8371   2.8376
     3.2218   3.2223

          k = 0.0361 0.1804 0.2526 ( 39914 PWs)   bands (ev):

   -85.4234 -85.4234 -85.4234 -85.4221 -85.4220 -85.4220 -85.4211 -85.4211
   -85.4211 -85.4211 -85.4211 -85.4211 -85.4211 -85.4211 -85.4185 -85.4146
   -51.4858 -51.4857 -51.4856 -51.4856 -51.4855 -51.4855 -51.4854 -51.4854
   -51.4854 -51.4847 -51.4846 -51.4845 -51.4845 -51.4845 -51.4843 -51.4842
   -51.4840 -51.4840 -51.4835 -51.4834 -51.4834 -51.4833 -51.4833 -51.4831
   -51.4830 -51.4829 -51.4828 -51.4827 -51.4826 -51.4826 -51.4825 -51.4824
   -51.4823 -51.4822 -51.4822 -51.4822 -51.4820 -51.4818 -51.4817 -51.4817
   -51.4816 -51.4816 -51.4799 -51.4799 -51.4799 -51.4766 -51.4766 -51.4766
    -0.2512   0.1724   0.4407   0.4604   0.4821   0.4950   0.5096   0.5291
     0.5363   0.5499   0.5762   0.5766   0.6047   0.6072   0.6112   0.6144
     0.6172   0.6657   0.6841   0.6973   0.7093   0.7158   0.7511   0.7523
     0.7530   0.7665   0.7693   0.7724   0.7817   0.7884   0.7951   0.8269
     0.8359   0.8377   0.8383   0.8489   0.8515   0.8550   0.8581   0.8670
     0.8812   0.8893   0.8907   0.8920   0.9132   0.9134   0.9136   0.9151
     0.9177   0.9682   0.9724   0.9771   0.9791   0.9927   0.9952   1.0018
     1.0082   1.0106   1.0137   1.0165   1.0395   1.0464   1.0653   1.0674
     1.0735   1.0963   1.1008   1.1329   1.1358   1.1537   1.1570   1.1735
     1.2020   1.2026   1.2055   1.2070   1.2205   1.2229   1.2390   1.2820
     1.2890   1.3036   1.3218   1.5745   2.0305   2.4827   2.5165   2.9830
     3.0031   3.3996

          k = 0.0361 0.1804-0.3248 ( 39934 PWs)   bands (ev):

   -85.4234 -85.4234 -85.4234 -85.4221 -85.4221 -85.4220 -85.4211 -85.4211
   -85.4211 -85.4211 -85.4211 -85.4211 -85.4211 -85.4211 -85.4185 -85.4146
   -51.4858 -51.4857 -51.4856 -51.4856 -51.4855 -51.4855 -51.4855 -51.4855
   -51.4854 -51.4846 -51.4846 -51.4845 -51.4845 -51.4844 -51.4843 -51.4842
   -51.4841 -51.4840 -51.4834 -51.4834 -51.4833 -51.4833 -51.4833 -51.4832
   -51.4830 -51.4829 -51.4828 -51.4827 -51.4827 -51.4826 -51.4826 -51.4824
   -51.4823 -51.4823 -51.4822 -51.4822 -51.4821 -51.4818 -51.4817 -51.4817
   -51.4816 -51.4816 -51.4800 -51.4799 -51.4799 -51.4766 -51.4766 -51.4766
    -0.0530  -0.0530   0.4781   0.4782   0.4831   0.4836   0.5146   0.5150
     0.5333   0.5337   0.5936   0.5939   0.5959   0.5961   0.6556   0.6557
     0.6561   0.6568   0.6610   0.6615   0.7096   0.7100   0.7279   0.7283
     0.7732   0.7733   0.7757   0.7761   0.7794   0.7795   0.7920   0.7925
     0.8362   0.8362   0.8521   0.8526   0.8610   0.8611   0.8664   0.8665
     0.8700   0.8700   0.8728   0.8729   0.9109   0.9109   0.9113   0.9116
     0.9519   0.9520   0.9774   0.9778   0.9833   0.9837   0.9950   0.9950
     1.0040   1.0043   1.0241   1.0241   1.0387   1.0389   1.0685   1.0687
     1.1132   1.1133   1.1160   1.1163   1.1471   1.1475   1.1703   1.1706
     1.1801   1.1801   1.1844   1.1845   1.2201   1.2201   1.2957   1.2960
     1.3088   1.3089   1.3582   1.3583   2.2483   2.2484   2.7077   2.7078
     3.2133   3.2134

          k = 0.0361 0.2526 0.2526 ( 39921 PWs)   bands (ev):

   -85.4234 -85.4234 -85.4234 -85.4221 -85.4221 -85.4220 -85.4211 -85.4211
   -85.4211 -85.4211 -85.4211 -85.4211 -85.4211 -85.4211 -85.4185 -85.4146
   -51.4857 -51.4857 -51.4856 -51.4856 -51.4855 -51.4855 -51.4855 -51.4854
   -51.4854 -51.4846 -51.4845 -51.4845 -51.4844 -51.4844 -51.4843 -51.4842
   -51.4840 -51.4839 -51.4835 -51.4835 -51.4833 -51.4833 -51.4833 -51.4832
   -51.4831 -51.4829 -51.4829 -51.4828 -51.4827 -51.4827 -51.4826 -51.4825
   -51.4822 -51.4822 -51.4822 -51.4822 -51.4819 -51.4818 -51.4817 -51.4816
   -51.4816 -51.4816 -51.4800 -51.4799 -51.4799 -51.4766 -51.4766 -51.4766
    -0.1026   0.2791   0.2798   0.4565   0.4764   0.5100   0.5152   0.5162
     0.5261   0.5802   0.5812   0.6188   0.6188   0.6231   0.6233   0.6464
     0.6526   0.6570   0.6580   0.6720   0.7117   0.7228   0.7265   0.7319
     0.7425   0.7428   0.7547   0.7549   0.7696   0.7700   0.7923   0.8349
     0.8369   0.8382   0.8443   0.8449   0.8569   0.8609   0.8614   0.8661
     0.8724   0.8730   0.8733   0.8743   0.8787   0.8876   0.8900   0.9007
     0.9490   0.9842   0.9882   0.9897   0.9965   1.0167   1.0182   1.0236
     1.0269   1.0300   1.0301   1.0400   1.0533   1.0538   1.0544   1.0708
     1.0723   1.1024   1.1034   1.1113   1.1126   1.1333   1.1423   1.1425
     1.1526   1.1537   1.1753   1.1826   1.1836   1.1911   1.1923   1.3011
     1.3036   1.3102   1.3226   1.3273   2.2021   2.6551   2.6864   2.6869
     3.1470   3.1475

          k = 0.0361 0.2526-0.3248 ( 39928 PWs)   bands (ev):

   -85.4234 -85.4234 -85.4234 -85.4221 -85.4221 -85.4220 -85.4211 -85.4211
   -85.4211 -85.4211 -85.4211 -85.4211 -85.4211 -85.4211 -85.4185 -85.4146
   -51.4858 -51.4858 -51.4856 -51.4856 -51.4855 -51.4855 -51.4855 -51.4854
   -51.4854 -51.4846 -51.4846 -51.4845 -51.4844 -51.4844 -51.4843 -51.4843
   -51.4840 -51.4839 -51.4835 -51.4834 -51.4834 -51.4833 -51.4833 -51.4832
   -51.4831 -51.4829 -51.4829 -51.4827 -51.4827 -51.4826 -51.4826 -51.4826
   -51.4822 -51.4822 -51.4822 -51.4822 -51.4819 -51.4818 -51.4817 -51.4816
   -51.4816 -51.4815 -51.4800 -51.4799 -51.4799 -51.4766 -51.4766 -51.4766
     0.0823   0.0824   0.3837   0.3838   0.4950   0.4954   0.5212   0.5216
     0.5437   0.5441   0.6177   0.6181   0.6346   0.6349   0.6418   0.6420
     0.6674   0.6678   0.6754   0.6758   0.6978   0.6982   0.7106   0.7110
     0.7312   0.7315   0.7404   0.7406   0.7841   0.7846   0.8073   0.8077
     0.8402   0.8403   0.8433   0.8437   0.8566   0.8567   0.8630   0.8634
     0.8640   0.8640   0.8692   0.8693   0.8704   0.8706   0.8922   0.8922
     0.9876   0.9877   0.9980   0.9983   1.0083   1.0086   1.0105   1.0106
     1.0282   1.0285   1.0407   1.0407   1.0704   1.0704   1.0706   1.0709
     1.1040   1.1042   1.1044   1.1044   1.1196   1.1198   1.1356   1.1357
     1.1397   1.1401   1.1454   1.1458   1.1821   1.1822   1.1979   1.1980
     1.3093   1.3095   1.3161   1.3162   2.4202   2.4203   2.8769   2.8770
     2.9022   2.9022

          k = 0.0361-0.3248-0.3248 ( 39940 PWs)   bands (ev):

   -85.4234 -85.4234 -85.4234 -85.4221 -85.4221 -85.4221 -85.4211 -85.4211
   -85.4211 -85.4211 -85.4211 -85.4211 -85.4211 -85.4211 -85.4185 -85.4146
   -51.4857 -51.4857 -51.4856 -51.4856 -51.4855 -51.4855 -51.4855 -51.4855
   -51.4854 -51.4846 -51.4846 -51.4844 -51.4844 -51.4844 -51.4843 -51.4843
   -51.4840 -51.4839 -51.4835 -51.4835 -51.4833 -51.4833 -51.4832 -51.4832
   -51.4831 -51.4830 -51.4829 -51.4827 -51.4827 -51.4827 -51.4827 -51.4826
   -51.4823 -51.4822 -51.4822 -51.4822 -51.4820 -51.4819 -51.4816 -51.4816
   -51.4816 -51.4815 -51.4800 -51.4800 -51.4800 -51.4766 -51.4766 -51.4766
     0.2393   0.2393   0.2399   0.2400   0.5077   0.5077   0.5082   0.5091
     0.5790   0.5790   0.5795   0.5804   0.6745   0.6745   0.6747   0.6755
     0.6899   0.6899   0.6906   0.6908   0.6916   0.6916   0.6920   0.6928
     0.6933   0.6933   0.6934   0.6942   0.8035   0.8035   0.8042   0.8051
     0.8358   0.8358   0.8362   0.8371   0.8467   0.8467   0.8472   0.8473
     0.8662   0.8662   0.8667   0.8669   0.8769   0.8771   0.8793   0.8793
     1.0128   1.0131   1.0146   1.0146   1.0279   1.0279   1.0279   1.0280
     1.0428   1.0431   1.0449   1.0449   1.0486   1.0486   1.0490   1.0496
     1.1048   1.1048   1.1053   1.1054   1.1062   1.1062   1.1073   1.1082
     1.1431   1.1431   1.1431   1.1432   1.1538   1.1538   1.1546   1.1551
     1.3151   1.3153   1.3176   1.3176   2.6379   2.6379   2.6383   2.6384
     3.0940   3.0944

          k = 0.1083 0.1083 0.1083 ( 39931 PWs)   bands (ev):

   -85.4234 -85.4234 -85.4234 -85.4221 -85.4221 -85.4220 -85.4211 -85.4211
   -85.4211 -85.4211 -85.4211 -85.4211 -85.4211 -85.4211 -85.4185 -85.4146
   -51.4859 -51.4858 -51.4858 -51.4856 -51.4856 -51.4856 -51.4853 -51.4853
   -51.4853 -51.4846 -51.4846 -51.4845 -51.4845 -51.4843 -51.4843 -51.4841
   -51.4841 -51.4839 -51.4835 -51.4835 -51.4834 -51.4834 -51.4833 -51.4831
   -51.4831 -51.4831 -51.4829 -51.4829 -51.4825 -51.4823 -51.4823 -51.4823
   -51.4823 -51.4822 -51.4822 -51.4821 -51.4821 -51.4819 -51.4818 -51.4817
   -51.4817 -51.4817 -51.4799 -51.4799 -51.4799 -51.4766 -51.4766 -51.4766
    -0.5654   0.4237   0.4237   0.5165   0.5165   0.5167   0.5199   0.5199
     0.5201   0.5228   0.5228   0.5228   0.5773   0.5781   0.5781   0.5913
     0.5919   0.5919   0.6832   0.6842   0.6842   0.7988   0.7988   0.8019
     0.8025   0.8025   0.8030   0.8030   0.8087   0.8131   0.8148   0.8148
     0.8261   0.8261   0.8313   0.8313   0.8325   0.8482   0.8491   0.8491
     0.9144   0.9144   0.9378   0.9378   0.9379   0.9379   0.9399   0.9526
     0.9526   0.9532   0.9771   0.9771   0.9785   0.9869   0.9876   1.0040
     1.0051   1.0051   1.0071   1.0071   1.0082   1.0082   1.0082   1.0883
     1.0883   1.0892   1.0899   1.0919   1.0919   1.2134   1.2134   1.2162
     1.2288   1.2748   1.2748   1.2768   1.2892   1.2892   1.2899   1.2899
     1.2904   1.3084   1.3103   1.3103   2.5843   2.5843   2.5849   2.6704
     2.6704   2.6712

          k = 0.1083 0.1083 0.1804 ( 39914 PWs)   bands (ev):

   -85.4234 -85.4234 -85.4234 -85.4221 -85.4221 -85.4220 -85.4211 -85.4211
   -85.4211 -85.4211 -85.4211 -85.4211 -85.4211 -85.4211 -85.4185 -85.4146
   -51.4859 -51.4858 -51.4857 -51.4856 -51.4855 -51.4855 -51.4853 -51.4853
   -51.4853 -51.4846 -51.4845 -51.4845 -51.4845 -51.4844 -51.4843 -51.4841
   -51.4841 -51.4839 -51.4835 -51.4835 -51.4834 -51.4833 -51.4832 -51.4832
   -51.4830 -51.4829 -51.4828 -51.4828 -51.4826 -51.4826 -51.4825 -51.4823
   -51.4822 -51.4822 -51.4822 -51.4821 -51.4821 -51.4819 -51.4818 -51.4817
   -51.4817 -51.4816 -51.4799 -51.4799 -51.4799 -51.4766 -51.4766 -51.4766
    -0.4589   0.3621   0.4372   0.4434   0.5241   0.5243   0.5330   0.5330
     0.5426   0.5428   0.5435   0.5528   0.5543   0.5676   0.5764   0.5767
     0.6136   0.6141   0.6915   0.6925   0.7166   0.7563   0.7647   0.7705
     0.7712   0.7982   0.8027   0.8031   0.8035   0.8095   0.8136   0.8145
     0.8157   0.8231   0.8307   0.8482   0.8490   0.8492   0.8499   0.8551
     0.8964   0.9165   0.9175   0.9204   0.9315   0.9386   0.9424   0.9460
     0.9461   0.9539   0.9697   0.9701   0.9855   0.9869   0.9876   0.9893
     0.9900   0.9903   0.9906   1.0055   1.0089   1.0123   1.0417   1.0531
     1.0805   1.0819   1.1046   1.1058   1.1275   1.1488   1.1960   1.2258
     1.2317   1.2330   1.2410   1.2490   1.2504   1.2673   1.2705   1.2929
     1.3054   1.3067   1.3965   1.3968   2.2985   2.2990   2.7060   2.7065
     2.7887   3.1616

          k = 0.1083 0.1083 0.2526 ( 39895 PWs)   bands (ev):

   -85.4234 -85.4234 -85.4234 -85.4221 -85.4221 -85.4220 -85.4211 -85.4211
   -85.4211 -85.4211 -85.4211 -85.4211 -85.4211 -85.4211 -85.4185 -85.4146
   -51.4858 -51.4857 -51.4856 -51.4856 -51.4855 -51.4855 -51.4854 -51.4854
   -51.4853 -51.4847 -51.4846 -51.4845 -51.4845 -51.4844 -51.4843 -51.4841
   -51.4841 -51.4840 -51.4835 -51.4834 -51.4834 -51.4833 -51.4833 -51.4831
   -51.4829 -51.4829 -51.4827 -51.4827 -51.4826 -51.4826 -51.4825 -51.4823
   -51.4823 -51.4822 -51.4822 -51.4821 -51.4821 -51.4818 -51.4817 -51.4817
   -51.4817 -51.4816 -51.4799 -51.4799 -51.4798 -51.4766 -51.4766 -51.4766
    -0.3019   0.1336   0.4567   0.4708   0.5107   0.5352   0.5353   0.5363
     0.5451   0.5453   0.5524   0.5525   0.5683   0.5687   0.5978   0.6020
     0.6489   0.6496   0.7034   0.7153   0.7198   0.7211   0.7321   0.7328
     0.7465   0.7957   0.7982   0.7991   0.7995   0.8029   0.8032   0.8038
     0.8049   0.8143   0.8391   0.8559   0.8568   0.8626   0.8721   0.8727
     0.8827   0.8842   0.8952   0.8962   0.9287   0.9333   0.9337   0.9392
     0.9446   0.9447   0.9492   0.9499   0.9546   0.9669   0.9672   0.9701
     0.9975   1.0074   1.0087   1.0118   1.0342   1.0475   1.0573   1.0588
     1.0793   1.0980   1.1056   1.1409   1.1422   1.1585   1.1655   1.1656
     1.2169   1.2185   1.2188   1.2384   1.2552   1.2562   1.2629   1.2891
     1.2945   1.2961   1.5416   1.5420   1.9867   1.9872   2.8834   2.8839
     2.9553   3.3936

          k = 0.1083 0.1083-0.3248 ( 39886 PWs)   bands (ev):

   -85.4234 -85.4234 -85.4234 -85.4220 -85.4220 -85.4220 -85.4211 -85.4211
   -85.4211 -85.4211 -85.4211 -85.4211 -85.4211 -85.4211 -85.4185 -85.4146
   -51.4857 -51.4856 -51.4855 -51.4855 -51.4855 -51.4854 -51.4854 -51.4854
   -51.4853 -51.4848 -51.4846 -51.4845 -51.4845 -51.4844 -51.4843 -51.4841
   -51.4841 -51.4841 -51.4834 -51.4834 -51.4833 -51.4833 -51.4832 -51.4830
   -51.4829 -51.4828 -51.4828 -51.4827 -51.4826 -51.4825 -51.4825 -51.4824
   -51.4823 -51.4823 -51.4822 -51.4822 -51.4821 -51.4818 -51.4817 -51.4817
   -51.4816 -51.4816 -51.4799 -51.4799 -51.4798 -51.4766 -51.4766 -51.4766
    -0.0999  -0.0998   0.4813   0.4817   0.5026   0.5030   0.5468   0.5468
     0.5469   0.5470   0.5573   0.5576   0.5576   0.5579   0.6489   0.6493
     0.6584   0.6588   0.6898   0.6902   0.6905   0.6910   0.7614   0.7618
     0.7627   0.7631   0.7729   0.7734   0.8012   0.8013   0.8034   0.8039
     0.8069   0.8071   0.8544   0.8549   0.8715   0.8716   0.8737   0.8739
     0.8746   0.8748   0.9004   0.9005   0.9009   0.9010   0.9301   0.9301
     0.9513   0.9513   0.9514   0.9515   0.9537   0.9542   0.9580   0.9584
     1.0062   1.0066   1.0308   1.0310   1.0322   1.0324   1.0632   1.0633
     1.1034   1.1037   1.1189   1.1190   1.1619   1.1623   1.1802   1.1803
     1.1816   1.1816   1.2031   1.2035   1.2772   1.2772   1.2773   1.2773
     1.2801   1.2804   1.7356   1.7356   1.7361   1.7361   3.1132   3.1133
     3.1138   3.1139

          k = 0.1083 0.1804 0.1804 ( 39892 PWs)   bands (ev):

   -85.4234 -85.4234 -85.4234 -85.4221 -85.4221 -85.4220 -85.4211 -85.4211
   -85.4211 -85.4211 -85.4211 -85.4211 -85.4211 -85.4211 -85.4185 -85.4146
   -51.4859 -51.4857 -51.4857 -51.4856 -51.4855 -51.4854 -51.4854 -51.4854
   -51.4853 -51.4846 -51.4845 -51.4845 -51.4845 -51.4844 -51.4843 -51.4842
   -51.4841 -51.4839 -51.4835 -51.4834 -51.4834 -51.4832 -51.4832 -51.4831
   -51.4830 -51.4829 -51.4828 -51.4827 -51.4827 -51.4826 -51.4825 -51.4822
   -51.4822 -51.4822 -51.4822 -51.4821 -51.4820 -51.4818 -51.4817 -51.4817
   -51.4816 -51.4816 -51.4799 -51.4799 -51.4799 -51.4766 -51.4766 -51.4766
    -0.3540   0.4169   0.4174   0.4524   0.4608   0.5239   0.5384   0.5481
     0.5490   0.5622   0.5624   0.5633   0.5633   0.5751   0.5860   0.5868
     0.5951   0.6172   0.6884   0.7208   0.7213   0.7372   0.7517   0.7634
     0.7640   0.7700   0.7705   0.7782   0.8024   0.8040   0.8049   0.8092
     0.8193   0.8259   0.8345   0.8350   0.8564   0.8593   0.8598   0.8674
     0.8997   0.9042   0.9075   0.9085   0.9250   0.9283   0.9351   0.9449
     0.9459   0.9483   0.9490   0.9503   0.9518   1.0005   1.0006   1.0022
     1.0038   1.0048   1.0059   1.0096   1.0238   1.0241   1.0354   1.0384
     1.0742   1.0764   1.0906   1.1169   1.1179   1.1591   1.1955   1.1968
     1.2148   1.2173   1.2176   1.2280   1.2557   1.2558   1.2580   1.2681
     1.2695   1.2929   1.3090   1.5130   1.9414   2.4219   2.4224   2.8259
     3.2811   3.2816

          k = 0.1083 0.1804 0.2526 ( 39914 PWs)   bands (ev):

   -85.4234 -85.4234 -85.4234 -85.4221 -85.4220 -85.4220 -85.4211 -85.4211
   -85.4211 -85.4211 -85.4211 -85.4211 -85.4211 -85.4211 -85.4185 -85.4146
   -51.4858 -51.4857 -51.4856 -51.4856 -51.4855 -51.4855 -51.4854 -51.4854
   -51.4853 -51.4847 -51.4846 -51.4846 -51.4845 -51.4844 -51.4843 -51.4842
   -51.4841 -51.4840 -51.4834 -51.4834 -51.4833 -51.4832 -51.4832 -51.4832
   -51.4830 -51.4829 -51.4828 -51.4828 -51.4827 -51.4826 -51.4825 -51.4823
   -51.4823 -51.4823 -51.4822 -51.4821 -51.4820 -51.4818 -51.4818 -51.4817
   -51.4816 -51.4816 -51.4800 -51.4799 -51.4798 -51.4766 -51.4766 -51.4766
    -0.2001   0.2157   0.4709   0.4732   0.4877   0.5201   0.5212   0.5435
     0.5491   0.5540   0.5743   0.5754   0.5939   0.5945   0.6050   0.6134
     0.6183   0.6465   0.6982   0.7052   0.7061   0.7256   0.7305   0.7420
     0.7486   0.7621   0.7687   0.7788   0.7834   0.7942   0.7946   0.8043
     0.8130   0.8209   0.8309   0.8520   0.8621   0.8671   0.8698   0.8787
     0.8905   0.8920   0.8927   0.8936   0.9026   0.9146   0.9182   0.9185
     0.9255   0.9508   0.9518   0.9536   0.9549   0.9610   0.9829   0.9871
     1.0214   1.0257   1.0290   1.0343   1.0374   1.0422   1.0662   1.0700
     1.0797   1.0904   1.0929   1.1167   1.1186   1.1344   1.1455   1.1553
     1.1613   1.1716   1.2206   1.2280   1.2343   1.2607   1.2744   1.2770
     1.2931   1.3047   1.3108   1.6567   1.6661   2.1141   2.5935   3.0001
     3.0662   3.4565

          k = 0.1083 0.1804-0.3248 ( 39936 PWs)   bands (ev):

   -85.4234 -85.4234 -85.4234 -85.4221 -85.4221 -85.4220 -85.4211 -85.4211
   -85.4211 -85.4211 -85.4211 -85.4211 -85.4211 -85.4211 -85.4185 -85.4146
   -51.4858 -51.4857 -51.4856 -51.4856 -51.4855 -51.4855 -51.4855 -51.4854
   -51.4853 -51.4847 -51.4847 -51.4846 -51.4845 -51.4845 -51.4843 -51.4842
   -51.4841 -51.4840 -51.4834 -51.4833 -51.4833 -51.4833 -51.4833 -51.4832
   -51.4830 -51.4829 -51.4828 -51.4828 -51.4827 -51.4825 -51.4825 -51.4824
   -51.4823 -51.4823 -51.4823 -51.4821 -51.4821 -51.4818 -51.4818 -51.4817
   -51.4816 -51.4816 -51.4800 -51.4800 -51.4798 -51.4766 -51.4766 -51.4766
    -0.0044  -0.0043   0.4935   0.4939   0.5081   0.5082   0.5198   0.5202
     0.5470   0.5473   0.5852   0.5856   0.5888   0.5890   0.6538   0.6541
     0.6569   0.6574   0.6705   0.6709   0.6873   0.6877   0.7453   0.7457
     0.7656   0.7660   0.7731   0.7736   0.7805   0.7809   0.7858   0.7859
     0.8101   0.8102   0.8462   0.8467   0.8743   0.8744   0.8755   0.8757
     0.8791   0.8792   0.8804   0.8804   0.9136   0.9137   0.9154   0.9155
     0.9242   0.9242   0.9543   0.9548   0.9640   0.9641   0.9652   0.9657
     1.0345   1.0348   1.0556   1.0557   1.0631   1.0633   1.0742   1.0746
     1.0776   1.0777   1.1015   1.1015   1.1212   1.1213   1.1245   1.1245
     1.1679   1.1683   1.1929   1.1933   1.2478   1.2478   1.2871   1.2873
     1.2934   1.2934   1.4494   1.4495   1.8638   1.8638   2.8084   2.8085
     3.2259   3.2260

          k = 0.1083 0.2526 0.2526 ( 39939 PWs)   bands (ev):

   -85.4234 -85.4234 -85.4234 -85.4221 -85.4221 -85.4220 -85.4211 -85.4211
   -85.4211 -85.4211 -85.4211 -85.4211 -85.4211 -85.4211 -85.4185 -85.4146
   -51.4858 -51.4857 -51.4857 -51.4856 -51.4856 -51.4855 -51.4855 -51.4855
   -51.4853 -51.4847 -51.4846 -51.4845 -51.4845 -51.4844 -51.4844 -51.4843
   -51.4841 -51.4839 -51.4834 -51.4833 -51.4833 -51.4833 -51.4832 -51.4831
   -51.4830 -51.4830 -51.4829 -51.4828 -51.4828 -51.4826 -51.4825 -51.4824
   -51.4823 -51.4823 -51.4822 -51.4822 -51.4820 -51.4818 -51.4818 -51.4817
   -51.4816 -51.4816 -51.4800 -51.4799 -51.4799 -51.4766 -51.4766 -51.4766
    -0.0526   0.3214   0.3220   0.4875   0.4892   0.5146   0.5272   0.5282
     0.5396   0.5831   0.5840   0.6140   0.6141   0.6212   0.6283   0.6285
     0.6369   0.6504   0.6598   0.6973   0.7014   0.7245   0.7268   0.7272
     0.7348   0.7429   0.7624   0.7629   0.7676   0.7678   0.7910   0.8090
     0.8227   0.8254   0.8327   0.8331   0.8695   0.8696   0.8702   0.8729
     0.8741   0.8763   0.8769   0.8878   0.8897   0.8950   0.8972   0.9076
     0.9207   0.9595   0.9606   0.9654   0.9708   0.9948   0.9953   0.9988
     1.0119   1.0123   1.0183   1.0479   1.0496   1.0581   1.0626   1.0648
     1.0763   1.0871   1.1004   1.1016   1.1032   1.1133   1.1296   1.1302
     1.1360   1.2013   1.2043   1.2046   1.2166   1.2170   1.2179   1.2888
     1.2912   1.2974   1.3066   1.4241   1.8288   2.2866   2.2870   2.7610
     3.1699   3.6550

          k = 0.1083 0.2526-0.3248 ( 39930 PWs)   bands (ev):

   -85.4234 -85.4234 -85.4234 -85.4221 -85.4221 -85.4220 -85.4211 -85.4211
   -85.4211 -85.4211 -85.4211 -85.4211 -85.4211 -85.4211 -85.4185 -85.4146
   -51.4858 -51.4858 -51.4857 -51.4856 -51.4856 -51.4855 -51.4855 -51.4854
   -51.4853 -51.4847 -51.4847 -51.4845 -51.4845 -51.4844 -51.4844 -51.4843
   -51.4841 -51.4839 -51.4834 -51.4833 -51.4832 -51.4832 -51.4832 -51.4831
   -51.4830 -51.4830 -51.4829 -51.4829 -51.4828 -51.4825 -51.4825 -51.4824
   -51.4823 -51.4822 -51.4822 -51.4822 -51.4819 -51.4818 -51.4817 -51.4817
   -51.4816 -51.4816 -51.4799 -51.4799 -51.4799 -51.4766 -51.4766 -51.4766
     0.1299   0.1300   0.4228   0.4228   0.5064   0.5068   0.5340   0.5344
     0.5478   0.5482   0.6200   0.6204   0.6224   0.6227   0.6431   0.6432
     0.6599   0.6603   0.6834   0.6836   0.6859   0.6865   0.7224   0.7228
     0.7262   0.7266   0.7525   0.7527   0.7800   0.7804   0.7972   0.7976
     0.8183   0.8183   0.8347   0.8351   0.8507   0.8507   0.8581   0.8585
     0.8805   0.8807   0.8829   0.8830   0.8842   0.8844   0.9000   0.9001
     0.9555   0.9555   0.9696   0.9700   0.9803   0.9803   0.9830   0.9833
     1.0343   1.0343   1.0479   1.0481   1.0553   1.0555   1.0622   1.0625
     1.0705   1.0705   1.0743   1.0743   1.0978   1.0981   1.1466   1.1466
     1.1669   1.1672   1.1723   1.1726   1.2129   1.2130   1.2865   1.2866
     1.2966   1.2968   1.3016   1.3017   2.0335   2.0336   2.5019   2.5020
     3.3895   3.3896

          k = 0.1083-0.3248-0.3248 ( 39932 PWs)   bands (ev):

   -85.4234 -85.4234 -85.4234 -85.4221 -85.4221 -85.4221 -85.4211 -85.4211
   -85.4211 -85.4211 -85.4211 -85.4211 -85.4211 -85.4211 -85.4185 -85.4146
   -51.4857 -51.4857 -51.4857 -51.4856 -51.4856 -51.4855 -51.4855 -51.4855
   -51.4854 -51.4847 -51.4847 -51.4844 -51.4844 -51.4844 -51.4844 -51.4844
   -51.4841 -51.4838 -51.4835 -51.4835 -51.4832 -51.4831 -51.4831 -51.4831
   -51.4831 -51.4830 -51.4829 -51.4829 -51.4829 -51.4825 -51.4825 -51.4825
   -51.4823 -51.4822 -51.4822 -51.4821 -51.4819 -51.4819 -51.4817 -51.4816
   -51.4816 -51.4816 -51.4799 -51.4799 -51.4799 -51.4766 -51.4766 -51.4766
     0.2843   0.2843   0.2850   0.2850   0.5198   0.5198   0.5204   0.5212
     0.5823   0.5823   0.5828   0.5836   0.6566   0.6566   0.6569   0.6577
     0.6864   0.6864   0.6870   0.6876   0.6945   0.6945   0.6949   0.6955
     0.7123   0.7123   0.7124   0.7131   0.7987   0.7987   0.7994   0.8003
     0.8242   0.8242   0.8243   0.8251   0.8314   0.8314   0.8319   0.8319
     0.8843   0.8843   0.8849   0.8852   0.8873   0.8876   0.8894   0.8894
     0.9871   0.9875   0.9886   0.9886   0.9930   0.9930   0.9931   0.9931
     1.0099   1.0099   1.0102   1.0107   1.0372   1.0372   1.0380   1.0384
     1.0775   1.0777   1.0796   1.0796   1.1334   1.1334   1.1340   1.1345
     1.1845   1.1845   1.1852   1.1856   1.2022   1.2022   1.2025   1.2026
     1.3012   1.3014   1.3037   1.3037   2.2447   2.2447   2.2451   2.2452
     3.6002   3.6006

          k = 0.1804 0.1804 0.1804 ( 39900 PWs)   bands (ev):

   -85.4234 -85.4234 -85.4234 -85.4220 -85.4220 -85.4220 -85.4211 -85.4211
   -85.4211 -85.4211 -85.4211 -85.4211 -85.4211 -85.4211 -85.4185 -85.4146
   -51.4858 -51.4856 -51.4856 -51.4855 -51.4855 -51.4854 -51.4854 -51.4854
   -51.4852 -51.4846 -51.4846 -51.4846 -51.4845 -51.4845 -51.4844 -51.4842
   -51.4842 -51.4839 -51.4834 -51.4834 -51.4833 -51.4833 -51.4831 -51.4831
   -51.4830 -51.4830 -51.4829 -51.4828 -51.4828 -51.4826 -51.4826 -51.4823
   -51.4823 -51.4823 -51.4822 -51.4821 -51.4821 -51.4818 -51.4817 -51.4817
   -51.4817 -51.4816 -51.4800 -51.4799 -51.4799 -51.4767 -51.4766 -51.4766
    -0.2505   0.4725   0.4725   0.4735   0.4735   0.4742   0.5642   0.5649
     0.5649   0.5665   0.5665   0.5667   0.5671   0.5673   0.5673   0.5948
     0.5954   0.5954   0.7171   0.7182   0.7182   0.7381   0.7390   0.7390
     0.7485   0.7485   0.7701   0.7701   0.7765   0.8067   0.8083   0.8083
     0.8117   0.8117   0.8440   0.8440   0.8447   0.8676   0.8686   0.8686
     0.9013   0.9013   0.9023   0.9253   0.9253   0.9300   0.9300   0.9305
     0.9322   0.9322   0.9613   0.9613   0.9618   0.9731   0.9731   0.9743
     0.9770   0.9822   0.9838   0.9838   1.0300   1.0300   1.0322   1.0668
     1.0810   1.0810   1.1191   1.1260   1.1279   1.1279   1.1526   1.1526
     1.1548   1.2510   1.2510   1.2539   1.2703   1.2703   1.2735   1.2757
     1.2757   1.3063   1.3063   1.3068   2.0705   2.0705   2.0712   3.0180
     3.3978   3.3978

          k = 0.1804 0.1804 0.2526 ( 39926 PWs)   bands (ev):

   -85.4234 -85.4234 -85.4234 -85.4221 -85.4220 -85.4220 -85.4211 -85.4211
   -85.4211 -85.4211 -85.4211 -85.4211 -85.4211 -85.4211 -85.4185 -85.4146
   -51.4857 -51.4857 -51.4857 -51.4856 -51.4856 -51.4855 -51.4855 -51.4854
   -51.4853 -51.4847 -51.4846 -51.4846 -51.4846 -51.4845 -51.4844 -51.4842
   -51.4842 -51.4839 -51.4834 -51.4833 -51.4833 -51.4832 -51.4831 -51.4831
   -51.4830 -51.4829 -51.4829 -51.4828 -51.4828 -51.4825 -51.4825 -51.4823
   -51.4823 -51.4822 -51.4822 -51.4821 -51.4821 -51.4819 -51.4817 -51.4817
   -51.4816 -51.4816 -51.4800 -51.4799 -51.4799 -51.4766 -51.4766 -51.4766
    -0.0997   0.2970   0.4895   0.5000   0.5316   0.5319   0.5364   0.5653
     0.5697   0.5698   0.5707   0.5709   0.5724   0.5724   0.6069   0.6210
     0.6213   0.6230   0.6997   0.7003   0.7031   0.7285   0.7295   0.7377
     0.7407   0.7451   0.7460   0.7777   0.7838   0.7930   0.7962   0.7972
     0.7981   0.8188   0.8207   0.8630   0.8634   0.8728   0.8755   0.8763
     0.8806   0.8949   0.8956   0.9083   0.9170   0.9172   0.9186   0.9231
     0.9235   0.9238   0.9326   0.9384   0.9414   0.9417   0.9418   0.9664
     0.9838   0.9954   1.0130   1.0147   1.0513   1.0591   1.0608   1.0766
     1.0785   1.0878   1.1037   1.1042   1.1054   1.1154   1.1170   1.1290
     1.1659   1.2072   1.2298   1.2403   1.2553   1.2566   1.2684   1.2724
     1.2732   1.2783   1.4204   1.4208   1.7883   1.7887   2.2439   2.7153
     3.5682   3.5687

          k = 0.1804 0.1804-0.3248 ( 39932 PWs)   bands (ev):

   -85.4234 -85.4234 -85.4234 -85.4221 -85.4221 -85.4220 -85.4211 -85.4211
   -85.4211 -85.4211 -85.4211 -85.4211 -85.4211 -85.4211 -85.4185 -85.4146
   -51.4857 -51.4857 -51.4856 -51.4856 -51.4855 -51.4855 -51.4855 -51.4854
   -51.4853 -51.4847 -51.4847 -51.4846 -51.4846 -51.4845 -51.4844 -51.4843
   -51.4842 -51.4839 -51.4834 -51.4833 -51.4832 -51.4831 -51.4831 -51.4831
   -51.4831 -51.4830 -51.4829 -51.4829 -51.4828 -51.4825 -51.4824 -51.4824
   -51.4823 -51.4823 -51.4823 -51.4821 -51.4821 -51.4818 -51.4818 -51.4817
   -51.4816 -51.4816 -51.4800 -51.4799 -51.4799 -51.4766 -51.4766 -51.4766
     0.0900   0.0900   0.5108   0.5113   0.5321   0.5325   0.5633   0.5634
     0.5635   0.5636   0.5727   0.5729   0.5730   0.5733   0.6533   0.6537
     0.6585   0.6589   0.6590   0.6595   0.6840   0.6845   0.7428   0.7432
     0.7625   0.7629   0.7638   0.7643   0.7705   0.7709   0.7866   0.7867
     0.7996   0.7998   0.8355   0.8360   0.8857   0.8859   0.8865   0.8867
     0.8898   0.8899   0.8904   0.8904   0.8939   0.8941   0.9176   0.9177
     0.9197   0.9198   0.9200   0.9201   0.9355   0.9360   0.9527   0.9531
     1.0282   1.0285   1.0347   1.0347   1.0552   1.0552   1.0569   1.0570
     1.0679   1.0682   1.0896   1.0897   1.0912   1.0914   1.1486   1.1486
     1.1795   1.1798   1.2041   1.2045   1.2648   1.2648   1.2660   1.2660
     1.2770   1.2773   1.5751   1.5751   1.5755   1.5756   2.4581   2.4582
     3.7873   3.7878

          k = 0.1804 0.2526 0.2526 ( 39905 PWs)   bands (ev):

   -85.4234 -85.4234 -85.4234 -85.4220 -85.4220 -85.4220 -85.4211 -85.4211
   -85.4211 -85.4211 -85.4211 -85.4211 -85.4211 -85.4211 -85.4185 -85.4146
   -51.4857 -51.4857 -51.4857 -51.4856 -51.4856 -51.4855 -51.4854 -51.4854
   -51.4852 -51.4847 -51.4847 -51.4846 -51.4846 -51.4845 -51.4844 -51.4843
   -51.4843 -51.4838 -51.4834 -51.4833 -51.4832 -51.4831 -51.4831 -51.4830
   -51.4830 -51.4829 -51.4829 -51.4829 -51.4828 -51.4825 -51.4824 -51.4823
   -51.4823 -51.4822 -51.4822 -51.4821 -51.4820 -51.4818 -51.4818 -51.4817
[...]
   -47.9262 -47.9262 -47.9261 -47.9259 -47.9259 -47.9256 -47.9256 -47.9256
   -47.9251 -47.9251 -47.9251 -47.9250 -47.9249 -47.9249 -47.9247 -47.9246
   -47.9246 -47.9246 -47.9244 -47.9241 -47.9241 -47.9240 -47.9240 -47.9238
   -47.9238 -47.9236 -47.9236 -47.9236 -47.9234 -47.9228 -47.9226 -47.9226
    -0.0242   0.9208   0.9236   0.9236   1.7646   1.7671   1.7671   2.5132
     2.8739   2.8754   2.8754   2.8866   2.8881   2.8881   3.1329   3.3572
     3.3572   3.4073   3.4073   3.4118   3.4118   3.4129   3.4628   3.4639
     3.4639   3.5325   3.5343   3.5346   3.5346   3.5361   3.5361   3.5686
     3.5686   3.5699   3.5701   3.5701   3.5811   3.5811   3.6158   3.6158
     3.6162   3.6554   3.6554   3.6567   3.6709   3.6723   3.6723   3.7948
     3.8010   3.9852   3.9864   3.9864   4.0712   4.0712   4.0726   4.1338
     4.1338   4.1687   4.1702   4.1702   4.2343   4.2353   4.2353   4.2597
     4.2603   4.2603   4.3039   4.3039   4.3051   4.3051   4.3051   4.3053
     4.3812   4.3813   4.3813   4.4182   4.4182   4.4557   4.4557   4.4832
     4.4832   4.5024   4.5024   4.5026   4.5190   4.5192   4.5192   4.6434
     4.8202   4.8211

          k = 0.1804 0.1804 0.2526 ( 39926 PWs)   bands (ev):

   -81.7891 -81.7891 -81.7891 -81.7887 -81.7887 -81.7887 -81.7882 -81.7882
   -81.7882 -81.7882 -81.7882 -81.7882 -81.7882 -81.7882 -81.7870 -81.7858
   -47.9276 -47.9276 -47.9275 -47.9275 -47.9274 -47.9274 -47.9273 -47.9271
   -47.9270 -47.9268 -47.9268 -47.9267 -47.9266 -47.9265 -47.9265 -47.9263
   -47.9263 -47.9262 -47.9261 -47.9260 -47.9260 -47.9257 -47.9256 -47.9255
   -47.9252 -47.9251 -47.9251 -47.9250 -47.9248 -47.9248 -47.9247 -47.9247
   -47.9246 -47.9244 -47.9243 -47.9242 -47.9242 -47.9239 -47.9239 -47.9238
   -47.9237 -47.9237 -47.9236 -47.9236 -47.9234 -47.9228 -47.9227 -47.9226
     0.1367   0.6124   1.0707   1.0725   1.4993   1.5010   1.9044   2.2887
     2.9249   2.9259   2.9489   2.9499   2.9638   3.1061   3.1866   3.3695
     3.3847   3.3989   3.4121   3.4334   3.4342   3.4425   3.4517   3.4768
     3.5008   3.5016   3.5023   3.5029   3.5278   3.5292   3.5352   3.5366
     3.5463   3.5476   3.5598   3.5686   3.5762   3.5789   3.5809   3.5812
     3.5892   3.6165   3.6308   3.6309   3.6316   3.6320   3.6974   3.7312
     3.8384   3.9350   4.0451   4.0458   4.0608   4.0991   4.1209   4.1217
     4.1548   4.1704   4.1704   4.1711   4.2035   4.2044   4.2184   4.2190
     4.2699   4.2708   4.2936   4.3195   4.3314   4.3315   4.3427   4.3530
     4.3752   4.3753   4.3757   4.3979   4.4097   4.4294   4.4541   4.4717
     4.4902   4.4997   4.5017   4.5018   4.5051   4.5129   4.5130   4.5305
     4.9061   4.9068

          k = 0.1804 0.1804-0.3248 ( 39932 PWs)   bands (ev):

   -81.7891 -81.7891 -81.7891 -81.7887 -81.7887 -81.7887 -81.7882 -81.7882
   -81.7882 -81.7882 -81.7882 -81.7882 -81.7882 -81.7882 -81.7870 -81.7858
   -47.9276 -47.9276 -47.9275 -47.9275 -47.9273 -47.9273 -47.9272 -47.9271
   -47.9270 -47.9269 -47.9268 -47.9267 -47.9266 -47.9266 -47.9264 -47.9264
   -47.9263 -47.9262 -47.9261 -47.9261 -47.9260 -47.9258 -47.9255 -47.9255
   -47.9253 -47.9253 -47.9249 -47.9249 -47.9248 -47.9248 -47.9247 -47.9247
   -47.9245 -47.9244 -47.9242 -47.9242 -47.9241 -47.9240 -47.9238 -47.9238
   -47.9238 -47.9238 -47.9237 -47.9237 -47.9234 -47.9228 -47.9227 -47.9227
     0.3489   0.3500   1.2643   1.2654   1.2661   1.2672   2.0808   2.0818
     2.9570   2.9576   2.9580   2.9586   3.0432   3.0437   3.3841   3.3842
     3.4081   3.4082   3.4235   3.4235   3.4253   3.4256   3.4640   3.4642
     3.4648   3.4649   3.5091   3.5096   3.5331   3.5331   3.5345   3.5345
     3.5436   3.5438   3.5446   3.5449   3.5450   3.5453   3.5715   3.5716
     3.6064   3.6067   3.6137   3.6139   3.6147   3.6149   3.7090   3.7092
     3.8855   3.8856   4.0715   4.0715   4.1071   4.1072   4.1078   4.1078
     4.1656   4.1657   4.1710   4.1711   4.1717   4.1718   4.2371   4.2372
     4.2380   4.2381   4.3330   4.3331   4.3569   4.3569   4.3569   4.3570
     4.3732   4.3733   4.3949   4.3949   4.4015   4.4017   4.4516   4.4518
     4.4888   4.4889   4.4958   4.4958   4.5063   4.5064   4.5064   4.5065
     5.0232   5.0234

          k = 0.1804 0.2526 0.2526 ( 39905 PWs)   bands (ev):

   -81.7891 -81.7891 -81.7891 -81.7887 -81.7887 -81.7887 -81.7882 -81.7882
   -81.7882 -81.7882 -81.7882 -81.7882 -81.7882 -81.7881 -81.7870 -81.7858
   -47.9276 -47.9275 -47.9275 -47.9275 -47.9274 -47.9273 -47.9272 -47.9271
   -47.9270 -47.9269 -47.9268 -47.9267 -47.9266 -47.9266 -47.9265 -47.9265
   -47.9263 -47.9263 -47.9262 -47.9261 -47.9260 -47.9258 -47.9256 -47.9255
   -47.9253 -47.9251 -47.9250 -47.9248 -47.9247 -47.9247 -47.9246 -47.9246
   -47.9244 -47.9244 -47.9243 -47.9243 -47.9242 -47.9239 -47.9238 -47.9237
   -47.9237 -47.9237 -47.9236 -47.9235 -47.9234 -47.9227 -47.9226 -47.9226
     0.2961   0.7653   0.7671   1.2147   1.2193   1.6420   1.6437   2.0462
     2.9787   3.0149   3.0158   3.0925   3.1129   3.2005   3.2010   3.3901
     3.3985   3.4204   3.4212   3.4402   3.4500   3.4671   3.4767   3.4772
     3.4776   3.4786   3.4819   3.5053   3.5067   3.5093   3.5273   3.5287
     3.5399   3.5414   3.5449   3.5485   3.5491   3.5623   3.5684   3.5690
     3.5788   3.5915   3.5919   3.5936   3.6225   3.6481   3.6489   3.6652
     3.8866   3.9910   3.9918   4.1011   4.1021   4.1023   4.1088   4.1107
     4.1620   4.1655   4.1810   4.1924   4.1934   4.2353   4.2441   4.2468
     4.2476   4.2556   4.2560   4.3029   4.3039   4.3414   4.3561   4.3630
     4.3721   4.3722   4.3888   4.3998   4.3999   4.4191   4.4291   4.4489
     4.4672   4.4918   4.4921   4.4970   4.4971   4.4983   4.4983   4.5078
     4.9989   5.2382

          k = 0.1804 0.2526-0.3248 ( 39924 PWs)   bands (ev):

   -81.7891 -81.7891 -81.7891 -81.7887 -81.7887 -81.7887 -81.7882 -81.7882
   -81.7882 -81.7882 -81.7882 -81.7882 -81.7882 -81.7882 -81.7870 -81.7858
   -47.9276 -47.9275 -47.9275 -47.9275 -47.9273 -47.9273 -47.9272 -47.9272
   -47.9270 -47.9270 -47.9267 -47.9267 -47.9266 -47.9266 -47.9265 -47.9264
   -47.9264 -47.9264 -47.9263 -47.9262 -47.9260 -47.9259 -47.9255 -47.9255
   -47.9253 -47.9253 -47.9248 -47.9248 -47.9247 -47.9247 -47.9246 -47.9246
   -47.9245 -47.9244 -47.9244 -47.9244 -47.9241 -47.9241 -47.9238 -47.9238
   -47.9237 -47.9237 -47.9236 -47.9236 -47.9234 -47.9228 -47.9226 -47.9226
     0.5061   0.5072   0.9676   0.9687   1.4110   1.4121   1.8267   1.8277
     3.0160   3.0165   3.0770   3.0774   3.1744   3.1748   3.4004   3.4005
     3.4062   3.4063   3.4322   3.4324   3.4510   3.4511   3.4560   3.4560
     3.4749   3.4750   3.4879   3.4879   3.5106   3.5110   3.5130   3.5132
     3.5195   3.5196   3.5360   3.5360   3.5542   3.5542   3.5674   3.5676
     3.5771   3.5774   3.5902   3.5906   3.6142   3.6145   3.6531   3.6533
     3.9380   3.9381   4.0505   4.0506   4.0962   4.0963   4.1415   4.1416
     4.1763   4.1764   4.1785   4.1786   4.2118   4.2119   4.2183   4.2184
     4.2681   4.2682   4.2981   4.2982   4.3298   4.3300   4.3338   4.3339
     4.3808   4.3809   4.3868   4.3868   4.4062   4.4063   4.4264   4.4265
     4.4801   4.4801   4.4907   4.4908   4.4942   4.4943   4.5023   4.5023
     5.1237   5.1242

          k = 0.1804-0.3248-0.3248 ( 39908 PWs)   bands (ev):

   -81.7891 -81.7891 -81.7891 -81.7887 -81.7887 -81.7887 -81.7882 -81.7882
   -81.7882 -81.7882 -81.7882 -81.7882 -81.7882 -81.7882 -81.7870 -81.7858
   -47.9275 -47.9275 -47.9274 -47.9274 -47.9273 -47.9273 -47.9272 -47.9272
   -47.9271 -47.9270 -47.9266 -47.9266 -47.9265 -47.9265 -47.9265 -47.9264
   -47.9264 -47.9264 -47.9263 -47.9263 -47.9260 -47.9258 -47.9256 -47.9256
   -47.9251 -47.9251 -47.9249 -47.9249 -47.9246 -47.9246 -47.9246 -47.9245
   -47.9245 -47.9245 -47.9244 -47.9244 -47.9243 -47.9242 -47.9238 -47.9238
   -47.9236 -47.9236 -47.9236 -47.9235 -47.9234 -47.9228 -47.9226 -47.9226
     0.7117   0.7139   0.7146   0.7146   1.5987   1.6008   1.6015   1.6015
     3.0629   3.0638   3.0642   3.0642   3.3221   3.3225   3.3225   3.3225
     3.4326   3.4326   3.4332   3.4332   3.4496   3.4496   3.4510   3.4513
     3.4854   3.4854   3.4865   3.4869   3.4935   3.4935   3.4949   3.4952
     3.5268   3.5272   3.5273   3.5273   3.5429   3.5429   3.5434   3.5434
     3.5957   3.5957   3.5960   3.5967   3.6143   3.6148   3.6154   3.6154
     3.9931   3.9932   3.9940   3.9940   4.1160   4.1162   4.1171   4.1171
     4.1977   4.1977   4.1986   4.1988   4.2504   4.2506   4.2513   4.2513
     4.2558   4.2558   4.2560   4.2562   4.2991   4.2993   4.3002   4.3002
     4.4053   4.4053   4.4053   4.4055   4.4056   4.4056   4.4057   4.4058
     4.4796   4.4796   4.4796   4.4798   4.4977   4.4977   4.4977   4.4978
     5.2543   5.2546

          k = 0.2526 0.2526 0.2526 ( 39897 PWs)   bands (ev):

   -81.7891 -81.7891 -81.7891 -81.7887 -81.7887 -81.7887 -81.7882 -81.7882
   -81.7882 -81.7882 -81.7882 -81.7882 -81.7882 -81.7882 -81.7870 -81.7858
   -47.9275 -47.9275 -47.9274 -47.9274 -47.9274 -47.9273 -47.9271 -47.9271
   -47.9269 -47.9268 -47.9268 -47.9267 -47.9267 -47.9267 -47.9267 -47.9265
   -47.9265 -47.9264 -47.9262 -47.9262 -47.9262 -47.9258 -47.9258 -47.9256
   -47.9255 -47.9249 -47.9247 -47.9247 -47.9246 -47.9246 -47.9246 -47.9244
   -47.9244 -47.9244 -47.9243 -47.9242 -47.9242 -47.9239 -47.9239 -47.9237
   -47.9237 -47.9237 -47.9237 -47.9234 -47.9234 -47.9227 -47.9226 -47.9226
     0.4540   0.9169   0.9196   0.9196   1.3603   1.3630   1.3630   1.7849
     3.1394   3.1406   3.1406   3.1669   3.2222   3.2230   3.2230   3.4100
     3.4100   3.4372   3.4372   3.4384   3.4763   3.4763   3.4814   3.4834
     3.4834   3.4876   3.4895   3.4895   3.5089   3.5100   3.5100   3.5143
     3.5143   3.5155   3.5316   3.5316   3.5356   3.5591   3.5591   3.5597
     3.5710   3.5710   3.5720   3.5771   3.5771   3.6069   3.6083   3.6083
     3.9382   4.0502   4.0513   4.0513   4.1449   4.1449   4.1455   4.1455
     4.1463   4.1796   4.1807   4.1807   4.2090   4.2102   4.2102   4.2222
     4.2230   4.2230   4.2662   4.2662   4.2676   4.3161   4.3161   4.3368
     4.3919   4.3919   4.3919   4.4122   4.4123   4.4123   4.4481   4.4481
     4.4636   4.4636   4.4849   4.4849   4.4850   4.4891   4.4892   4.4892
     5.3574   5.3575

          k = 0.2526 0.2526-0.3248 ( 39900 PWs)   bands (ev):

   -81.7891 -81.7891 -81.7891 -81.7887 -81.7887 -81.7887 -81.7882 -81.7882
   -81.7882 -81.7882 -81.7882 -81.7882 -81.7882 -81.7882 -81.7870 -81.7858
   -47.9275 -47.9274 -47.9274 -47.9274 -47.9272 -47.9272 -47.9272 -47.9271
   -47.9269 -47.9269 -47.9268 -47.9268 -47.9267 -47.9267 -47.9267 -47.9266
   -47.9265 -47.9264 -47.9263 -47.9262 -47.9261 -47.9259 -47.9257 -47.9257
   -47.9252 -47.9252 -47.9248 -47.9247 -47.9247 -47.9246 -47.9245 -47.9244
   -47.9244 -47.9243 -47.9243 -47.9243 -47.9241 -47.9240 -47.9237 -47.9237
   -47.9237 -47.9237 -47.9235 -47.9235 -47.9233 -47.9227 -47.9227 -47.9226
     0.6618   0.6629   1.1172   1.1183   1.1190   1.1201   1.5534   1.5544
     3.1724   3.1727   3.2077   3.2080   3.2084   3.2087   3.4035   3.4035
     3.4236   3.4237   3.4416   3.4418   3.4622   3.4623   3.4631   3.4632
     3.4864   3.4865   3.4936   3.4936   3.4949   3.4949   3.5061   3.5062
     3.5207   3.5211   3.5226   3.5227   3.5379   3.5382   3.5382   3.5385
     3.5704   3.5707   3.5755   3.5758   3.5765   3.5767   3.5980   3.5983
     3.9936   3.9937   4.1142   4.1143   4.1149   4.1150   4.1386   4.1387
     4.1801   4.1802   4.1857   4.1858   4.1865   4.1866   4.2341   4.2342
     4.2349   4.2350   4.2559   4.2560   4.2685   4.2687   4.2910   4.2911
     4.4086   4.4086   4.4086   4.4087   4.4227   4.4228   4.4382   4.4383
     4.4689   4.4690   4.4755   4.4755   4.4828   4.4828   4.4829   4.4829
     5.5096   5.5102

          k = 0.2526-0.3248-0.3248 ( 39836 PWs)   bands (ev):

   -81.7890 -81.7890 -81.7890 -81.7886 -81.7886 -81.7886 -81.7882 -81.7882
   -81.7882 -81.7882 -81.7882 -81.7882 -81.7882 -81.7882 -81.7870 -81.7858
   -47.9274 -47.9274 -47.9272 -47.9272 -47.9272 -47.9272 -47.9270 -47.9270
   -47.9269 -47.9268 -47.9268 -47.9268 -47.9268 -47.9267 -47.9266 -47.9265
   -47.9265 -47.9265 -47.9262 -47.9262 -47.9260 -47.9258 -47.9258 -47.9258
   -47.9249 -47.9249 -47.9247 -47.9247 -47.9246 -47.9245 -47.9245 -47.9245
   -47.9242 -47.9242 -47.9241 -47.9241 -47.9241 -47.9241 -47.9238 -47.9238
   -47.9237 -47.9236 -47.9234 -47.9233 -47.9233 -47.9228 -47.9226 -47.9226
     0.8653   0.8675   0.8683   0.8683   1.3134   1.3156   1.3162   1.3162
     3.2138   3.2144   3.2148   3.2148   3.3385   3.3387   3.3389   3.3389
     3.4463   3.4464   3.4470   3.4470   3.4589   3.4589   3.4603   3.4606
     3.4827   3.4827   3.4841   3.4843   3.5045   3.5045   3.5051   3.5051
     3.5116   3.5116   3.5124   3.5129   3.5386   3.5390   3.5390   3.5391
     3.5630   3.5637   3.5640   3.5640   3.5701   3.5701   3.5705   3.5712
     4.0527   4.0529   4.0535   4.0535   4.1648   4.1649   4.1659   4.1659
     4.1832   4.1834   4.1840   4.1840   4.2010   4.2010   4.2017   4.2019
     4.2308   4.2308   4.2312   4.2314   4.2567   4.2569   4.2578   4.2578
     4.4268   4.4268   4.4268   4.4269   4.4301   4.4301   4.4301   4.4303
     4.4673   4.4673   4.4674   4.4675   4.4742   4.4743   4.4743   4.4743
     5.6339   5.6346

          k =-0.3248-0.3248-0.3248 ( 39816 PWs)   bands (ev):

   -81.7890 -81.7890 -81.7890 -81.7886 -81.7886 -81.7886 -81.7882 -81.7882
   -81.7882 -81.7882 -81.7882 -81.7882 -81.7882 -81.7882 -81.7870 -81.7858
   -47.9272 -47.9272 -47.9271 -47.9271 -47.9271 -47.9271 -47.9271 -47.9269
   -47.9269 -47.9269 -47.9269 -47.9269 -47.9269 -47.9268 -47.9267 -47.9267
   -47.9267 -47.9267 -47.9261 -47.9261 -47.9261 -47.9259 -47.9259 -47.9259
   -47.9248 -47.9248 -47.9246 -47.9246 -47.9246 -47.9245 -47.9245 -47.9245
   -47.9240 -47.9240 -47.9240 -47.9240 -47.9240 -47.9240 -47.9240 -47.9238
   -47.9238 -47.9238 -47.9233 -47.9233 -47.9233 -47.9227 -47.9227 -47.9227
     1.0647   1.0680   1.0694   1.0694   1.0694   1.0705   1.0705   1.0705
     3.3063   3.3068   3.3076   3.3076   3.3076   3.3077   3.3077   3.3077
     3.4699   3.4699   3.4699   3.4701   3.4701   3.4701   3.4719   3.4719
     3.4720   3.4720   3.4720   3.4721   3.4721   3.4723   3.4723   3.4723
     3.5403   3.5403   3.5403   3.5407   3.5407   3.5407   3.5413   3.5413
     3.5417   3.5417   3.5417   3.5419   3.5419   3.5419   3.5422   3.5422
     4.1159   4.1162   4.1174   4.1174   4.1174   4.1175   4.1175   4.1175
     4.2117   4.2117   4.2117   4.2117   4.2117   4.2117   4.2119   4.2119
     4.2123   4.2123   4.2133   4.2133   4.2133   4.2134   4.2134   4.2134
     4.4507   4.4507   4.4507   4.4507   4.4507   4.4507   4.4507   4.4507
     4.4507   4.4508   4.4508   4.4508   4.4508   4.4508   4.4510   4.4510
     5.8551   5.8564

     the Fermi energy is     3.7265 ev

!    total energy              =   -5264.46961764 Ry

     total all-electron energy =    -40725.214147 Ry
     estimated scf accuracy    <       0.00000008 Ry
     smearing contrib. (-TS)   =      -0.17754577 Ry
     internal energy E=F+TS    =   -5264.29207186 Ry

     The total energy is F=E-TS. E is the sum of the following terms:
     one-electron contribution =   -3268.14518700 Ry
     hartree contribution      =    1654.13116838 Ry
     xc contribution           =    -440.17213303 Ry
     ewald contribution        =   -1885.80891677 Ry
     one-center paw contrib.   =   -1324.29700345 Ry

     total magnetization       =    51.63 Bohr mag/cell
     absolute magnetization    =    55.27 Bohr mag/cell

     convergence has been achieved in  54 iterations

     negative rho (up, down):  0.000E+00 5.356E-03

     Forces acting on atoms (cartesian axes, Ry/au):

     atom    1 type  1   force =     0.00000000    0.00000000    0.00000000
     atom    2 type  2   force =     0.00001142    0.00001142    0.00001142
     atom    3 type  1   force =     0.00000000    0.00000000    0.00000000
     atom    4 type  2   force =     0.00001142    0.00001142   -0.00001142
     atom    5 type  1   force =     0.00000000    0.00000000    0.00000000
     atom    6 type  2   force =     0.00001142   -0.00001142    0.00001142
     atom    7 type  1   force =     0.00000000    0.00000000    0.00000000
     atom    8 type  2   force =     0.00001142   -0.00001142   -0.00001142
     atom    9 type  1   force =     0.00000000    0.00000000    0.00000000
     atom   10 type  2   force =    -0.00001142    0.00001142    0.00001142
     atom   11 type  1   force =     0.00000000    0.00000000    0.00000000
     atom   12 type  2   force =    -0.00001142    0.00001142   -0.00001142
     atom   13 type  1   force =     0.00000000    0.00000000    0.00000000
     atom   14 type  2   force =    -0.00001142   -0.00001142    0.00001142
     atom   15 type  1   force =     0.00000000    0.00000000    0.00000000
     atom   16 type  2   force =    -0.00001142   -0.00001142   -0.00001142

     Total force =     0.000056     Total SCF correction =     0.000348
     SCF correction compared to forces is large: reduce conv_thr to get better values


     Computing stress (Cartesian axis) and pressure


     negative rho (up, down):  0.000E+00 5.356E-03
          total   stress  (Ry/bohr**3)                   (kbar)     P=     -142.14
  -0.00096628   0.00000000   0.00000000         -142.14        0.00        0.00
   0.00000000  -0.00096628   0.00000000            0.00     -142.14        0.00
   0.00000000   0.00000000  -0.00096628            0.00        0.00     -142.14


     Writing output data file /scratch/jjpyEGSrXzAmCiYr.save/
 
     init_run     :     10.51s CPU     10.88s WALL (       1 calls)
     electrons    :   1686.88s CPU   1708.07s WALL (       1 calls)
     forces       :      3.29s CPU      3.35s WALL (       1 calls)
     stress       :     16.52s CPU     16.66s WALL (       1 calls)

     Called by init_run:
     wfcinit      :      9.66s CPU      9.92s WALL (       1 calls)
     potinit      :      0.26s CPU      0.29s WALL (       1 calls)
     hinit0       :      0.21s CPU      0.21s WALL (       1 calls)

     Called by electrons:
     c_bands      :   1457.83s CPU   1473.10s WALL (      54 calls)
     sum_band     :    215.39s CPU    219.68s WALL (      54 calls)
     v_of_rho     :      2.02s CPU      2.14s WALL (      55 calls)
     newd         :      3.28s CPU      4.12s WALL (      55 calls)
     PAW_pot      :      6.45s CPU      7.03s WALL (      55 calls)
     mix_rho      :      1.83s CPU      1.92s WALL (      54 calls)

     Called by c_bands:
     init_us_2    :      9.65s CPU      9.87s WALL (    7770 calls)
     cegterg      :   1421.27s CPU   1435.89s WALL (    3780 calls)

     Called by *egterg:
     cdiaghg      :    168.73s CPU    169.65s WALL (   18351 calls)
     h_psi        :    875.09s CPU    886.33s WALL (   18421 calls)
     s_psi        :     41.50s CPU     41.81s WALL (   18421 calls)
     g_psi        :      2.46s CPU      2.49s WALL (   14571 calls)

     Called by h_psi:
     h_psi:calbec :     76.11s CPU     76.72s WALL (   18421 calls)
     vloc_psi     :    749.48s CPU    759.67s WALL (   18421 calls)
     add_vuspsi   :     44.58s CPU     44.98s WALL (   18421 calls)

     General routines
     calbec       :    109.34s CPU    110.19s WALL (   22551 calls)
     fft          :      1.62s CPU      1.66s WALL (    1413 calls)
     ffts         :      0.98s CPU      1.00s WALL (    1653 calls)
     fftw         :    880.52s CPU    892.57s WALL ( 3414594 calls)
     interpolate  :      0.19s CPU      0.20s WALL (     110 calls)
 
     Parallel routines
     fft_scatt_xy :     83.12s CPU     84.24s WALL ( 3417660 calls)
     fft_scatt_yz :    630.64s CPU    639.47s WALL ( 3417660 calls)
 
     PWSCF        :  28m48.16s CPU  29m12.15s WALL

 
   This run was terminated on:  15:48:58  17Jan2022            

=------------------------------------------------------------------------------=
   JOB DONE.
=------------------------------------------------------------------------------=
