
     Program PWSCF v.6.7MaX starts on 17Jan2022 at 14:22: 3 

     This program is part of the open-source Quantum ESPRESSO suite
     for quantum simulation of materials; please cite
         "P. Giannozzi et al., J. Phys.:Condens. Matter 21 395502 (2009);
         "P. Giannozzi et al., J. Phys.:Condens. Matter 29 465901 (2017);
          URL http://www.quantum-espresso.org", 
     in publications or presentations arising from this work. More details at
     http://www.quantum-espresso.org/quote

     Parallel version (MPI & OpenMP), running on      72 processor cores
     Number of MPI processes:                72
     Threads/MPI process:                     1

     MPI processes distributed on     1 nodes
     R & G space division:  proc/nbgrp/npool/nimage =      72
     Reading input from bcc_10.in
Warning: card &CELL ignored
Warning: card CELL_DYNAMICS = 'BFGS', ignored
Warning: card CELL_FACTOR = 2.0, ignored
Warning: card PRESS = 0.0, ignored
Warning: card / ignored

     Current dimensions of program PWSCF are:
     Max number of different atomic species (ntypx) = 10
     Max number of k-points (npk) =  40000
     Max angular momentum in pseudopotentials (lmaxx) =  3
     file Fe.pbe-spn-kjpaw_psl.1.0.0.UPF: wavefunction(s)  3P 3D renormalized
     file Fe.pbe-spn-kjpaw_psl.1.0.0.UPF: wavefunction(s)  3P 3D renormalized

     Subspace diagonalization in iterative solution of the eigenvalue problem:
     one sub-group per band group will be used
     ELPA distributed-memory algorithm (size of sub-group:  8*  8 procs)

     Found symmetry operation: I + (  0.0000  0.0000 -0.5000)
     This is a supercell, fractional translations are disabled
     Message from routine setup:
     using ibrav=0 with symmetry is DISCOURAGED, use correct ibrav instead
 
     Parallelization info
     --------------------
     sticks:   dense  smooth     PW     G-vecs:    dense   smooth      PW
     Min          90      59     16                 5472     2937     422
     Max          91      60     17                 5477     2942     427
     Sum        6501    4281   1185               394055   211657   30551
 


     bravais-lattice index     =            0
     lattice parameter (alat)  =      10.2690  a.u.
     unit-cell volume          =    2617.8783 (a.u.)^3
     number of atoms/cell      =           16
     number of atomic types    =            2
     number of electrons       =       256.00
     number of Kohn-Sham states=          154
     kinetic-energy cutoff     =      71.0000  Ry
     charge density cutoff     =     430.0000  Ry
     scf convergence threshold =      1.0E-07
     mixing beta               =       0.1000
     number of iterations used =           10  local-TF  mixing
     Exchange-correlation= SLA  PW   PBX  PBC
                           (   1   4   3   4   0   0   0)

     celldm(1)=  10.269041  celldm(2)=   0.000000  celldm(3)=   0.000000
     celldm(4)=   0.000000  celldm(5)=   0.000000  celldm(6)=   0.000000

     crystal axes: (cart. coord. in units of alat)
               a(1) = (   1.342105   0.000000   0.000000 )  
               a(2) = (   0.000000   1.342105   0.000000 )  
               a(3) = (   0.000000   0.000000   1.342105 )  

     reciprocal axes: (cart. coord. in units 2 pi/alat)
               b(1) = (  0.745098  0.000000  0.000000 )  
               b(2) = (  0.000000  0.745098  0.000000 )  
               b(3) = (  0.000000  0.000000  0.745098 )  


     PseudoPot. # 1 for Fe read from file:
     /rds/homes/b/bxp912/pp/Fe.pbe-spn-kjpaw_psl.1.0.0.UPF
     MD5 check sum: 42f43b795421b414b0dc916aa790dbcb
     Pseudo is Projector augmented-wave + core cor, Zval = 16.0
     Generated using &quot;atomic&quot; code by A. Dal Corso  v.6.3
     Shape of augmentation charge: PSQ
     Using radial grid of 1191 points,  6 beta functions with: 
                l(1) =   0
                l(2) =   0
                l(3) =   1
                l(4) =   1
                l(5) =   2
                l(6) =   2
     Q(r) pseudized with 0 coefficients 


     PseudoPot. # 2 for Fe read from file:
     /rds/homes/b/bxp912/pp/Fe.pbe-spn-kjpaw_psl.1.0.0.UPF
     MD5 check sum: 42f43b795421b414b0dc916aa790dbcb
     Pseudo is Projector augmented-wave + core cor, Zval = 16.0
     Generated using &quot;atomic&quot; code by A. Dal Corso  v.6.3
     Shape of augmentation charge: PSQ
     Using radial grid of 1191 points,  6 beta functions with: 
                l(1) =   0
                l(2) =   0
                l(3) =   1
                l(4) =   1
                l(5) =   2
                l(6) =   2
     Q(r) pseudized with 0 coefficients 


     atomic species   valence    mass     pseudopotential
        Fe1           16.00    55.84500     Fe( 1.00)
        Fe2           16.00    55.84500     Fe( 1.00)

     Starting magnetic structure 
     atomic species   magnetization
        Fe1          0.100
        Fe2          0.100

     48 Sym. Ops., with inversion, found



   Cartesian axes

     site n.     atom                  positions (alat units)
         1           Fe1 tau(   1) = (   0.0000000   0.0000000   0.0000000  )
         2           Fe2 tau(   2) = (   0.3355263   0.3355263   0.3355263  )
         3           Fe1 tau(   3) = (   0.0000000   0.0000000   0.6710526  )
         4           Fe2 tau(   4) = (   0.3355263   0.3355263   1.0065789  )
         5           Fe1 tau(   5) = (   0.0000000   0.6710526   0.0000000  )
         6           Fe2 tau(   6) = (   0.3355263   1.0065789   0.3355263  )
         7           Fe1 tau(   7) = (   0.0000000   0.6710526   0.6710526  )
         8           Fe2 tau(   8) = (   0.3355263   1.0065789   1.0065789  )
         9           Fe1 tau(   9) = (   0.6710526   0.0000000   0.0000000  )
        10           Fe2 tau(  10) = (   1.0065789   0.3355263   0.3355263  )
        11           Fe1 tau(  11) = (   0.6710526   0.0000000   0.6710526  )
        12           Fe2 tau(  12) = (   1.0065789   0.3355263   1.0065789  )
        13           Fe1 tau(  13) = (   0.6710526   0.6710526   0.0000000  )
        14           Fe2 tau(  14) = (   1.0065789   1.0065789   0.3355263  )
        15           Fe1 tau(  15) = (   0.6710526   0.6710526   0.6710526  )
        16           Fe2 tau(  16) = (   1.0065789   1.0065789   1.0065789  )

     number of k points=    35  Marzari-Vanderbilt smearing, width (Ry)=  0.0400
                       cart. coord. in units 2pi/alat
        k(    1) = (   0.0413943   0.0413943   0.0413943), wk =   0.0109739
        k(    2) = (   0.0413943   0.0413943   0.1241830), wk =   0.0329218
        k(    3) = (   0.0413943   0.0413943   0.2069717), wk =   0.0329218
        k(    4) = (   0.0413943   0.0413943   0.2897603), wk =   0.0329218
        k(    5) = (   0.0413943   0.0413943  -0.3725490), wk =   0.0164609
        k(    6) = (   0.0413943   0.1241830   0.1241830), wk =   0.0329218
        k(    7) = (   0.0413943   0.1241830   0.2069717), wk =   0.0658436
        k(    8) = (   0.0413943   0.1241830   0.2897603), wk =   0.0658436
        k(    9) = (   0.0413943   0.1241830  -0.3725490), wk =   0.0329218
        k(   10) = (   0.0413943   0.2069717   0.2069717), wk =   0.0329218
        k(   11) = (   0.0413943   0.2069717   0.2897603), wk =   0.0658436
        k(   12) = (   0.0413943   0.2069717  -0.3725490), wk =   0.0329218
        k(   13) = (   0.0413943   0.2897603   0.2897603), wk =   0.0329218
        k(   14) = (   0.0413943   0.2897603  -0.3725490), wk =   0.0329218
        k(   15) = (   0.0413943  -0.3725490  -0.3725490), wk =   0.0082305
        k(   16) = (   0.1241830   0.1241830   0.1241830), wk =   0.0109739
        k(   17) = (   0.1241830   0.1241830   0.2069717), wk =   0.0329218
        k(   18) = (   0.1241830   0.1241830   0.2897603), wk =   0.0329218
        k(   19) = (   0.1241830   0.1241830  -0.3725490), wk =   0.0164609
        k(   20) = (   0.1241830   0.2069717   0.2069717), wk =   0.0329218
        k(   21) = (   0.1241830   0.2069717   0.2897603), wk =   0.0658436
        k(   22) = (   0.1241830   0.2069717  -0.3725490), wk =   0.0329218
        k(   23) = (   0.1241830   0.2897603   0.2897603), wk =   0.0329218
        k(   24) = (   0.1241830   0.2897603  -0.3725490), wk =   0.0329218
        k(   25) = (   0.1241830  -0.3725490  -0.3725490), wk =   0.0082305
        k(   26) = (   0.2069717   0.2069717   0.2069717), wk =   0.0109739
        k(   27) = (   0.2069717   0.2069717   0.2897603), wk =   0.0329218
        k(   28) = (   0.2069717   0.2069717  -0.3725490), wk =   0.0164609
        k(   29) = (   0.2069717   0.2897603   0.2897603), wk =   0.0329218
        k(   30) = (   0.2069717   0.2897603  -0.3725490), wk =   0.0329218
        k(   31) = (   0.2069717  -0.3725490  -0.3725490), wk =   0.0082305
        k(   32) = (   0.2897603   0.2897603   0.2897603), wk =   0.0109739
        k(   33) = (   0.2897603   0.2897603  -0.3725490), wk =   0.0164609
        k(   34) = (   0.2897603  -0.3725490  -0.3725490), wk =   0.0082305
        k(   35) = (  -0.3725490  -0.3725490  -0.3725490), wk =   0.0013717

     Dense  grid:   394055 G-vectors     FFT dimensions: (  96,  96,  96)

     Smooth grid:   211657 G-vectors     FFT dimensions: (  75,  75,  75)

     Estimated max dynamical RAM per process >      90.42 MB

     Estimated total dynamical RAM >       6.36 GB

     Check: negative core charge=   -0.000004
     Generating pointlists ...
     new r_m :   0.2397 (alat units)  2.4617 (a.u.) for type    1
     new r_m :   0.2397 (alat units)  2.4617 (a.u.) for type    2

     Initial potential from superposition of free atoms

     starting charge  255.99300, renormalised to  256.00000
     Starting wfcs are  160 randomized atomic wfcs
     Checking if some PAW data can be deallocated... 

     total cpu time spent up to now is       11.6 secs

     Self-consistent Calculation

     iteration #  1     ecut=    71.00 Ry     beta= 0.10
     Davidson diagonalization with overlap
     ethr =  1.00E-02,  avg # of iterations =  3.6

     total cpu time spent up to now is       36.3 secs

     total energy              =   -5265.19959600 Ry
     estimated scf accuracy    <       3.89905495 Ry

     total magnetization       =    48.05 Bohr mag/cell
     absolute magnetization    =    48.11 Bohr mag/cell

     iteration #  2     ecut=    71.00 Ry     beta= 0.10
     Davidson diagonalization with overlap
     ethr =  1.52E-03,  avg # of iterations =  3.1

     total cpu time spent up to now is       59.1 secs

     total energy              =   -5265.40967080 Ry
     estimated scf accuracy    <       2.11098897 Ry

     total magnetization       =    48.26 Bohr mag/cell
     absolute magnetization    =    48.37 Bohr mag/cell

     iteration #  3     ecut=    71.00 Ry     beta= 0.10
     Davidson diagonalization with overlap
     ethr =  8.25E-04,  avg # of iterations =  3.7

     negative rho (up, down):  0.000E+00 2.599E-03

     total cpu time spent up to now is       83.3 secs

     total energy              =   -5265.90757432 Ry
     estimated scf accuracy    <       0.52594727 Ry

     total magnetization       =    48.71 Bohr mag/cell
     absolute magnetization    =    49.57 Bohr mag/cell

     iteration #  4     ecut=    71.00 Ry     beta= 0.10
     Davidson diagonalization with overlap
     ethr =  2.05E-04,  avg # of iterations =  5.2

     negative rho (up, down):  0.000E+00 6.441E-03

     total cpu time spent up to now is      112.3 secs

     total energy              =   -5266.00930548 Ry
     estimated scf accuracy    <       1.04204636 Ry

     total magnetization       =    50.90 Bohr mag/cell
     absolute magnetization    =    54.11 Bohr mag/cell

     iteration #  5     ecut=    71.00 Ry     beta= 0.10
     Davidson diagonalization with overlap
     ethr =  2.05E-04,  avg # of iterations =  2.6

     negative rho (up, down):  0.000E+00 4.880E-03

     total cpu time spent up to now is      135.5 secs

     total energy              =   -5265.96464690 Ry
     estimated scf accuracy    <       0.28692537 Ry

     total magnetization       =    50.89 Bohr mag/cell
     absolute magnetization    =    54.99 Bohr mag/cell

     iteration #  6     ecut=    71.00 Ry     beta= 0.10
     Davidson diagonalization with overlap
     ethr =  1.12E-04,  avg # of iterations =  4.7

     negative rho (up, down):  0.000E+00 4.747E-03

     total cpu time spent up to now is      163.7 secs

     total energy              =   -5266.03637567 Ry
     estimated scf accuracy    <       0.04222608 Ry

     total magnetization       =    49.75 Bohr mag/cell
     absolute magnetization    =    52.86 Bohr mag/cell

     iteration #  7     ecut=    71.00 Ry     beta= 0.10
     Davidson diagonalization with overlap
     ethr =  1.65E-05,  avg # of iterations =  3.4

     negative rho (up, down):  0.000E+00 5.412E-03

     total cpu time spent up to now is      188.1 secs

     total energy              =   -5266.04717241 Ry
     estimated scf accuracy    <       0.00910062 Ry

     total magnetization       =    49.90 Bohr mag/cell
     absolute magnetization    =    53.38 Bohr mag/cell

     iteration #  8     ecut=    71.00 Ry     beta= 0.10
     Davidson diagonalization with overlap
     ethr =  3.55E-06,  avg # of iterations =  4.1

     negative rho (up, down):  0.000E+00 5.594E-03

     total cpu time spent up to now is      216.2 secs

     total energy              =   -5266.04111582 Ry
     estimated scf accuracy    <       0.03297162 Ry

     total magnetization       =    49.65 Bohr mag/cell
     absolute magnetization    =    53.56 Bohr mag/cell

     iteration #  9     ecut=    71.00 Ry     beta= 0.10
     Davidson diagonalization with overlap
     ethr =  3.55E-06,  avg # of iterations =  4.8

     negative rho (up, down):  0.000E+00 5.613E-03

     total cpu time spent up to now is      249.2 secs

     total energy              =   -5266.04635453 Ry
     estimated scf accuracy    <       0.00022145 Ry

     total magnetization       =    49.96 Bohr mag/cell
     absolute magnetization    =    54.11 Bohr mag/cell

     iteration # 10     ecut=    71.00 Ry     beta= 0.10
     Davidson diagonalization with overlap
     ethr =  8.65E-08,  avg # of iterations =  5.9

     negative rho (up, down):  0.000E+00 5.538E-03

     total cpu time spent up to now is      284.9 secs

     total energy              =   -5266.04599955 Ry
     estimated scf accuracy    <       0.00157469 Ry

     total magnetization       =    50.00 Bohr mag/cell
     absolute magnetization    =    54.16 Bohr mag/cell

     iteration # 11     ecut=    71.00 Ry     beta= 0.10
     Davidson diagonalization with overlap
     ethr =  8.65E-08,  avg # of iterations =  6.0

     negative rho (up, down):  0.000E+00 5.571E-03

     total cpu time spent up to now is      324.8 secs

     total energy              =   -5266.04628810 Ry
     estimated scf accuracy    <       0.00057299 Ry

     total magnetization       =    49.89 Bohr mag/cell
     absolute magnetization    =    53.98 Bohr mag/cell

     iteration # 12     ecut=    71.00 Ry     beta= 0.10
     Davidson diagonalization with overlap
     ethr =  8.65E-08,  avg # of iterations =  5.4

     negative rho (up, down):  0.000E+00 5.554E-03

     total cpu time spent up to now is      361.3 secs

     total energy              =   -5266.04651740 Ry
     estimated scf accuracy    <       0.00032773 Ry

     total magnetization       =    49.92 Bohr mag/cell
     absolute magnetization    =    54.11 Bohr mag/cell

     iteration # 13     ecut=    71.00 Ry     beta= 0.10
     Davidson diagonalization with overlap
     ethr =  8.65E-08,  avg # of iterations =  1.3

     negative rho (up, down):  0.000E+00 5.550E-03

     total cpu time spent up to now is      381.3 secs

     total energy              =   -5266.04651157 Ry
     estimated scf accuracy    <       0.00017203 Ry

     total magnetization       =    49.91 Bohr mag/cell
     absolute magnetization    =    54.09 Bohr mag/cell

     iteration # 14     ecut=    71.00 Ry     beta= 0.10
     Davidson diagonalization with overlap
     ethr =  6.72E-08,  avg # of iterations =  2.6

     negative rho (up, down):  0.000E+00 5.542E-03

     total cpu time spent up to now is      403.3 secs

     total energy              =   -5266.04652531 Ry
     estimated scf accuracy    <       0.00007256 Ry

     total magnetization       =    49.90 Bohr mag/cell
     absolute magnetization    =    54.07 Bohr mag/cell

     iteration # 15     ecut=    71.00 Ry     beta= 0.10
     Davidson diagonalization with overlap
     ethr =  2.83E-08,  avg # of iterations =  2.4

     negative rho (up, down):  0.000E+00 5.519E-03

     total cpu time spent up to now is      424.7 secs

     total energy              =   -5266.04651849 Ry
     estimated scf accuracy    <       0.00005756 Ry

     total magnetization       =    49.90 Bohr mag/cell
     absolute magnetization    =    54.06 Bohr mag/cell

     iteration # 16     ecut=    71.00 Ry     beta= 0.10
     Davidson diagonalization with overlap
     ethr =  2.25E-08,  avg # of iterations =  2.9

     negative rho (up, down):  0.000E+00 5.521E-03

     total cpu time spent up to now is      448.5 secs

     total energy              =   -5266.04652986 Ry
     estimated scf accuracy    <       0.00000512 Ry

     total magnetization       =    49.89 Bohr mag/cell
     absolute magnetization    =    54.03 Bohr mag/cell

     iteration # 17     ecut=    71.00 Ry     beta= 0.10
     Davidson diagonalization with overlap
     ethr =  2.00E-09,  avg # of iterations =  3.1

     negative rho (up, down):  0.000E+00 5.519E-03

     total cpu time spent up to now is      470.9 secs

     total energy              =   -5266.04653176 Ry
     estimated scf accuracy    <       0.00000317 Ry

     total magnetization       =    49.89 Bohr mag/cell
     absolute magnetization    =    54.03 Bohr mag/cell

     iteration # 18     ecut=    71.00 Ry     beta= 0.10
     Davidson diagonalization with overlap
     ethr =  1.24E-09,  avg # of iterations =  2.0

     negative rho (up, down):  0.000E+00 5.519E-03

     total cpu time spent up to now is      491.9 secs

     total energy              =   -5266.04653365 Ry
     estimated scf accuracy    <       0.00000109 Ry

     total magnetization       =    49.89 Bohr mag/cell
     absolute magnetization    =    54.03 Bohr mag/cell

     iteration # 19     ecut=    71.00 Ry     beta= 0.10
     Davidson diagonalization with overlap
     ethr =  4.27E-10,  avg # of iterations =  2.0

     negative rho (up, down):  0.000E+00 5.521E-03

     total cpu time spent up to now is      514.3 secs

     total energy              =   -5266.04653455 Ry
     estimated scf accuracy    <       0.00000113 Ry

     total magnetization       =    49.89 Bohr mag/cell
     absolute magnetization    =    54.03 Bohr mag/cell

     iteration # 20     ecut=    71.00 Ry     beta= 0.10
     Davidson diagonalization with overlap
     ethr =  4.27E-10,  avg # of iterations =  5.2

     negative rho (up, down):  0.000E+00 5.521E-03

     total cpu time spent up to now is      546.1 secs

     total energy              =   -5266.04653594 Ry
     estimated scf accuracy    <       0.00000088 Ry

     total magnetization       =    49.88 Bohr mag/cell
     absolute magnetization    =    54.03 Bohr mag/cell

     iteration # 21     ecut=    71.00 Ry     beta= 0.10
     Davidson diagonalization with overlap
     ethr =  3.43E-10,  avg # of iterations =  2.0

     negative rho (up, down):  0.000E+00 5.521E-03

     total cpu time spent up to now is      568.6 secs

     total energy              =   -5266.04653686 Ry
     estimated scf accuracy    <       0.00000012 Ry

     total magnetization       =    49.89 Bohr mag/cell
     absolute magnetization    =    54.03 Bohr mag/cell

     iteration # 22     ecut=    71.00 Ry     beta= 0.10
     Davidson diagonalization with overlap
     ethr =  4.72E-11,  avg # of iterations =  5.5

     negative rho (up, down):  0.000E+00 5.521E-03

     total cpu time spent up to now is      599.2 secs

     total energy              =   -5266.04653768 Ry
     estimated scf accuracy    <       0.00000012 Ry

     total magnetization       =    49.89 Bohr mag/cell
     absolute magnetization    =    54.03 Bohr mag/cell

     iteration # 23     ecut=    71.00 Ry     beta= 0.10
     Davidson diagonalization with overlap
     ethr =  4.72E-11,  avg # of iterations =  1.0

     negative rho (up, down):  0.000E+00 5.521E-03

     total cpu time spent up to now is      618.4 secs

     total energy              =   -5266.04653827 Ry
     estimated scf accuracy    <       0.00000018 Ry

     total magnetization       =    49.89 Bohr mag/cell
     absolute magnetization    =    54.03 Bohr mag/cell

     iteration # 24     ecut=    71.00 Ry     beta= 0.10
     Davidson diagonalization with overlap
     ethr =  4.72E-11,  avg # of iterations =  1.0

     negative rho (up, down):  0.000E+00 5.521E-03

     total cpu time spent up to now is      638.1 secs

     total energy              =   -5266.04653875 Ry
     estimated scf accuracy    <       0.00000018 Ry

     total magnetization       =    49.89 Bohr mag/cell
     absolute magnetization    =    54.03 Bohr mag/cell

     iteration # 25     ecut=    71.00 Ry     beta= 0.10
     Davidson diagonalization with overlap
     ethr =  4.72E-11,  avg # of iterations =  1.0

     negative rho (up, down):  0.000E+00 5.521E-03

     total cpu time spent up to now is      657.6 secs

     total energy              =   -5266.04653914 Ry
     estimated scf accuracy    <       0.00000019 Ry

     total magnetization       =    49.89 Bohr mag/cell
     absolute magnetization    =    54.03 Bohr mag/cell

     iteration # 26     ecut=    71.00 Ry     beta= 0.10
     Davidson diagonalization with overlap
     ethr =  4.72E-11,  avg # of iterations =  1.0

     negative rho (up, down):  0.000E+00 5.521E-03

     total cpu time spent up to now is      677.5 secs

     total energy              =   -5266.04653945 Ry
     estimated scf accuracy    <       0.00000023 Ry

     total magnetization       =    49.89 Bohr mag/cell
     absolute magnetization    =    54.03 Bohr mag/cell

     iteration # 27     ecut=    71.00 Ry     beta= 0.10
     Davidson diagonalization with overlap
     ethr =  4.72E-11,  avg # of iterations =  1.0

     negative rho (up, down):  0.000E+00 5.521E-03

     total cpu time spent up to now is      697.1 secs

     total energy              =   -5266.04653970 Ry
     estimated scf accuracy    <       0.00000022 Ry

     total magnetization       =    49.89 Bohr mag/cell
     absolute magnetization    =    54.03 Bohr mag/cell

     iteration # 28     ecut=    71.00 Ry     beta= 0.10
     Davidson diagonalization with overlap
     ethr =  4.72E-11,  avg # of iterations =  1.0

     negative rho (up, down):  0.000E+00 5.521E-03

     total cpu time spent up to now is      716.6 secs

     total energy              =   -5266.04653990 Ry
     estimated scf accuracy    <       0.00000021 Ry

     total magnetization       =    49.89 Bohr mag/cell
     absolute magnetization    =    54.03 Bohr mag/cell

     iteration # 29     ecut=    71.00 Ry     beta= 0.10
     Davidson diagonalization with overlap
     ethr =  4.72E-11,  avg # of iterations =  1.0

     negative rho (up, down):  0.000E+00 5.522E-03

     total cpu time spent up to now is      735.8 secs

     total energy              =   -5266.04654008 Ry
     estimated scf accuracy    <       0.00000022 Ry

     total magnetization       =    49.89 Bohr mag/cell
     absolute magnetization    =    54.03 Bohr mag/cell

     iteration # 30     ecut=    71.00 Ry     beta= 0.10
     Davidson diagonalization with overlap
     ethr =  4.72E-11,  avg # of iterations =  1.0

     negative rho (up, down):  0.000E+00 5.521E-03

     total cpu time spent up to now is      755.5 secs

     total energy              =   -5266.04654021 Ry
     estimated scf accuracy    <       0.00000025 Ry

     total magnetization       =    49.89 Bohr mag/cell
     absolute magnetization    =    54.03 Bohr mag/cell

     iteration # 31     ecut=    71.00 Ry     beta= 0.10
     Davidson diagonalization with overlap
     ethr =  4.72E-11,  avg # of iterations =  1.0

     negative rho (up, down):  0.000E+00 5.521E-03

     total cpu time spent up to now is      775.1 secs

     total energy              =   -5266.04654031 Ry
     estimated scf accuracy    <       0.00000022 Ry

     total magnetization       =    49.89 Bohr mag/cell
     absolute magnetization    =    54.03 Bohr mag/cell

     iteration # 32     ecut=    71.00 Ry     beta= 0.10
     Davidson diagonalization with overlap
     ethr =  4.72E-11,  avg # of iterations =  1.0

     negative rho (up, down):  0.000E+00 5.522E-03

     total cpu time spent up to now is      794.3 secs

     total energy              =   -5266.04654033 Ry
     estimated scf accuracy    <       0.00000021 Ry

     total magnetization       =    49.89 Bohr mag/cell
     absolute magnetization    =    54.03 Bohr mag/cell

     iteration # 33     ecut=    71.00 Ry     beta= 0.10
     Davidson diagonalization with overlap
     ethr =  4.72E-11,  avg # of iterations =  5.3

     negative rho (up, down):  0.000E+00 5.522E-03

     total cpu time spent up to now is      825.8 secs

     total energy              =   -5266.04654044 Ry
     estimated scf accuracy    <       0.00000014 Ry

     total magnetization       =    49.88 Bohr mag/cell
     absolute magnetization    =    54.03 Bohr mag/cell

     iteration # 34     ecut=    71.00 Ry     beta= 0.10
     Davidson diagonalization with overlap
     ethr =  4.72E-11,  avg # of iterations =  4.2

     negative rho (up, down):  0.000E+00 5.522E-03
 
     Magnetic moment per site:
     atom:    1    charge:   14.9129    magn:    3.2407    constr:    0.0000
     atom:    2    charge:   14.9129    magn:    3.2397    constr:    0.0000
     atom:    3    charge:   14.9129    magn:    3.2394    constr:    0.0000
     atom:    4    charge:   14.9129    magn:    3.2397    constr:    0.0000
     atom:    5    charge:   14.9129    magn:    3.2394    constr:    0.0000
     atom:    6    charge:   14.9129    magn:    3.2397    constr:    0.0000
     atom:    7    charge:   14.9129    magn:    3.2394    constr:    0.0000
     atom:    8    charge:   14.9129    magn:    3.2397    constr:    0.0000
     atom:    9    charge:   14.9129    magn:    3.2394    constr:    0.0000
     atom:   10    charge:   14.9129    magn:    3.2397    constr:    0.0000
     atom:   11    charge:   14.9129    magn:    3.2394    constr:    0.0000
     atom:   12    charge:   14.9129    magn:    3.2397    constr:    0.0000
     atom:   13    charge:   14.9129    magn:    3.2394    constr:    0.0000
     atom:   14    charge:   14.9129    magn:    3.2397    constr:    0.0000
     atom:   15    charge:   14.9129    magn:    3.2408    constr:    0.0000
     atom:   16    charge:   14.9129    magn:    3.2397    constr:    0.0000

     total cpu time spent up to now is      851.7 secs

     End of self-consistent calculation

 ------ SPIN UP ------------


          k = 0.0414 0.0414 0.0414 ( 26481 PWs)   bands (ev):

   -81.9420 -81.9410 -81.9406 -81.9402 -81.9402 -81.9401 -81.9400 -81.9400
   -81.9400 -81.9400 -81.9398 -81.9398 -81.9397 -81.9397 -81.9397 -81.9384
   -47.9885 -47.9885 -47.9884 -47.9881 -47.9880 -47.9880 -47.9841 -47.9841
   -47.9837 -47.9793 -47.9789 -47.9789 -47.9787 -47.9782 -47.9782 -47.9774
   -47.9774 -47.9774 -47.9762 -47.9762 -47.9760 -47.9760 -47.9758 -47.9753
   -47.9753 -47.9752 -47.9752 -47.9751 -47.9751 -47.9750 -47.9749 -47.9749
   -47.9749 -47.9745 -47.9745 -47.9742 -47.9739 -47.9735 -47.9735 -47.9669
   -47.9663 -47.9663 -47.9662 -47.9659 -47.9659 -47.9658 -47.9658 -47.9657
     1.4802   3.5652   3.5652   3.5652   3.5730   3.5731   3.5731   3.5975
     3.5975   3.5975   3.6299   3.6299   3.7884   3.7884   3.7884   4.0498
     4.0498   4.0500   4.0538   4.0540   4.0540   4.0976   4.0976   4.0978
     4.1192   4.1516   4.1516   4.1824   4.1824   4.1826   4.2105   4.2105
     4.2368   4.3366   4.3366   4.3479   4.4681   4.4685   4.4685   4.4891
     4.4891   4.4893   4.5199   4.5199   4.5199   4.5435   4.5435   4.5437
     4.6135   4.6135   4.6324   4.6324   4.6325   4.6452   4.6452   4.6452
     4.6467   4.6467   4.6467   4.6475   4.6475   4.6476   4.6564   4.6564
     4.6571   4.6571   4.6882   4.6882   4.6882   4.7499   4.7502   4.7502
     5.0368   5.0522   5.0522   5.1136   5.1138   5.1138   5.1205   5.1205
     5.1208   5.1305   5.1305   5.1306   5.5579   5.5580   5.5580   7.0772
     7.0775   7.0775

          k = 0.0414 0.0414 0.1242 ( 26466 PWs)   bands (ev):

   -81.9420 -81.9410 -81.9406 -81.9404 -81.9402 -81.9401 -81.9401 -81.9400
   -81.9400 -81.9400 -81.9398 -81.9397 -81.9397 -81.9397 -81.9395 -81.9384
   -47.9882 -47.9882 -47.9879 -47.9878 -47.9876 -47.9875 -47.9840 -47.9838
   -47.9832 -47.9807 -47.9803 -47.9802 -47.9801 -47.9799 -47.9789 -47.9788
   -47.9774 -47.9773 -47.9768 -47.9763 -47.9760 -47.9759 -47.9757 -47.9754
   -47.9752 -47.9752 -47.9751 -47.9748 -47.9748 -47.9745 -47.9744 -47.9741
   -47.9740 -47.9738 -47.9735 -47.9728 -47.9725 -47.9722 -47.9722 -47.9674
   -47.9668 -47.9667 -47.9665 -47.9663 -47.9663 -47.9662 -47.9660 -47.9659
     1.5533   3.2835   3.5704   3.5704   3.5942   3.5942   3.5986   3.6057
     3.6168   3.6168   3.6460   3.6487   3.7966   3.7967   3.8640   4.0123
     4.0490   4.0527   4.0624   4.0625   4.0743   4.0744   4.0772   4.0984
     4.0986   4.1088   4.1301   4.1671   4.1765   4.1766   4.2631   4.2868
     4.2922   4.3322   4.3375   4.3646   4.4122   4.4124   4.4256   4.4469
     4.4604   4.4605   4.5148   4.5149   4.5535   4.5536   4.5816   4.5846
     4.5847   4.6002   4.6084   4.6186   4.6210   4.6212   4.6270   4.6318
     4.6380   4.6381   4.6479   4.6480   4.6481   4.6482   4.6491   4.6557
     4.6580   4.6597   4.6614   4.7446   4.7447   4.8051   4.8052   4.8111
     4.8847   5.0033   5.0271   5.0379   5.0497   5.0503   5.0923   5.0924
     5.1127   5.1128   5.1718   5.1718   5.6227   5.6228   6.1569   6.6389
     6.6390   7.1907

          k = 0.0414 0.0414 0.2070 ( 26461 PWs)   bands (ev):

   -81.9418 -81.9412 -81.9406 -81.9405 -81.9402 -81.9401 -81.9401 -81.9401
   -81.9400 -81.9400 -81.9398 -81.9397 -81.9397 -81.9397 -81.9393 -81.9385
   -47.9875 -47.9874 -47.9872 -47.9870 -47.9867 -47.9866 -47.9837 -47.9832
   -47.9824 -47.9823 -47.9820 -47.9819 -47.9817 -47.9814 -47.9807 -47.9806
   -47.9789 -47.9781 -47.9770 -47.9764 -47.9759 -47.9758 -47.9755 -47.9754
   -47.9753 -47.9753 -47.9748 -47.9747 -47.9745 -47.9744 -47.9740 -47.9724
   -47.9724 -47.9721 -47.9720 -47.9714 -47.9712 -47.9709 -47.9707 -47.9681
   -47.9674 -47.9673 -47.9672 -47.9670 -47.9669 -47.9668 -47.9665 -47.9663
     1.6986   2.9061   3.5867   3.5867   3.6278   3.6278   3.6400   3.6400
     3.6623   3.6681   3.6777   3.6842   3.7939   3.7939   3.8681   3.9294
     4.0299   4.0477   4.0512   4.0584   4.0794   4.0908   4.0909   4.1093
     4.1105   4.1107   4.1238   4.1240   4.1903   4.1905   4.3321   4.3322
     4.3388   4.3390   4.3405   4.3802   4.3823   4.3828   4.3829   4.3898
     4.3911   4.4210   4.5061   4.5063   4.5535   4.5535   4.5584   4.5586
     4.5684   4.5693   4.5693   4.5743   4.6282   4.6283   4.6292   4.6298
     4.6435   4.6436   4.6490   4.6526   4.6532   4.6534   4.6545   4.6600
     4.6633   4.6654   4.6815   4.7632   4.8156   4.8157   4.8689   4.8749
     4.8751   4.9134   4.9328   4.9516   4.9796   5.0341   5.0572   5.0574
     5.0902   5.0903   5.2581   5.2582   5.7497   5.7498   6.2199   6.2200
     6.8375   6.8376

          k = 0.0414 0.0414 0.2898 ( 26454 PWs)   bands (ev):

   -81.9417 -81.9413 -81.9406 -81.9405 -81.9402 -81.9401 -81.9401 -81.9401
   -81.9400 -81.9400 -81.9398 -81.9398 -81.9397 -81.9397 -81.9390 -81.9386
   -47.9866 -47.9864 -47.9862 -47.9861 -47.9855 -47.9853 -47.9838 -47.9837
   -47.9834 -47.9834 -47.9833 -47.9825 -47.9824 -47.9823 -47.9821 -47.9815
   -47.9802 -47.9794 -47.9765 -47.9761 -47.9759 -47.9758 -47.9758 -47.9757
   -47.9756 -47.9755 -47.9746 -47.9746 -47.9746 -47.9745 -47.9724 -47.9710
   -47.9709 -47.9705 -47.9705 -47.9698 -47.9698 -47.9696 -47.9694 -47.9691
   -47.9684 -47.9684 -47.9681 -47.9679 -47.9677 -47.9675 -47.9672 -47.9672
     1.9137   2.5306   3.6103   3.6103   3.6474   3.6474   3.6713   3.6713
     3.7238   3.7318   3.7504   3.7537   3.7655   3.7655   3.8350   3.8520
     3.9527   3.9608   4.0482   4.0513   4.0614   4.0714   4.1338   4.1339
     4.1607   4.1608   4.1893   4.1896   4.2314   4.2315   4.2828   4.2830
     4.3062   4.3063   4.3369   4.3460   4.3610   4.3651   4.4063   4.4065
     4.4234   4.4379   4.4647   4.4649   4.4871   4.4954   4.5139   4.5365
     4.5860   4.5860   4.5888   4.5889   4.6160   4.6161   4.6218   4.6333
     4.6334   4.6454   4.6503   4.6533   4.6584   4.6592   4.6647   4.6667
     4.6668   4.7024   4.7301   4.7601   4.7697   4.8016   4.8853   4.8863
     4.8864   4.9153   4.9218   4.9432   4.9433   5.0061   5.0098   5.0100
     5.0533   5.0535   5.3964   5.3965   5.8690   5.8691   5.9364   5.9365
     6.4855   6.4857

          k = 0.0414 0.0414-0.3725 ( 26478 PWs)   bands (ev):

   -81.9415 -81.9415 -81.9406 -81.9406 -81.9402 -81.9402 -81.9401 -81.9401
   -81.9400 -81.9400 -81.9398 -81.9398 -81.9397 -81.9397 -81.9388 -81.9388
   -47.9853 -47.9853 -47.9852 -47.9851 -47.9849 -47.9849 -47.9848 -47.9848
   -47.9842 -47.9842 -47.9840 -47.9840 -47.9829 -47.9829 -47.9814 -47.9814
   -47.9807 -47.9807 -47.9762 -47.9762 -47.9759 -47.9759 -47.9758 -47.9758
   -47.9757 -47.9757 -47.9746 -47.9746 -47.9746 -47.9746 -47.9706 -47.9706
   -47.9697 -47.9697 -47.9696 -47.9696 -47.9691 -47.9691 -47.9691 -47.9691
   -47.9687 -47.9687 -47.9685 -47.9685 -47.9683 -47.9683 -47.9681 -47.9681
     2.1940   2.1940   3.6340   3.6340   3.6340   3.6341   3.7201   3.7201
     3.7201   3.7201   3.7826   3.7826   3.7849   3.7849   3.8532   3.8532
     3.8536   3.8536   4.0518   4.0518   4.0564   4.0564   4.1884   4.1884
     4.1885   4.1885   4.2190   4.2190   4.2191   4.2191   4.3025   4.3025
     4.3027   4.3027   4.3476   4.3476   4.3543   4.3543   4.3569   4.3569
     4.3571   4.3571   4.4650   4.4650   4.4887   4.4887   4.5841   4.5841
     4.6018   4.6018   4.6019   4.6019   4.6154   4.6154   4.6155   4.6155
     4.6261   4.6261   4.6518   4.6518   4.6632   4.6632   4.6641   4.6641
     4.6680   4.6680   4.6992   4.6992   4.8093   4.8093   4.8397   4.8397
     4.9520   4.9520   4.9521   4.9521   4.9681   4.9681   5.0037   5.0037
     5.0038   5.0038   5.5964   5.5964   5.5964   5.5965   6.1821   6.1821
     6.1822   6.1822

          k = 0.0414 0.1242 0.1242 ( 26426 PWs)   bands (ev):

   -81.9419 -81.9411 -81.9406 -81.9404 -81.9403 -81.9401 -81.9401 -81.9400
   -81.9400 -81.9400 -81.9397 -81.9397 -81.9397 -81.9396 -81.9395 -81.9385
   -47.9881 -47.9878 -47.9875 -47.9875 -47.9872 -47.9868 -47.9842 -47.9835
   -47.9825 -47.9819 -47.9815 -47.9813 -47.9810 -47.9805 -47.9798 -47.9779
   -47.9775 -47.9773 -47.9772 -47.9771 -47.9759 -47.9757 -47.9756 -47.9754
   -47.9753 -47.9752 -47.9752 -47.9750 -47.9749 -47.9743 -47.9743 -47.9734
   -47.9729 -47.9728 -47.9727 -47.9725 -47.9717 -47.9710 -47.9708 -47.9681
   -47.9672 -47.9670 -47.9668 -47.9666 -47.9664 -47.9663 -47.9662 -47.9658
     1.6261   3.3213   3.3214   3.5550   3.6045   3.6045   3.6263   3.6263
     3.6278   3.6392   3.6625   3.6668   3.8106   3.8711   3.8711   4.0187
     4.0188   4.0394   4.0607   4.0608   4.0668   4.0717   4.0718   4.0775
     4.0908   4.1026   4.1400   4.1620   4.1882   4.2479   4.2480   4.2912
     4.3009   4.3186   4.3365   4.3726   4.3729   4.3917   4.3992   4.4295
     4.4854   4.4856   4.5175   4.5182   4.5182   4.5221   4.5631   4.5824
     4.5825   4.5983   4.6056   4.6058   4.6145   4.6219   4.6219   4.6239
     4.6336   4.6418   4.6418   4.6448   4.6494   4.6495   4.6575   4.6596
     4.6644   4.6647   4.6848   4.6849   4.7707   4.8279   4.8637   4.8640
     4.8998   4.8999   4.9568   5.0076   5.0135   5.0137   5.0474   5.0475
     5.0568   5.0574   5.1184   5.2288   5.6950   6.1201   6.2345   6.2346
     6.7698   6.7700

          k = 0.0414 0.1242 0.2070 ( 26454 PWs)   bands (ev):

   -81.9418 -81.9412 -81.9406 -81.9406 -81.9403 -81.9401 -81.9401 -81.9401
   -81.9400 -81.9400 -81.9397 -81.9397 -81.9397 -81.9396 -81.9393 -81.9385
   -47.9877 -47.9872 -47.9869 -47.9868 -47.9865 -47.9857 -47.9841 -47.9833
   -47.9830 -47.9827 -47.9825 -47.9823 -47.9820 -47.9814 -47.9811 -47.9791
   -47.9788 -47.9776 -47.9772 -47.9768 -47.9761 -47.9760 -47.9759 -47.9757
   -47.9755 -47.9755 -47.9752 -47.9748 -47.9744 -47.9740 -47.9738 -47.9731
   -47.9720 -47.9717 -47.9715 -47.9713 -47.9705 -47.9698 -47.9696 -47.9692
   -47.9683 -47.9676 -47.9673 -47.9672 -47.9670 -47.9667 -47.9664 -47.9659
     1.7704   2.9589   3.3852   3.5441   3.6217   3.6594   3.6681   3.6696
     3.6709   3.6871   3.6928   3.7027   3.8169   3.8615   3.8766   3.9412
     4.0010   4.0351   4.0547   4.0584   4.0679   4.0870   4.0871   4.1012
     4.1045   4.1086   4.1459   4.1460   4.1599   4.2475   4.3034   4.3077
     4.3081   4.3372   4.3433   4.3533   4.3550   4.3571   4.3777   4.4268
     4.4363   4.4373   4.4684   4.5037   4.5409   4.5485   4.5575   4.5753
     4.5786   4.5790   4.5857   4.5948   4.5983   4.6105   4.6211   4.6226
     4.6268   4.6330   4.6446   4.6478   4.6487   4.6524   4.6586   4.6623
     4.6684   4.6709   4.6735   4.7542   4.7627   4.8071   4.8669   4.8898
     4.8947   4.9184   4.9298   4.9377   4.9416   4.9610   4.9792   5.0088
     5.0307   5.0534   5.1085   5.3388   5.6844   5.8328   6.3493   6.3842
     6.9545   6.9663

          k = 0.0414 0.1242 0.2898 ( 26472 PWs)   bands (ev):

   -81.9417 -81.9413 -81.9406 -81.9406 -81.9403 -81.9402 -81.9401 -81.9401
   -81.9400 -81.9400 -81.9397 -81.9397 -81.9397 -81.9396 -81.9391 -81.9387
   -47.9869 -47.9863 -47.9860 -47.9859 -47.9854 -47.9847 -47.9844 -47.9840
   -47.9839 -47.9836 -47.9835 -47.9833 -47.9826 -47.9821 -47.9809 -47.9804
   -47.9800 -47.9782 -47.9771 -47.9770 -47.9765 -47.9761 -47.9759 -47.9759
   -47.9758 -47.9754 -47.9748 -47.9746 -47.9738 -47.9737 -47.9733 -47.9723
   -47.9707 -47.9704 -47.9703 -47.9702 -47.9700 -47.9696 -47.9695 -47.9686
   -47.9685 -47.9683 -47.9681 -47.9680 -47.9678 -47.9674 -47.9670 -47.9665
     1.9837   2.5925   3.4529   3.5302   3.6459   3.6807   3.7025   3.7216
     3.7360   3.7515   3.7588   3.7694   3.7942   3.8255   3.8424   3.8703
     3.9450   3.9622   4.0575   4.0662   4.0746   4.0966   4.1218   4.1251
     4.1285   4.1462   4.1478   4.1786   4.2024   4.2255   4.3038   4.3108
     4.3165   4.3219   4.3262   4.3361   4.3387   4.3394   4.3547   4.4083
     4.4373   4.4506   4.4638   4.4687   4.4771   4.5119   4.5474   4.5566
     4.5702   4.5851   4.5913   4.5935   4.5947   4.6000   4.6102   4.6221
     4.6335   4.6387   4.6438   4.6565   4.6570   4.6610   4.6616   4.6646
     4.6688   4.6929   4.6968   4.7451   4.7609   4.8202   4.8212   4.8280
     4.8482   4.8969   4.9137   4.9378   4.9494   4.9667   4.9919   5.0009
     5.0125   5.0363   5.0834   5.3573   5.4995   5.9959   6.0301   6.5947
     6.5985   7.1852

          k = 0.0414 0.1242-0.3725 ( 26450 PWs)   bands (ev):

   -81.9415 -81.9415 -81.9406 -81.9406 -81.9402 -81.9402 -81.9401 -81.9401
   -81.9400 -81.9400 -81.9397 -81.9397 -81.9397 -81.9396 -81.9388 -81.9388
   -47.9859 -47.9859 -47.9852 -47.9852 -47.9849 -47.9849 -47.9848 -47.9848
   -47.9841 -47.9841 -47.9836 -47.9836 -47.9827 -47.9826 -47.9811 -47.9811
   -47.9794 -47.9794 -47.9768 -47.9768 -47.9765 -47.9765 -47.9758 -47.9758
   -47.9755 -47.9755 -47.9746 -47.9746 -47.9735 -47.9735 -47.9720 -47.9720
   -47.9709 -47.9709 -47.9695 -47.9695 -47.9691 -47.9691 -47.9690 -47.9690
   -47.9688 -47.9688 -47.9683 -47.9683 -47.9676 -47.9676 -47.9673 -47.9673
     2.2609   2.2610   3.5029   3.5029   3.6696   3.6696   3.7506   3.7506
     3.7752   3.7752   3.7891   3.7891   3.8082   3.8082   3.8617   3.8617
     3.8617   3.8617   4.0611   4.0611   4.0723   4.0723   4.1660   4.1660
     4.1695   4.1695   4.1782   4.1782   4.2217   4.2217   4.2807   4.2808
     4.3068   4.3068   4.3268   4.3268   4.3419   4.3419   4.3663   4.3663
     4.4027   4.4027   4.5095   4.5095   4.5124   4.5124   4.5172   4.5172
     4.5535   4.5535   4.5940   4.5940   4.6094   4.6094   4.6142   4.6142
     4.6262   4.6262   4.6605   4.6605   4.6616   4.6616   4.6644   4.6644
     4.6817   4.6817   4.7396   4.7396   4.7417   4.7417   4.8225   4.8225
     4.8846   4.8846   4.8927   4.8927   4.9604   4.9604   5.0068   5.0068
     5.0441   5.0441   5.1423   5.1423   5.7152   5.7153   6.2842   6.2843
     6.8696   6.8697

          k = 0.0414 0.2070 0.2070 ( 26453 PWs)   bands (ev):

   -81.9417 -81.9412 -81.9407 -81.9406 -81.9403 -81.9402 -81.9401 -81.9401
   -81.9400 -81.9400 -81.9397 -81.9397 -81.9396 -81.9394 -81.9393 -81.9386
   -47.9875 -47.9866 -47.9864 -47.9862 -47.9860 -47.9846 -47.9844 -47.9842
   -47.9838 -47.9833 -47.9830 -47.9826 -47.9824 -47.9818 -47.9802 -47.9787
   -47.9784 -47.9779 -47.9774 -47.9774 -47.9768 -47.9761 -47.9759 -47.9758
   -47.9757 -47.9752 -47.9751 -47.9751 -47.9749 -47.9746 -47.9734 -47.9719
   -47.9716 -47.9711 -47.9708 -47.9706 -47.9706 -47.9699 -47.9696 -47.9687
   -47.9685 -47.9680 -47.9678 -47.9677 -47.9673 -47.9672 -47.9662 -47.9656
     1.9125   3.0570   3.0572   3.4917   3.6878   3.6878   3.7092   3.7168
     3.7186   3.7186   3.7194   3.7403   3.8438   3.8691   3.8693   3.9756
     3.9863   3.9864   4.0039   4.0813   4.0815   4.0832   4.0951   4.0952
     4.0986   4.1229   4.1352   4.1537   4.1960   4.2692   4.2695   4.2854
     4.3083   4.3085   4.3350   4.3430   4.3448   4.3500   4.3508   4.3592
     4.4731   4.4948   4.4948   4.5023   4.5024   4.5271   4.5273   4.5499
     4.5499   4.5590   4.5799   4.5944   4.5974   4.6057   4.6176   4.6401
     4.6420   4.6421   4.6458   4.6460   4.6469   4.6470   4.6603   4.6683
     4.6713   4.6905   4.6953   4.6954   4.7677   4.7677   4.8030   4.8224
     4.8644   4.8666   4.8668   4.9146   4.9370   4.9371   4.9396   4.9779
     4.9782   5.0653   5.1118   5.2630   5.4799   5.9867   6.5698   6.5699
     7.1274   7.1275

          k = 0.0414 0.2070 0.2898 ( 26455 PWs)   bands (ev):

   -81.9416 -81.9413 -81.9407 -81.9407 -81.9403 -81.9402 -81.9401 -81.9401
   -81.9400 -81.9400 -81.9397 -81.9397 -81.9396 -81.9394 -81.9391 -81.9387
   -47.9871 -47.9859 -47.9857 -47.9855 -47.9853 -47.9851 -47.9847 -47.9844
   -47.9841 -47.9838 -47.9836 -47.9830 -47.9828 -47.9817 -47.9797 -47.9794
   -47.9793 -47.9783 -47.9774 -47.9774 -47.9766 -47.9764 -47.9762 -47.9760
   -47.9758 -47.9755 -47.9752 -47.9748 -47.9747 -47.9736 -47.9729 -47.9721
   -47.9719 -47.9709 -47.9705 -47.9701 -47.9699 -47.9698 -47.9691 -47.9687
   -47.9684 -47.9683 -47.9680 -47.9677 -47.9677 -47.9674 -47.9664 -47.9660
     2.1218   2.7118   3.1838   3.4177   3.7121   3.7361   3.7560   3.7598
     3.7634   3.7765   3.7925   3.7967   3.8406   3.8414   3.8439   3.9195
     3.9402   3.9553   4.0612   4.0774   4.0882   4.0997   4.1022   4.1117
     4.1204   4.1244   4.1247   4.1353   4.2139   4.2486   4.2620   4.2638
     4.2691   4.3279   4.3340   4.3352   4.3377   4.3402   4.3803   4.3880
     4.4054   4.4163   4.4538   4.4731   4.5222   4.5244   4.5250   4.5442
     4.5641   4.5769   4.5838   4.5864   4.5934   4.6105   4.6197   4.6280
     4.6336   4.6348   4.6401   4.6426   4.6505   4.6532   4.6583   4.6704
     4.6806   4.6870   4.7088   4.7166   4.7351   4.7417   4.7656   4.8087
     4.8095   4.8384   4.8400   4.8442   4.8512   4.8759   4.9208   5.0089
     5.0178   5.0313   5.0630   5.0998   5.6696   6.1999   6.2061   6.7915
     6.8508   7.3569

          k = 0.0414 0.2070-0.3725 ( 26426 PWs)   bands (ev):

   -81.9415 -81.9414 -81.9407 -81.9407 -81.9403 -81.9402 -81.9401 -81.9401
   -81.9400 -81.9400 -81.9397 -81.9397 -81.9395 -81.9395 -81.9389 -81.9389
   -47.9862 -47.9862 -47.9851 -47.9851 -47.9848 -47.9848 -47.9847 -47.9846
   -47.9845 -47.9845 -47.9840 -47.9840 -47.9810 -47.9810 -47.9808 -47.9807
   -47.9780 -47.9780 -47.9778 -47.9778 -47.9768 -47.9768 -47.9762 -47.9762
   -47.9754 -47.9754 -47.9747 -47.9747 -47.9737 -47.9737 -47.9724 -47.9724
   -47.9721 -47.9721 -47.9695 -47.9695 -47.9692 -47.9692 -47.9690 -47.9690
   -47.9689 -47.9689 -47.9684 -47.9684 -47.9669 -47.9669 -47.9665 -47.9665
     2.3922   2.3922   3.3125   3.3125   3.7335   3.7335   3.7991   3.7991
     3.8049   3.8049   3.8072   3.8072   3.8539   3.8539   3.8735   3.8735
     3.8780   3.8780   4.0807   4.0807   4.0930   4.0930   4.1327   4.1327
     4.1358   4.1358   4.1533   4.1533   4.1639   4.1639   4.2611   4.2611
     4.3336   4.3336   4.3344   4.3344   4.3408   4.3408   4.3681   4.3681
     4.4296   4.4296   4.4330   4.4330   4.4614   4.4614   4.5402   4.5402
     4.5819   4.5819   4.6009   4.6009   4.6143   4.6143   4.6234   4.6234
     4.6274   4.6274   4.6497   4.6497   4.6549   4.6549   4.6582   4.6582
     4.6639   4.6639   4.7060   4.7060   4.7612   4.7612   4.7638   4.7638
     4.7800   4.7800   4.8236   4.8236   4.8901   4.8901   4.8977   4.8977
     5.0467   5.0467   5.0727   5.0727   5.9089   5.9089   6.4683   6.4683
     7.1792   7.1792

          k = 0.0414 0.2898 0.2898 ( 26435 PWs)   bands (ev):

   -81.9415 -81.9413 -81.9408 -81.9407 -81.9403 -81.9402 -81.9401 -81.9401
   -81.9400 -81.9400 -81.9397 -81.9397 -81.9394 -81.9392 -81.9391 -81.9388
   -47.9868 -47.9856 -47.9854 -47.9853 -47.9852 -47.9850 -47.9849 -47.9847
   -47.9844 -47.9842 -47.9841 -47.9835 -47.9811 -47.9810 -47.9793 -47.9791
   -47.9781 -47.9779 -47.9779 -47.9775 -47.9773 -47.9766 -47.9765 -47.9764
   -47.9756 -47.9753 -47.9750 -47.9750 -47.9749 -47.9747 -47.9737 -47.9722
   -47.9722 -47.9712 -47.9708 -47.9697 -47.9694 -47.9694 -47.9691 -47.9687
   -47.9687 -47.9687 -47.9682 -47.9681 -47.9669 -47.9666 -47.9660 -47.9657
     2.3239   2.8780   2.8782   3.2616   3.7823   3.7882   3.7967   3.7973
     3.7974   3.8316   3.8316   3.8346   3.8349   3.8497   3.8745   3.9303
     3.9336   3.9897   3.9899   4.0829   4.1003   4.1004   4.1055   4.1056
     4.1091   4.1142   4.1196   4.1416   4.1642   4.2121   4.2124   4.2410
     4.3267   4.3320   4.3332   4.3362   4.3476   4.3477   4.3533   4.3565
     4.3908   4.3910   4.4243   4.4244   4.4891   4.4892   4.5208   4.5703
     4.5705   4.5744   4.5873   4.6001   4.6021   4.6223   4.6274   4.6338
     4.6386   4.6386   4.6481   4.6482   4.6526   4.6561   4.6655   4.6656
     4.6657   4.6658   4.6690   4.6740   4.6983   4.7206   4.7207   4.7417
     4.7687   4.7689   4.7841   4.7910   4.8414   4.8415   4.8498   4.8770
     5.0596   5.0599   5.0765   5.1016   5.8877   6.4304   6.4707   6.4708
     7.0539   7.0540

          k = 0.0414 0.2898-0.3725 ( 26432 PWs)   bands (ev):

   -81.9414 -81.9414 -81.9408 -81.9408 -81.9403 -81.9403 -81.9401 -81.9401
   -81.9400 -81.9400 -81.9397 -81.9397 -81.9393 -81.9393 -81.9390 -81.9390
   -47.9863 -47.9863 -47.9854 -47.9854 -47.9848 -47.9848 -47.9846 -47.9846
   -47.9844 -47.9844 -47.9841 -47.9841 -47.9803 -47.9802 -47.9795 -47.9795
   -47.9787 -47.9787 -47.9771 -47.9771 -47.9766 -47.9766 -47.9764 -47.9764
   -47.9757 -47.9757 -47.9753 -47.9753 -47.9750 -47.9750 -47.9734 -47.9734
   -47.9716 -47.9715 -47.9700 -47.9700 -47.9691 -47.9691 -47.9690 -47.9689
   -47.9687 -47.9687 -47.9685 -47.9685 -47.9663 -47.9663 -47.9660 -47.9660
     2.5814   2.5814   3.0716   3.0716   3.8080   3.8080   3.8108   3.8108
     3.8204   3.8204   3.8653   3.8653   3.8802   3.8802   3.8963   3.8963
     3.9174   3.9174   4.0739   4.0739   4.0995   4.0995   4.0998   4.0998
     4.1034   4.1034   4.1122   4.1122   4.1713   4.1713   4.2215   4.2215
     4.3395   4.3395   4.3404   4.3404   4.3545   4.3545   4.3669   4.3669
     4.3805   4.3805   4.4044   4.4044   4.4145   4.4145   4.5703   4.5703
     4.5708   4.5708   4.6121   4.6121   4.6205   4.6205   4.6274   4.6274
     4.6347   4.6347   4.6402   4.6402   4.6453   4.6453   4.6485   4.6485
     4.6515   4.6515   4.6614   4.6614   4.7235   4.7235   4.7258   4.7258
     4.7729   4.7730   4.7805   4.7805   4.7960   4.7960   4.8409   4.8409
     5.0752   5.0752   5.0881   5.0881   6.1525   6.1525   6.7152   6.7152
     6.7814   6.7814

          k = 0.0414-0.3725-0.3725 ( 26384 PWs)   bands (ev):

   -81.9414 -81.9413 -81.9408 -81.9408 -81.9403 -81.9403 -81.9401 -81.9401
   -81.9400 -81.9400 -81.9397 -81.9397 -81.9392 -81.9392 -81.9390 -81.9390
   -47.9861 -47.9861 -47.9857 -47.9857 -47.9848 -47.9847 -47.9846 -47.9846
   -47.9843 -47.9843 -47.9842 -47.9842 -47.9796 -47.9796 -47.9793 -47.9793
   -47.9778 -47.9778 -47.9775 -47.9775 -47.9770 -47.9770 -47.9768 -47.9768
   -47.9754 -47.9754 -47.9750 -47.9750 -47.9748 -47.9748 -47.9748 -47.9748
   -47.9709 -47.9708 -47.9705 -47.9705 -47.9691 -47.9691 -47.9690 -47.9690
   -47.9686 -47.9686 -47.9685 -47.9685 -47.9660 -47.9660 -47.9657 -47.9657
     2.8156   2.8157   2.8158   2.8158   3.8196   3.8196   3.8198   3.8198
     3.8633   3.8633   3.8634   3.8634   3.9000   3.9000   3.9001   3.9001
     3.9930   3.9930   3.9932   3.9932   4.0948   4.0948   4.0949   4.0949
     4.1052   4.1052   4.1053   4.1053   4.1909   4.1909   4.1912   4.1912
     4.3391   4.3391   4.3393   4.3393   4.3454   4.3454   4.3456   4.3456
     4.3686   4.3686   4.3687   4.3687   4.4842   4.4842   4.4843   4.4843
     4.5932   4.5932   4.5934   4.5934   4.6277   4.6277   4.6278   4.6278
     4.6326   4.6326   4.6326   4.6326   4.6540   4.6540   4.6541   4.6541
     4.6714   4.6714   4.6716   4.6716   4.7221   4.7221   4.7222   4.7222
     4.7425   4.7425   4.7426   4.7426   4.8023   4.8023   4.8024   4.8024
     5.0891   5.0891   5.0894   5.0894   6.4418   6.4418   6.4419   6.4419
     7.0162   7.0162

          k = 0.1242 0.1242 0.1242 ( 26478 PWs)   bands (ev):

   -81.9419 -81.9411 -81.9406 -81.9404 -81.9404 -81.9401 -81.9401 -81.9401
   -81.9400 -81.9400 -81.9397 -81.9397 -81.9396 -81.9395 -81.9395 -81.9385
   -47.9877 -47.9877 -47.9874 -47.9868 -47.9865 -47.9865 -47.9840 -47.9840
   -47.9827 -47.9821 -47.9821 -47.9821 -47.9815 -47.9798 -47.9798 -47.9783
   -47.9783 -47.9782 -47.9776 -47.9776 -47.9774 -47.9760 -47.9758 -47.9758
   -47.9747 -47.9745 -47.9745 -47.9745 -47.9745 -47.9744 -47.9738 -47.9738
   -47.9729 -47.9729 -47.9727 -47.9718 -47.9706 -47.9702 -47.9702 -47.9690
   -47.9675 -47.9674 -47.9674 -47.9667 -47.9667 -47.9663 -47.9663 -47.9661
     1.6983   3.3601   3.3603   3.3603   3.5917   3.5917   3.5917   3.6583
     3.6583   3.6583   3.6817   3.6817   3.8864   3.8864   3.8864   4.0069
     4.0158   4.0158   4.0160   4.0650   4.0650   4.0651   4.0972   4.0974
     4.0974   4.1047   4.1047   4.2246   4.2246   4.2248   4.2487   4.2487
     4.2925   4.3179   4.3179   4.3662   4.3666   4.3666   4.4223   4.4668
     4.4668   4.4668   4.4884   4.4884   4.4886   4.5176   4.5176   4.5178
     4.6043   4.6043   4.6220   4.6220   4.6222   4.6308   4.6308   4.6308
     4.6360   4.6360   4.6360   4.6454   4.6454   4.6455   4.6564   4.6564
     4.6737   4.6737   4.7170   4.7170   4.7171   4.8835   4.8838   4.8838
     4.9006   4.9362   4.9362   4.9363   4.9615   4.9618   4.9618   5.0314
     5.0314   5.0624   5.0624   5.0626   6.2604   6.2606   6.2606   6.3147
     6.3149   6.3149

          k = 0.1242 0.1242 0.2070 ( 26475 PWs)   bands (ev):

   -81.9418 -81.9412 -81.9406 -81.9406 -81.9404 -81.9401 -81.9401 -81.9401
   -81.9400 -81.9400 -81.9397 -81.9397 -81.9396 -81.9396 -81.9393 -81.9386
   -47.9875 -47.9873 -47.9869 -47.9863 -47.9857 -47.9855 -47.9840 -47.9838
   -47.9834 -47.9834 -47.9831 -47.9828 -47.9816 -47.9804 -47.9797 -47.9796
   -47.9790 -47.9790 -47.9776 -47.9774 -47.9767 -47.9765 -47.9764 -47.9761
   -47.9757 -47.9747 -47.9744 -47.9741 -47.9740 -47.9733 -47.9732 -47.9730
   -47.9729 -47.9720 -47.9715 -47.9708 -47.9701 -47.9696 -47.9693 -47.9692
   -47.9685 -47.9684 -47.9678 -47.9673 -47.9669 -47.9667 -47.9664 -47.9663
     1.8417   3.0119   3.4262   3.4263   3.5836   3.5836   3.6616   3.7002
     3.7002   3.7111   3.7156   3.7178   3.8874   3.8875   3.8967   3.9416
     3.9779   4.0387   4.0389   4.0625   4.0734   4.0814   4.0841   4.0842
     4.0896   4.1353   4.1355   4.1851   4.2087   4.2088   4.2716   4.3019
     4.3165   4.3183   4.3240   4.3287   4.3290   4.3328   4.4035   4.4035
     4.4324   4.4325   4.4636   4.4803   4.5071   4.5203   4.5292   4.5293
     4.5841   4.5949   4.5951   4.6160   4.6210   4.6210   4.6239   4.6240
     4.6402   4.6431   4.6466   4.6480   4.6481   4.6540   4.6577   4.6702
     4.6793   4.6909   4.6913   4.7477   4.7477   4.7773   4.8208   4.8298
     4.8988   4.8990   4.9212   4.9214   4.9347   4.9706   4.9839   5.0139
     5.0139   5.0400   5.0597   5.0598   5.8386   5.8387   6.4686   6.4687
     6.4927   7.0504

          k = 0.1242 0.1242 0.2898 ( 26475 PWs)   bands (ev):

   -81.9416 -81.9413 -81.9406 -81.9406 -81.9403 -81.9402 -81.9401 -81.9401
   -81.9400 -81.9400 -81.9397 -81.9397 -81.9396 -81.9396 -81.9391 -81.9387
   -47.9866 -47.9864 -47.9859 -47.9857 -47.9849 -47.9845 -47.9844 -47.9843
   -47.9840 -47.9839 -47.9837 -47.9833 -47.9825 -47.9812 -47.9811 -47.9805
   -47.9796 -47.9783 -47.9775 -47.9773 -47.9772 -47.9769 -47.9766 -47.9766
   -47.9749 -47.9748 -47.9746 -47.9739 -47.9738 -47.9732 -47.9731 -47.9719
   -47.9719 -47.9714 -47.9705 -47.9700 -47.9699 -47.9694 -47.9694 -47.9686
   -47.9683 -47.9683 -47.9681 -47.9681 -47.9678 -47.9671 -47.9668 -47.9667
     2.0533   2.6542   3.4961   3.4962   3.5725   3.5725   3.7503   3.7503
     3.7536   3.7579   3.7660   3.7917   3.8541   3.8542   3.8677   3.8711
     3.9382   3.9826   4.0607   4.0676   4.0845   4.1047   4.1049   4.1163
     4.1164   4.1243   4.1789   4.1790   4.1950   4.1951   4.2932   4.2988
     4.3075   4.3144   4.3221   4.3224   4.3397   4.3398   4.3398   4.3399
     4.3886   4.4104   4.4859   4.4949   4.5054   4.5056   4.5120   4.5561
     4.5783   4.5784   4.5892   4.6149   4.6149   4.6178   4.6179   4.6223
     4.6329   4.6381   4.6409   4.6409   4.6481   4.6519   4.6572   4.6577
     4.6780   4.6794   4.6955   4.7238   4.7501   4.7670   4.7715   4.7715
     4.8407   4.8408   4.8694   4.9198   4.9664   4.9665   4.9780   5.0328
     5.0410   5.0411   5.1310   5.1310   5.5192   5.5193   6.6875   6.6876
     6.7819   7.2861

          k = 0.1242 0.1242-0.3725 ( 26432 PWs)   bands (ev):

   -81.9415 -81.9414 -81.9407 -81.9406 -81.9403 -81.9403 -81.9401 -81.9401
   -81.9400 -81.9400 -81.9397 -81.9396 -81.9396 -81.9396 -81.9389 -81.9389
   -47.9858 -47.9858 -47.9855 -47.9855 -47.9848 -47.9848 -47.9848 -47.9848
   -47.9840 -47.9840 -47.9829 -47.9829 -47.9828 -47.9828 -47.9817 -47.9817
   -47.9784 -47.9784 -47.9776 -47.9776 -47.9770 -47.9770 -47.9769 -47.9769
   -47.9746 -47.9746 -47.9735 -47.9735 -47.9734 -47.9734 -47.9730 -47.9730
   -47.9706 -47.9706 -47.9705 -47.9705 -47.9691 -47.9691 -47.9691 -47.9691
   -47.9687 -47.9687 -47.9677 -47.9677 -47.9674 -47.9674 -47.9672 -47.9672
     2.3277   2.3277   3.5468   3.5468   3.5468   3.5468   3.8039   3.8040
     3.8040   3.8040   3.8076   3.8076   3.8194   3.8194   3.8699   3.8699
     3.8729   3.8729   4.0617   4.0617   4.0912   4.0912   4.1576   4.1576
     4.1577   4.1577   4.1804   4.1804   4.1805   4.1806   4.2943   4.2943
     4.2944   4.2944   4.2944   4.2945   4.3102   4.3102   4.3951   4.3951
     4.3953   4.3953   4.4472   4.4472   4.5240   4.5240   4.5281   4.5281
     4.5663   4.5663   4.6137   4.6137   4.6138   4.6138   4.6180   4.6180
     4.6180   4.6180   4.6500   4.6500   4.6558   4.6558   4.6563   4.6563
     4.6681   4.6681   4.6699   4.6699   4.7825   4.7825   4.7990   4.7990
     4.7992   4.7992   4.8451   4.8451   5.0086   5.0086   5.0087   5.0087
     5.0115   5.0115   5.2924   5.2924   5.2924   5.2924   6.9637   6.9637
     6.9638   6.9638

          k = 0.1242 0.2070 0.2070 ( 26476 PWs)   bands (ev):

   -81.9417 -81.9412 -81.9407 -81.9406 -81.9405 -81.9402 -81.9401 -81.9401
   -81.9400 -81.9400 -81.9397 -81.9396 -81.9396 -81.9394 -81.9393 -81.9386
   -47.9873 -47.9869 -47.9866 -47.9855 -47.9853 -47.9844 -47.9844 -47.9843
   -47.9839 -47.9838 -47.9835 -47.9830 -47.9821 -47.9806 -47.9796 -47.9795
   -47.9790 -47.9788 -47.9782 -47.9781 -47.9776 -47.9772 -47.9767 -47.9766
   -47.9745 -47.9744 -47.9743 -47.9741 -47.9737 -47.9734 -47.9731 -47.9723
   -47.9718 -47.9715 -47.9714 -47.9713 -47.9702 -47.9695 -47.9690 -47.9685
   -47.9685 -47.9684 -47.9683 -47.9677 -47.9671 -47.9670 -47.9665 -47.9662
     1.9830   3.1105   3.1106   3.4968   3.5366   3.6588   3.6588   3.7397
     3.7449   3.7530   3.7549   3.7549   3.8979   3.8980   3.9195   3.9616
     3.9780   3.9780   4.0262   4.0472   4.0797   4.0798   4.0956   4.1007
     4.1192   4.1193   4.1781   4.1790   4.1913   4.2412   4.2414   4.2822
     4.2947   4.2994   4.3047   4.3049   4.3071   4.3216   4.3464   4.3602
     4.4229   4.4230   4.4449   4.4450   4.5138   4.5208   4.5209   4.5400
     4.5863   4.5876   4.5877   4.6049   4.6111   4.6150   4.6392   4.6393
     4.6406   4.6447   4.6479   4.6480   4.6541   4.6552   4.6838   4.6839
     4.6901   4.6985   4.6986   4.7113   4.7423   4.7508   4.7639   4.7640
     4.7892   4.8303   4.8304   4.9182   4.9587   4.9677   4.9680   4.9790
     4.9791   5.0395   5.0696   5.1359   5.4525   6.0718   6.0719   6.6293
     7.2125   7.2126

          k = 0.1242 0.2070 0.2898 ( 26446 PWs)   bands (ev):

   -81.9415 -81.9413 -81.9407 -81.9407 -81.9404 -81.9403 -81.9401 -81.9401
   -81.9400 -81.9400 -81.9397 -81.9396 -81.9396 -81.9394 -81.9391 -81.9388
   -47.9868 -47.9861 -47.9857 -47.9852 -47.9850 -47.9846 -47.9845 -47.9843
   -47.9841 -47.9840 -47.9832 -47.9829 -47.9824 -47.9818 -47.9803 -47.9797
   -47.9790 -47.9786 -47.9785 -47.9778 -47.9777 -47.9774 -47.9771 -47.9764
   -47.9758 -47.9742 -47.9740 -47.9737 -47.9733 -47.9730 -47.9729 -47.9727
   -47.9719 -47.9712 -47.9707 -47.9703 -47.9701 -47.9696 -47.9693 -47.9688
   -47.9684 -47.9682 -47.9678 -47.9676 -47.9674 -47.9673 -47.9666 -47.9663
     2.1907   2.7733   3.2376   3.4676   3.5733   3.6524   3.7616   3.7771
     3.7912   3.8031   3.8035   3.8255   3.8677   3.8726   3.9041   3.9201
     3.9406   3.9855   4.0524   4.0669   4.0760   4.0851   4.1058   4.1079
     4.1206   4.1440   4.1450   4.1627   4.2011   4.2182   4.2531   4.2635
     4.2646   4.2950   4.3019   4.3155   4.3185   4.3195   4.3332   4.3374
     4.3393   4.3706   4.4044   4.4777   4.5062   4.5231   4.5281   4.5361
     4.5680   4.5685   4.5727   4.5737   4.6190   4.6235   4.6353   4.6394
     4.6396   4.6472   4.6489   4.6507   4.6572   4.6595   4.6599   4.6639
     4.6663   4.6783   4.6898   4.7009   4.7070   4.7214   4.7387   4.7424
     4.7484   4.7539   4.8888   4.8995   4.9212   4.9302   4.9709   5.0043
     5.0070   5.0403   5.0627   5.1997   5.2923   5.7414   6.3503   6.8558
     7.0297   7.4436

          k = 0.1242 0.2070-0.3725 ( 26448 PWs)   bands (ev):

   -81.9414 -81.9414 -81.9407 -81.9407 -81.9404 -81.9403 -81.9401 -81.9401
   -81.9400 -81.9400 -81.9396 -81.9396 -81.9395 -81.9395 -81.9389 -81.9389
   -47.9860 -47.9860 -47.9853 -47.9853 -47.9846 -47.9846 -47.9845 -47.9845
   -47.9844 -47.9844 -47.9831 -47.9831 -47.9815 -47.9815 -47.9812 -47.9812
   -47.9784 -47.9784 -47.9782 -47.9782 -47.9776 -47.9776 -47.9771 -47.9771
   -47.9747 -47.9747 -47.9740 -47.9740 -47.9734 -47.9733 -47.9723 -47.9723
   -47.9719 -47.9719 -47.9701 -47.9701 -47.9693 -47.9693 -47.9691 -47.9691
   -47.9689 -47.9689 -47.9678 -47.9678 -47.9670 -47.9670 -47.9668 -47.9668
     2.4584   2.4584   3.3656   3.3656   3.6279   3.6279   3.8219   3.8219
     3.8352   3.8352   3.8560   3.8560   3.8615   3.8615   3.8784   3.8784
     3.8952   3.8952   4.0758   4.0758   4.1090   4.1090   4.1301   4.1301
     4.1399   4.1399   4.1433   4.1433   4.1571   4.1571   4.2556   4.2556
     4.2972   4.2972   4.2988   4.2988   4.3021   4.3021   4.3679   4.3679
     4.3740   4.3740   4.3969   4.3969   4.4320   4.4320   4.5473   4.5473
     4.5825   4.5825   4.6083   4.6083   4.6120   4.6120   4.6314   4.6314
     4.6347   4.6347   4.6439   4.6439   4.6478   4.6478   4.6494   4.6494
     4.6603   4.6603   4.6783   4.6783   4.6957   4.6957   4.7377   4.7377
     4.8082   4.8082   4.8281   4.8281   4.9518   4.9518   5.0289   5.0289
     5.0385   5.0385   5.0407   5.0407   5.4885   5.4885   6.6681   6.6681
     7.1405   7.1405

          k = 0.1242 0.2898 0.2898 ( 26437 PWs)   bands (ev):

   -81.9415 -81.9413 -81.9408 -81.9407 -81.9404 -81.9403 -81.9402 -81.9402
   -81.9400 -81.9400 -81.9396 -81.9396 -81.9394 -81.9393 -81.9391 -81.9389
   -47.9865 -47.9855 -47.9854 -47.9853 -47.9851 -47.9848 -47.9847 -47.9842
   -47.9841 -47.9840 -47.9838 -47.9827 -47.9818 -47.9813 -47.9799 -47.9798
   -47.9792 -47.9785 -47.9783 -47.9780 -47.9780 -47.9779 -47.9778 -47.9770
   -47.9745 -47.9745 -47.9743 -47.9738 -47.9737 -47.9736 -47.9734 -47.9721
   -47.9717 -47.9709 -47.9706 -47.9704 -47.9697 -47.9693 -47.9692 -47.9692
   -47.9688 -47.9683 -47.9680 -47.9679 -47.9671 -47.9668 -47.9664 -47.9661
     2.3914   2.9390   2.9392   3.3179   3.6622   3.7586   3.7586   3.8048
     3.8243   3.8590   3.8613   3.8615   3.8689   3.8689   3.9421   3.9436
     3.9531   3.9908   3.9910   4.0475   4.1000   4.1002   4.1026   4.1153
     4.1153   4.1324   4.1374   4.1407   4.1647   4.2056   4.2059   4.2362
     4.2830   4.2953   4.2973   4.2996   4.3007   4.3067   4.3077   4.3078
     4.3303   4.3305   4.4122   4.4123   4.4239   4.4239   4.4582   4.5648
     4.5650   4.5792   4.5793   4.5862   4.6191   4.6257   4.6318   4.6318
     4.6343   4.6390   4.6393   4.6436   4.6577   4.6578   4.6647   4.6661
     4.6662   4.6693   4.6933   4.6935   4.6962   4.7165   4.7166   4.7198
     4.7769   4.8008   4.8008   4.8472   4.8932   4.8933   4.9027   5.0165
     5.0345   5.0349   5.0498   5.0680   5.4853   5.9992   5.9992   6.6335
     7.0914   7.7342

          k = 0.1242 0.2898-0.3725 ( 26428 PWs)   bands (ev):

   -81.9414 -81.9413 -81.9408 -81.9408 -81.9404 -81.9404 -81.9402 -81.9402
   -81.9400 -81.9400 -81.9396 -81.9396 -81.9393 -81.9393 -81.9390 -81.9390
   -47.9860 -47.9860 -47.9852 -47.9852 -47.9848 -47.9848 -47.9846 -47.9846
   -47.9841 -47.9841 -47.9834 -47.9834 -47.9809 -47.9809 -47.9798 -47.9798
   -47.9793 -47.9793 -47.9787 -47.9787 -47.9781 -47.9781 -47.9763 -47.9763
   -47.9757 -47.9757 -47.9738 -47.9738 -47.9734 -47.9734 -47.9729 -47.9729
   -47.9714 -47.9713 -47.9698 -47.9698 -47.9695 -47.9695 -47.9693 -47.9693
   -47.9688 -47.9687 -47.9681 -47.9681 -47.9666 -47.9666 -47.9663 -47.9663
     2.6466   2.6466   3.1313   3.1313   3.7300   3.7300   3.8350   3.8350
     3.8476   3.8476   3.8706   3.8706   3.9160   3.9160   3.9241   3.9241
     3.9242   3.9242   4.0751   4.0751   4.0878   4.0878   4.0989   4.0989
     4.1080   4.1080   4.1243   4.1243   4.1663   4.1663   4.2165   4.2165
     4.2955   4.2955   4.2989   4.2989   4.3151   4.3151   4.3222   4.3222
     4.3347   4.3347   4.3482   4.3482   4.3598   4.3598   4.4959   4.4960
     4.5729   4.5729   4.5981   4.5981   4.6095   4.6095   4.6323   4.6323
     4.6360   4.6360   4.6428   4.6428   4.6724   4.6724   4.6740   4.6740
     4.6748   4.6748   4.6874   4.6874   4.7062   4.7062   4.7135   4.7135
     4.7821   4.7821   4.8250   4.8250   4.8932   4.8932   4.8969   4.8969
     5.0489   5.0489   5.0578   5.0578   5.7164   5.7164   6.2938   6.2938
     7.3863   7.3864

          k = 0.1242-0.3725-0.3725 ( 26416 PWs)   bands (ev):

   -81.9413 -81.9413 -81.9408 -81.9408 -81.9404 -81.9404 -81.9402 -81.9402
   -81.9399 -81.9399 -81.9396 -81.9396 -81.9392 -81.9392 -81.9391 -81.9391
   -47.9858 -47.9858 -47.9854 -47.9854 -47.9847 -47.9847 -47.9845 -47.9845
   -47.9838 -47.9838 -47.9837 -47.9837 -47.9803 -47.9802 -47.9800 -47.9800
   -47.9789 -47.9789 -47.9785 -47.9784 -47.9780 -47.9780 -47.9780 -47.9780
   -47.9745 -47.9745 -47.9743 -47.9743 -47.9736 -47.9736 -47.9734 -47.9734
   -47.9706 -47.9705 -47.9702 -47.9702 -47.9695 -47.9695 -47.9694 -47.9694
   -47.9686 -47.9685 -47.9685 -47.9685 -47.9664 -47.9664 -47.9661 -47.9661
     2.8789   2.8790   2.8791   2.8791   3.8221   3.8221   3.8221   3.8221
     3.8453   3.8453   3.8456   3.8456   3.9441   3.9441   3.9441   3.9441
     3.9980   3.9981   3.9982   3.9982   4.0831   4.0831   4.0831   4.0831
     4.1151   4.1151   4.1152   4.1152   4.1859   4.1859   4.1862   4.1862
     4.2934   4.2934   4.2936   4.2936   4.2941   4.2941   4.2943   4.2943
     4.3188   4.3188   4.3189   4.3189   4.4155   4.4155   4.4156   4.4156
     4.5911   4.5911   4.5913   4.5913   4.6215   4.6215   4.6215   4.6215
     4.6268   4.6268   4.6270   4.6270   4.6882   4.6882   4.6884   4.6884
     4.6886   4.6886   4.6887   4.6887   4.7261   4.7262   4.7262   4.7262
     4.7977   4.7977   4.7978   4.7978   4.8492   4.8492   4.8493   4.8493
     5.0600   5.0600   5.0603   5.0603   5.9810   5.9810   5.9811   5.9811
     7.6919   7.6921

          k = 0.2070 0.2070 0.2070 ( 26442 PWs)   bands (ev):

   -81.9416 -81.9412 -81.9407 -81.9406 -81.9406 -81.9402 -81.9402 -81.9401
   -81.9400 -81.9399 -81.9396 -81.9396 -81.9395 -81.9393 -81.9393 -81.9387
   -47.9867 -47.9867 -47.9863 -47.9847 -47.9844 -47.9843 -47.9843 -47.9842
   -47.9842 -47.9837 -47.9837 -47.9837 -47.9813 -47.9813 -47.9794 -47.9794
   -47.9792 -47.9790 -47.9790 -47.9790 -47.9785 -47.9777 -47.9774 -47.9774
   -47.9736 -47.9734 -47.9734 -47.9733 -47.9733 -47.9733 -47.9724 -47.9720
   -47.9720 -47.9717 -47.9717 -47.9716 -47.9698 -47.9693 -47.9692 -47.9692
   -47.9684 -47.9680 -47.9680 -47.9672 -47.9672 -47.9668 -47.9668 -47.9668
     2.1223   3.2100   3.2102   3.2102   3.6225   3.6226   3.6226   3.7777
     3.7777   3.7972   3.7972   3.7972   3.9452   3.9452   3.9452   3.9580
     3.9675   3.9675   3.9677   4.0874   4.0874   4.0905   4.0905   4.0907
     4.1504   4.1506   4.1506   4.2128   4.2128   4.2129   4.2180   4.2319
     4.2319   4.2762   4.2762   4.2817   4.2821   4.2821   4.3382   4.3382
     4.3383   4.3773   4.3773   4.3774   4.5366   4.5366   4.5368   4.5719
     4.5779   4.5779   4.5779   4.5988   4.5988   4.6418   4.6418   4.6420
     4.6434   4.6435   4.6435   4.6502   4.6502   4.6607   4.6609   4.6609
     4.6656   4.6943   4.6943   4.6944   4.7074   4.7074   4.7076   4.7213
     4.7213   4.9322   4.9322   4.9322   4.9609   4.9613   4.9613   4.9916
     4.9916   4.9980   4.9980   4.9982   5.6870   5.6871   5.6871   6.9823
     7.3765   7.3766

          k = 0.2070 0.2070 0.2898 ( 26430 PWs)   bands (ev):

   -81.9415 -81.9413 -81.9407 -81.9407 -81.9405 -81.9403 -81.9402 -81.9402
   -81.9399 -81.9399 -81.9396 -81.9395 -81.9395 -81.9394 -81.9392 -81.9389
   -47.9863 -47.9861 -47.9856 -47.9851 -47.9847 -47.9845 -47.9843 -47.9841
   -47.9840 -47.9832 -47.9831 -47.9829 -47.9828 -47.9807 -47.9806 -47.9803
   -47.9803 -47.9793 -47.9791 -47.9786 -47.9782 -47.9781 -47.9776 -47.9772
   -47.9746 -47.9743 -47.9732 -47.9727 -47.9726 -47.9726 -47.9723 -47.9722
   -47.9718 -47.9717 -47.9705 -47.9702 -47.9702 -47.9702 -47.9694 -47.9692
   -47.9680 -47.9679 -47.9677 -47.9676 -47.9674 -47.9672 -47.9669 -47.9668
     2.3264   2.8919   3.3385   3.3386   3.5633   3.5633   3.7414   3.8134
     3.8281   3.8429   3.8429   3.8637   3.9107   3.9267   3.9268   3.9272
     3.9539   4.0181   4.0329   4.0331   4.0815   4.0854   4.1135   4.1137
     4.1253   4.1619   4.1738   4.1739   4.1826   4.1827   4.2373   4.2395
     4.2533   4.2533   4.2595   4.2596   4.2670   4.2703   4.2770   4.2773
     4.3145   4.3145   4.3240   4.4235   4.4469   4.4471   4.4603   4.5462
     4.5676   4.5677   4.5777   4.5818   4.6159   4.6280   4.6280   4.6386
     4.6391   4.6435   4.6467   4.6476   4.6568   4.6569   4.6574   4.6575
     4.6613   4.6741   4.6853   4.6853   4.7021   4.7022   4.7172   4.7688
     4.7789   4.8065   4.9144   4.9273   4.9695   4.9697   4.9915   4.9988
     4.9989   5.0078   5.0582   5.0582   5.4101   5.4102   5.9507   6.5873
     7.6104   7.6106

          k = 0.2070 0.2070-0.3725 ( 26436 PWs)   bands (ev):

   -81.9414 -81.9414 -81.9407 -81.9407 -81.9404 -81.9404 -81.9402 -81.9402
   -81.9399 -81.9399 -81.9395 -81.9395 -81.9394 -81.9394 -81.9390 -81.9390
   -47.9857 -47.9857 -47.9854 -47.9854 -47.9845 -47.9845 -47.9843 -47.9843
   -47.9841 -47.9841 -47.9821 -47.9821 -47.9818 -47.9818 -47.9817 -47.9817
   -47.9795 -47.9795 -47.9789 -47.9789 -47.9787 -47.9787 -47.9760 -47.9760
   -47.9759 -47.9758 -47.9730 -47.9730 -47.9722 -47.9721 -47.9721 -47.9720
   -47.9712 -47.9712 -47.9712 -47.9712 -47.9693 -47.9693 -47.9692 -47.9692
   -47.9689 -47.9689 -47.9674 -47.9674 -47.9671 -47.9671 -47.9670 -47.9670
     2.5879   2.5879   3.4663   3.4663   3.4664   3.4664   3.8584   3.8584
     3.8802   3.8802   3.8823   3.8823   3.8879   3.8879   3.8880   3.8880
     3.9249   3.9249   4.0816   4.0816   4.1191   4.1192   4.1193   4.1193
     4.1217   4.1217   4.1463   4.1463   4.1464   4.1464   4.2443   4.2443
     4.2545   4.2545   4.2638   4.2638   4.2638   4.2638   4.3016   4.3016
     4.3304   4.3304   4.3307   4.3307   4.3376   4.3376   4.4939   4.4939
     4.5629   4.5629   4.6004   4.6004   4.6005   4.6005   4.6365   4.6365
     4.6422   4.6423   4.6453   4.6453   4.6724   4.6724   4.6724   4.6724
     4.6798   4.6798   4.6799   4.6799   4.7003   4.7003   4.7147   4.7147
     4.8344   4.8344   4.8541   4.8541   4.9866   4.9866   4.9867   4.9867
     5.0075   5.0075   5.2113   5.2113   5.2113   5.2113   6.2474   6.2474
     7.9039   7.9040

          k = 0.2070 0.2898 0.2898 ( 26421 PWs)   bands (ev):

   -81.9414 -81.9413 -81.9407 -81.9407 -81.9405 -81.9404 -81.9403 -81.9402
   -81.9399 -81.9399 -81.9395 -81.9395 -81.9394 -81.9393 -81.9392 -81.9389
   -47.9859 -47.9854 -47.9852 -47.9852 -47.9847 -47.9847 -47.9842 -47.9837
   -47.9834 -47.9832 -47.9832 -47.9826 -47.9817 -47.9813 -47.9809 -47.9806
   -47.9804 -47.9797 -47.9795 -47.9791 -47.9791 -47.9789 -47.9789 -47.9758
   -47.9758 -47.9734 -47.9733 -47.9727 -47.9724 -47.9720 -47.9718 -47.9717
   -47.9715 -47.9712 -47.9706 -47.9704 -47.9698 -47.9698 -47.9698 -47.9694
   -47.9684 -47.9679 -47.9678 -47.9678 -47.9673 -47.9671 -47.9670 -47.9668
     2.5241   3.0567   3.0569   3.4265   3.4704   3.6954   3.6954   3.8471
     3.8763   3.8772   3.9089   3.9090   3.9118   3.9120   3.9712   3.9808
     3.9914   3.9921   3.9922   4.0097   4.1012   4.1061   4.1062   4.1299
     4.1308   4.1308   4.1449   4.1635   4.1651   4.1758   4.1957   4.1960
     4.2203   4.2274   4.2351   4.2412   4.2503   4.2504   4.2519   4.2521
     4.2523   4.2665   4.3378   4.3380   4.3436   4.3436   4.3545   4.4882
     4.5718   4.5719   4.5833   4.5900   4.6131   4.6159   4.6250   4.6250
     4.6349   4.6393   4.6474   4.6504   4.6506   4.6516   4.6517   4.6739
     4.6890   4.6958   4.6959   4.7165   4.7247   4.7369   4.7663   4.7663
     4.7944   4.8989   4.9114   4.9114   4.9231   4.9232   4.9382   4.9937
     4.9940   5.0005   5.0085   5.1898   5.2179   5.6436   5.6436   6.2182
     7.8483   8.4464

          k = 0.2070 0.2898-0.3725 ( 26446 PWs)   bands (ev):

   -81.9414 -81.9413 -81.9408 -81.9408 -81.9405 -81.9405 -81.9403 -81.9403
   -81.9399 -81.9399 -81.9395 -81.9395 -81.9393 -81.9393 -81.9391 -81.9391
   -47.9855 -47.9855 -47.9849 -47.9849 -47.9846 -47.9846 -47.9842 -47.9842
   -47.9836 -47.9836 -47.9824 -47.9824 -47.9818 -47.9817 -47.9805 -47.9805
   -47.9802 -47.9802 -47.9799 -47.9799 -47.9796 -47.9796 -47.9774 -47.9774
   -47.9746 -47.9746 -47.9724 -47.9724 -47.9721 -47.9721 -47.9719 -47.9719
   -47.9712 -47.9712 -47.9706 -47.9706 -47.9696 -47.9696 -47.9693 -47.9693
   -47.9689 -47.9688 -47.9680 -47.9680 -47.9671 -47.9671 -47.9669 -47.9669
     2.7738   2.7739   3.2465   3.2465   3.6020   3.6020   3.8471   3.8471
     3.8805   3.8805   3.8995   3.8995   3.9371   3.9371   3.9562   3.9562
     3.9642   3.9642   4.0763   4.0763   4.0820   4.0820   4.1017   4.1017
     4.1126   4.1126   4.1358   4.1358   4.1574   4.1574   4.2074   4.2074
     4.2368   4.2368   4.2368   4.2368   4.2412   4.2412   4.2455   4.2455
     4.2547   4.2547   4.2739   4.2740   4.2809   4.2809   4.4062   4.4062
     4.5822   4.5822   4.5972   4.5973   4.6049   4.6049   4.6282   4.6282
     4.6312   4.6312   4.6402   4.6402   4.6486   4.6486   4.6624   4.6624
     4.7184   4.7184   4.7256   4.7256   4.7294   4.7294   4.8049   4.8049
     4.8354   4.8354   4.8503   4.8503   4.9256   4.9256   5.0030   5.0030
     5.0043   5.0043   5.0345   5.0345   5.4074   5.4074   5.9086   5.9087
     8.1483   8.1483

          k = 0.2070-0.3725-0.3725 ( 26428 PWs)   bands (ev):

   -81.9413 -81.9413 -81.9408 -81.9408 -81.9405 -81.9405 -81.9403 -81.9403
   -81.9398 -81.9398 -81.9395 -81.9395 -81.9393 -81.9392 -81.9391 -81.9391
   -47.9853 -47.9853 -47.9849 -47.9849 -47.9844 -47.9844 -47.9842 -47.9842
   -47.9830 -47.9830 -47.9829 -47.9829 -47.9812 -47.9812 -47.9811 -47.9811
   -47.9804 -47.9804 -47.9801 -47.9801 -47.9789 -47.9789 -47.9789 -47.9789
   -47.9734 -47.9734 -47.9733 -47.9733 -47.9720 -47.9720 -47.9718 -47.9718
   -47.9704 -47.9703 -47.9700 -47.9700 -47.9699 -47.9699 -47.9699 -47.9698
   -47.9685 -47.9685 -47.9685 -47.9685 -47.9670 -47.9670 -47.9668 -47.9668
     3.0021   3.0021   3.0022   3.0022   3.7451   3.7451   3.7451   3.7451
     3.8944   3.8944   3.8947   3.8947   3.9981   3.9981   3.9982   3.9982
     4.0078   4.0078   4.0080   4.0080   4.0691   4.0691   4.0691   4.0691
     4.1259   4.1259   4.1261   4.1261   4.1767   4.1767   4.1770   4.1770
     4.2051   4.2051   4.2052   4.2052   4.2249   4.2249   4.2251   4.2251
     4.2523   4.2523   4.2524   4.2524   4.3286   4.3286   4.3286   4.3286
     4.5962   4.5962   4.5964   4.5964   4.6176   4.6176   4.6177   4.6177
     4.6253   4.6253   4.6254   4.6254   4.6550   4.6551   4.6552   4.6552
     4.7364   4.7364   4.7366   4.7366   4.7857   4.7857   4.7858   4.7858
     4.8759   4.8759   4.8760   4.8760   4.9081   4.9081   4.9082   4.9082
     5.0073   5.0073   5.0077   5.0077   5.6349   5.6349   5.6349   5.6349
     8.4555   8.4556

          k = 0.2898 0.2898 0.2898 ( 26407 PWs)   bands (ev):

   -81.9414 -81.9413 -81.9407 -81.9406 -81.9406 -81.9404 -81.9404 -81.9403
   -81.9398 -81.9398 -81.9394 -81.9394 -81.9394 -81.9392 -81.9392 -81.9390
   -47.9851 -47.9851 -47.9850 -47.9847 -47.9845 -47.9845 -47.9834 -47.9834
   -47.9833 -47.9824 -47.9824 -47.9823 -47.9822 -47.9822 -47.9811 -47.9811
   -47.9808 -47.9806 -47.9802 -47.9802 -47.9800 -47.9799 -47.9799 -47.9771
   -47.9746 -47.9724 -47.9724 -47.9723 -47.9717 -47.9713 -47.9713 -47.9707
   -47.9707 -47.9707 -47.9705 -47.9705 -47.9701 -47.9701 -47.9701 -47.9698
   -47.9681 -47.9681 -47.9678 -47.9677 -47.9677 -47.9676 -47.9674 -47.9674
     2.7161   3.2201   3.2203   3.2203   3.5789   3.5790   3.5790   3.9031
     3.9031   3.9329   3.9459   3.9459   3.9460   3.9714   3.9714   3.9716
     4.0004   4.0004   4.0005   4.0073   4.1045   4.1045   4.1207   4.1207
     4.1209   4.1548   4.1548   4.1563   4.1564   4.1564   4.1642   4.1642
     4.1644   4.1829   4.1829   4.1831   4.2017   4.2020   4.2020   4.2150
     4.2150   4.2501   4.2504   4.2504   4.2664   4.2664   4.2665   4.3974
     4.5877   4.5877   4.5879   4.6050   4.6050   4.6201   4.6201   4.6201
     4.6356   4.6356   4.6357   4.6373   4.6373   4.6448   4.6448   4.6449
     4.7355   4.7357   4.7357   4.7908   4.7908   4.7910   4.7921   4.7921
     4.8079   4.9352   4.9352   4.9354   4.9356   4.9356   4.9552   4.9556
     4.9556   5.0417   5.0417   5.0418   5.3864   5.3865   5.3865   5.8839
     8.6855   8.6855

          k = 0.2898 0.2898-0.3725 ( 26396 PWs)   bands (ev):

   -81.9413 -81.9413 -81.9407 -81.9407 -81.9405 -81.9405 -81.9404 -81.9404
   -81.9398 -81.9398 -81.9394 -81.9394 -81.9393 -81.9393 -81.9391 -81.9391
   -47.9849 -47.9849 -47.9846 -47.9846 -47.9841 -47.9840 -47.9838 -47.9838
   -47.9828 -47.9828 -47.9823 -47.9823 -47.9816 -47.9816 -47.9811 -47.9811
   -47.9811 -47.9811 -47.9810 -47.9810 -47.9809 -47.9809 -47.9786 -47.9786
   -47.9735 -47.9734 -47.9716 -47.9716 -47.9716 -47.9716 -47.9709 -47.9709
   -47.9706 -47.9705 -47.9705 -47.9705 -47.9701 -47.9701 -47.9691 -47.9690
   -47.9687 -47.9687 -47.9679 -47.9679 -47.9676 -47.9676 -47.9674 -47.9674
     2.9557   2.9557   3.4073   3.4073   3.4074   3.4074   3.7593   3.7593
     3.9352   3.9352   3.9617   3.9617   3.9710   3.9710   3.9710   3.9710
     4.0124   4.0124   4.0732   4.0732   4.0734   4.0734   4.1118   4.1118
     4.1131   4.1132   4.1476   4.1476   4.1477   4.1477   4.1608   4.1608
     4.1612   4.1612   4.1953   4.1953   4.2001   4.2001   4.2020   4.2020
     4.2021   4.2021   4.2043   4.2043   4.2046   4.2046   4.3174   4.3174
     4.5960   4.5960   4.6059   4.6059   4.6060   4.6060   4.6233   4.6233
     4.6284   4.6284   4.6364   4.6364   4.6378   4.6378   4.6378   4.6378
     4.7715   4.7715   4.7752   4.7752   4.7754   4.7754   4.8601   4.8601
     4.8632   4.8632   4.9132   4.9132   4.9393   4.9393   4.9394   4.9395
     4.9546   4.9546   5.1951   5.1951   5.1951   5.1952   5.6131   5.6131
     8.9881   8.9881

          k = 0.2898-0.3725-0.3725 ( 26392 PWs)   bands (ev):

   -81.9413 -81.9412 -81.9407 -81.9407 -81.9405 -81.9405 -81.9404 -81.9404
   -81.9398 -81.9398 -81.9394 -81.9394 -81.9393 -81.9393 -81.9392 -81.9392
   -47.9845 -47.9845 -47.9841 -47.9841 -47.9841 -47.9841 -47.9838 -47.9838
   -47.9823 -47.9823 -47.9822 -47.9822 -47.9818 -47.9818 -47.9817 -47.9817
   -47.9817 -47.9817 -47.9817 -47.9817 -47.9799 -47.9799 -47.9799 -47.9799
   -47.9724 -47.9724 -47.9724 -47.9724 -47.9710 -47.9710 -47.9710 -47.9710
   -47.9703 -47.9703 -47.9700 -47.9700 -47.9696 -47.9695 -47.9693 -47.9693
   -47.9685 -47.9684 -47.9684 -47.9684 -47.9679 -47.9679 -47.9677 -47.9676
     3.1766   3.1767   3.1768   3.1768   3.5929   3.5930   3.5930   3.5930
     3.9618   3.9618   3.9620   3.9620   4.0212   4.0212   4.0213   4.0213
     4.0533   4.0533   4.0534   4.0534   4.0555   4.0555   4.0555   4.0555
     4.1384   4.1384   4.1386   4.1386   4.1491   4.1491   4.1492   4.1492
     4.1513   4.1513   4.1515   4.1515   4.1648   4.1648   4.1650   4.1650
     4.1919   4.1919   4.1920   4.1920   4.2404   4.2404   4.2405   4.2405
     4.6067   4.6068   4.6070   4.6070   4.6181   4.6181   4.6182   4.6182
     4.6230   4.6230   4.6232   4.6232   4.6355   4.6355   4.6356   4.6356
     4.7971   4.7971   4.7974   4.7974   4.8344   4.8344   4.8344   4.8344
     4.8815   4.8815   4.8815   4.8815   4.9399   4.9399   4.9402   4.9402
     5.0393   5.0393   5.0393   5.0393   5.3831   5.3831   5.3831   5.3831
     9.2958   9.2959

          k =-0.3725-0.3725-0.3725 ( 26344 PWs)   bands (ev):

   -81.9413 -81.9412 -81.9406 -81.9406 -81.9406 -81.9406 -81.9406 -81.9406
   -81.9397 -81.9397 -81.9393 -81.9393 -81.9393 -81.9393 -81.9393 -81.9393
   -47.9833 -47.9833 -47.9833 -47.9833 -47.9833 -47.9833 -47.9828 -47.9828
   -47.9828 -47.9828 -47.9828 -47.9828 -47.9828 -47.9828 -47.9828 -47.9828
   -47.9809 -47.9809 -47.9809 -47.9809 -47.9809 -47.9809 -47.9809 -47.9809
   -47.9715 -47.9715 -47.9715 -47.9715 -47.9715 -47.9715 -47.9715 -47.9715
   -47.9692 -47.9692 -47.9692 -47.9692 -47.9692 -47.9692 -47.9688 -47.9688
   -47.9688 -47.9688 -47.9687 -47.9687 -47.9687 -47.9687 -47.9687 -47.9687
     3.3851   3.3852   3.3853   3.3853   3.3853   3.3853   3.3853   3.3853
     4.0368   4.0368   4.0368   4.0368   4.0371   4.0371   4.0371   4.0371
     4.0371   4.0371   4.0371   4.0371   4.0371   4.0372   4.0372   4.0372
     4.1514   4.1514   4.1514   4.1515   4.1515   4.1515   4.1518   4.1518
     4.1518   4.1518   4.1518   4.1518   4.1518   4.1518   4.1518   4.1518
     4.1612   4.1612   4.1612   4.1612   4.1612   4.1612   4.1613   4.1613
     4.6200   4.6200   4.6201   4.6201   4.6203   4.6203   4.6203   4.6203
     4.6203   4.6203   4.6204   4.6204   4.6204   4.6204   4.6204   4.6204
     4.8671   4.8671   4.8671   4.8672   4.8672   4.8672   4.8675   4.8675
     4.8675   4.8675   4.8675   4.8675   4.8675   4.8675   4.8675   4.8675
[...]
   -44.4238 -44.4238 -44.4238 -44.4238 -44.4229 -44.4218 -44.4218 -44.4218
   -44.4168 -44.4168 -44.4167 -44.4167 -44.4167 -44.4166 -44.4157 -44.4150
   -44.4150 -44.4148 -44.4148 -44.4148 -44.4123 -44.4117 -44.4117 -44.4116
   -44.4104 -44.4103 -44.4103 -44.4090 -44.4090 -44.4090 -44.4090 -44.4090
     2.2612   3.4993   3.4993   3.5000   4.5691   4.5691   4.5696   5.5067
     5.8386   5.8386   5.8390   5.9213   5.9213   5.9215   6.3299   6.4472
     6.4472   6.5701   6.5701   6.5955   6.5955   6.7294   6.7297   6.7297
     6.7384   6.7385   6.7385   6.7720   6.7726   6.7726   6.7960   6.7960
     6.7961   6.8392   6.8392   6.8396   6.9645   6.9645   6.9648   6.9659
     6.9660   6.9660   7.0549   7.0549   7.1200   7.1200   7.1200   7.4504
     7.4560   7.6766   7.6766   7.6766   7.7882   7.7882   7.7883   7.7898
     7.7899   7.7899   7.8360   7.8360   7.8361   7.9620   7.9620   7.9621
     8.0205   8.0205   8.0246   8.0246   8.0248   8.0270   8.0270   8.0572
     8.0572   8.0979   8.0979   8.1132   8.1132   8.1132   8.1251   8.1251
     8.1251   8.1526   8.1526   8.1527   8.2282   8.2282   8.2283   8.9443
     8.9443   8.9444

          k = 0.2070 0.2070 0.2898 ( 26430 PWs)   bands (ev):

   -78.3058 -78.3054 -78.3051 -78.3049 -78.3048 -78.3047 -78.3045 -78.3044
   -78.3040 -78.3040 -78.3039 -78.3038 -78.3037 -78.3036 -78.3033 -78.3029
   -44.4325 -44.4325 -44.4318 -44.4308 -44.4308 -44.4305 -44.4302 -44.4300
   -44.4299 -44.4288 -44.4287 -44.4285 -44.4284 -44.4256 -44.4255 -44.4254
   -44.4253 -44.4240 -44.4239 -44.4229 -44.4227 -44.4227 -44.4220 -44.4213
   -44.4182 -44.4179 -44.4165 -44.4159 -44.4158 -44.4157 -44.4154 -44.4153
   -44.4148 -44.4148 -44.4132 -44.4130 -44.4128 -44.4128 -44.4118 -44.4116
   -44.4101 -44.4100 -44.4099 -44.4098 -44.4096 -44.4090 -44.4090 -44.4089
     2.4741   3.0981   3.6919   3.6923   4.2377   4.2381   4.7465   5.2308
     5.9229   5.9231   5.9960   5.9961   6.0376   6.1599   6.2823   6.4370
     6.5041   6.5936   6.6080   6.6309   6.6313   6.6514   6.6977   6.6979
     6.7068   6.7116   6.7120   6.7155   6.7276   6.7594   6.7761   6.7761
     6.8537   6.8540   6.8570   6.8571   6.8931   6.8931   6.9231   6.9233
     6.9663   6.9908   7.0144   7.0230   7.0230   7.0361   7.1507   7.3157
     7.5275   7.6990   7.7206   7.7206   7.7412   7.7945   7.7946   7.8463
     7.8463   7.8581   7.8926   7.8927   7.8932   7.9281   7.9439   7.9439
     7.9772   7.9919   8.0087   8.0482   8.0485   8.0485   8.0514   8.0573
     8.0581   8.0647   8.0878   8.0897   8.0897   8.1042   8.1101   8.1101
     8.1115   8.1193   8.1411   8.1411   8.1424   8.1425   8.3826   8.7327
     9.0994   9.0996

          k = 0.2070 0.2070-0.3725 ( 26436 PWs)   bands (ev):

   -78.3057 -78.3056 -78.3049 -78.3049 -78.3048 -78.3048 -78.3045 -78.3045
   -78.3041 -78.3040 -78.3038 -78.3038 -78.3037 -78.3037 -78.3031 -78.3031
   -44.4317 -44.4317 -44.4316 -44.4316 -44.4304 -44.4304 -44.4303 -44.4303
   -44.4300 -44.4300 -44.4273 -44.4273 -44.4272 -44.4272 -44.4271 -44.4271
   -44.4242 -44.4242 -44.4235 -44.4235 -44.4235 -44.4235 -44.4200 -44.4200
   -44.4197 -44.4197 -44.4162 -44.4162 -44.4152 -44.4152 -44.4152 -44.4152
   -44.4141 -44.4141 -44.4141 -44.4141 -44.4117 -44.4117 -44.4115 -44.4115
   -44.4115 -44.4114 -44.4093 -44.4093 -44.4093 -44.4093 -44.4091 -44.4091
     2.7543   2.7544   3.9408   3.9409   3.9413   3.9413   4.9712   4.9712
     5.9891   5.9891   5.9893   5.9893   6.1676   6.1676   6.3564   6.3564
     6.5740   6.5740   6.6556   6.6556   6.6581   6.6581   6.6698   6.6698
     6.6843   6.6843   6.6846   6.6846   6.6871   6.6872   6.8283   6.8283
     6.8283   6.8284   6.8835   6.8835   6.8838   6.8838   6.9339   6.9339
     6.9339   6.9339   6.9837   6.9837   7.0143   7.0143   7.2091   7.2091
     7.6111   7.6111   7.7568   7.7568   7.7569   7.7569   7.8283   7.8283
     7.9017   7.9017   7.9018   7.9018   7.9220   7.9220   7.9526   7.9526
     7.9983   7.9983   7.9983   7.9983   8.0276   8.0276   8.0628   8.0628
     8.0662   8.0662   8.0820   8.0820   8.0820   8.0820   8.0854   8.0854
     8.1086   8.1086   8.1329   8.1329   8.1330   8.1330   8.5521   8.5521
     9.2644   9.2645

          k = 0.2070 0.2898 0.2898 ( 26421 PWs)   bands (ev):

   -78.3056 -78.3054 -78.3052 -78.3049 -78.3049 -78.3047 -78.3046 -78.3045
   -78.3040 -78.3040 -78.3038 -78.3037 -78.3037 -78.3034 -78.3034 -78.3030
   -44.4321 -44.4315 -44.4315 -44.4310 -44.4309 -44.4307 -44.4300 -44.4296
   -44.4291 -44.4290 -44.4289 -44.4281 -44.4271 -44.4265 -44.4259 -44.4256
   -44.4255 -44.4245 -44.4240 -44.4239 -44.4239 -44.4237 -44.4236 -44.4197
   -44.4197 -44.4168 -44.4166 -44.4157 -44.4157 -44.4150 -44.4148 -44.4148
   -44.4143 -44.4141 -44.4133 -44.4133 -44.4125 -44.4124 -44.4123 -44.4118
   -44.4106 -44.4100 -44.4100 -44.4100 -44.4093 -44.4092 -44.4090 -44.4089
     2.6845   3.2985   3.2990   3.8767   3.8829   4.4213   4.4217   4.9316
     6.0130   6.1046   6.1047   6.1737   6.2258   6.2260   6.2977   6.4944
     6.4979   6.5853   6.6317   6.6319   6.6413   6.6586   6.6595   6.6663
     6.6665   6.6667   6.6699   6.7422   6.7423   6.7781   6.7782   6.7810
     6.7812   6.8071   6.8490   6.8599   6.8766   6.8898   6.9091   6.9093
     6.9307   6.9462   6.9463   6.9745   7.0030   7.0368   7.0368   7.1731
     7.6131   7.7603   7.7603   7.7711   7.7826   7.7990   7.7991   7.8618
     7.8618   7.8923   7.8963   7.9012   7.9013   7.9545   7.9761   7.9762
     7.9802   7.9828   7.9969   8.0118   8.0369   8.0371   8.0452   8.0485
     8.0521   8.0607   8.0608   8.0680   8.0680   8.0936   8.0963   8.1021
     8.1022   8.1050   8.1051   8.1051   8.1406   8.2605   8.2606   8.5624
     9.2778   9.6260

          k = 0.2070 0.2898-0.3725 ( 26446 PWs)   bands (ev):

   -78.3055 -78.3055 -78.3051 -78.3051 -78.3048 -78.3048 -78.3046 -78.3046
   -78.3040 -78.3040 -78.3038 -78.3038 -78.3035 -78.3035 -78.3032 -78.3032
   -44.4316 -44.4316 -44.4310 -44.4310 -44.4306 -44.4306 -44.4301 -44.4301
   -44.4294 -44.4294 -44.4279 -44.4279 -44.4270 -44.4270 -44.4255 -44.4255
   -44.4251 -44.4251 -44.4249 -44.4249 -44.4245 -44.4245 -44.4217 -44.4217
   -44.4182 -44.4182 -44.4154 -44.4154 -44.4152 -44.4152 -44.4151 -44.4151
   -44.4140 -44.4140 -44.4133 -44.4133 -44.4121 -44.4121 -44.4118 -44.4118
   -44.4113 -44.4113 -44.4102 -44.4102 -44.4091 -44.4091 -44.4090 -44.4090
     2.9607   2.9608   3.5604   3.5604   4.1290   4.1291   4.6563   4.6564
     6.0885   6.0885   6.2193   6.2193   6.2502   6.2502   6.4178   6.4178
     6.5625   6.5625   6.6179   6.6179   6.6235   6.6235   6.6483   6.6483
     6.7016   6.7016   6.7020   6.7020   6.7176   6.7176   6.7907   6.7907
     6.8162   6.8162   6.8471   6.8471   6.8522   6.8522   6.9086   6.9086
     6.9359   6.9359   6.9487   6.9487   6.9744   6.9744   7.0758   7.0758
     7.7046   7.7046   7.7620   7.7620   7.8236   7.8236   7.8276   7.8276
     7.9042   7.9042   7.9268   7.9268   7.9387   7.9387   7.9392   7.9392
     7.9502   7.9502   8.0135   8.0135   8.0429   8.0429   8.0470   8.0470
     8.0632   8.0632   8.0708   8.0708   8.0808   8.0808   8.0865   8.0865
     8.0931   8.0931   8.0994   8.0994   8.1657   8.1657   8.4065   8.4065
     9.4753   9.4753

          k = 0.2070-0.3725-0.3725 ( 26428 PWs)   bands (ev):

   -78.3054 -78.3054 -78.3052 -78.3052 -78.3048 -78.3048 -78.3047 -78.3047
   -78.3039 -78.3039 -78.3038 -78.3038 -78.3034 -78.3034 -78.3033 -78.3033
   -44.4311 -44.4311 -44.4311 -44.4311 -44.4303 -44.4303 -44.4302 -44.4302
   -44.4286 -44.4286 -44.4286 -44.4286 -44.4262 -44.4262 -44.4262 -44.4262
   -44.4252 -44.4252 -44.4252 -44.4252 -44.4237 -44.4237 -44.4236 -44.4236
   -44.4168 -44.4168 -44.4166 -44.4166 -44.4150 -44.4150 -44.4150 -44.4150
   -44.4128 -44.4128 -44.4127 -44.4127 -44.4126 -44.4126 -44.4125 -44.4125
   -44.4109 -44.4109 -44.4108 -44.4108 -44.4089 -44.4089 -44.4089 -44.4089
     3.2309   3.2309   3.2313   3.2314   4.3705   4.3705   4.3709   4.3709
     6.1816   6.1816   6.1817   6.1818   6.4097   6.4097   6.4100   6.4100
     6.5643   6.5643   6.5644   6.5644   6.6170   6.6170   6.6172   6.6172
     6.7447   6.7447   6.7449   6.7449   6.7605   6.7605   6.7605   6.7605
     6.7667   6.7667   6.7669   6.7669   6.8884   6.8884   6.8886   6.8886
     6.9400   6.9400   6.9401   6.9401   6.9867   6.9867   6.9867   6.9867
     7.7885   7.7885   7.7886   7.7886   7.8035   7.8035   7.8036   7.8036
     7.8865   7.8865   7.8866   7.8866   7.9595   7.9595   7.9595   7.9595
     7.9798   7.9798   7.9798   7.9798   8.0335   8.0335   8.0335   8.0335
     8.0703   8.0703   8.0704   8.0704   8.0792   8.0792   8.0794   8.0794
     8.0972   8.0972   8.0972   8.0972   8.2743   8.2743   8.2743   8.2743
     9.7124   9.7125

          k = 0.2898 0.2898 0.2898 ( 26407 PWs)   bands (ev):

   -78.3055 -78.3053 -78.3050 -78.3050 -78.3049 -78.3048 -78.3048 -78.3046
   -78.3039 -78.3039 -78.3037 -78.3037 -78.3036 -78.3034 -78.3034 -78.3031
   -44.4310 -44.4310 -44.4310 -44.4306 -44.4306 -44.4306 -44.4291 -44.4291
   -44.4291 -44.4278 -44.4278 -44.4277 -44.4277 -44.4276 -44.4262 -44.4262
   -44.4262 -44.4253 -44.4253 -44.4253 -44.4250 -44.4250 -44.4248 -44.4214
   -44.4182 -44.4155 -44.4155 -44.4153 -44.4144 -44.4144 -44.4144 -44.4135
   -44.4135 -44.4134 -44.4130 -44.4130 -44.4130 -44.4129 -44.4129 -44.4123
   -44.4101 -44.4101 -44.4099 -44.4099 -44.4099 -44.4097 -44.4097 -44.4097
     2.8923   3.4972   3.4972   3.4979   4.0672   4.0672   4.0678   4.6060
     6.2753   6.2753   6.2754   6.3017   6.3017   6.3020   6.4118   6.5314
     6.5314   6.5987   6.5987   6.6212   6.6215   6.6215   6.6387   6.6391
     6.6391   6.6975   6.6975   6.7740   6.7740   6.7742   6.7749   6.7750
     6.7750   6.8066   6.8066   6.8069   6.8728   6.8728   6.8730   6.8833
     6.8834   6.8834   6.9115   6.9115   6.9115   6.9482   6.9482   7.0148
     7.7050   7.8225   7.8225   7.8225   7.8520   7.8520   7.8521   7.9042
     7.9042   7.9042   7.9386   7.9386   7.9386   7.9663   7.9663   7.9872
     7.9872   7.9873   7.9875   7.9875   8.0172   8.0172   8.0289   8.0289
     8.0290   8.0502   8.0502   8.0502   8.0641   8.0641   8.0867   8.0868
     8.0868   8.0941   8.0941   8.0941   8.1351   8.1351   8.1351   8.4096
     9.8338   9.8340

          k = 0.2898 0.2898-0.3725 ( 26396 PWs)   bands (ev):

   -78.3054 -78.3054 -78.3050 -78.3050 -78.3049 -78.3049 -78.3047 -78.3046
   -78.3039 -78.3039 -78.3037 -78.3037 -78.3036 -78.3036 -78.3033 -78.3032
   -44.4307 -44.4307 -44.4306 -44.4306 -44.4299 -44.4299 -44.4296 -44.4296
   -44.4284 -44.4284 -44.4277 -44.4277 -44.4266 -44.4266 -44.4263 -44.4263
   -44.4262 -44.4262 -44.4262 -44.4262 -44.4262 -44.4262 -44.4232 -44.4232
   -44.4168 -44.4168 -44.4145 -44.4145 -44.4144 -44.4144 -44.4136 -44.4136
   -44.4134 -44.4134 -44.4134 -44.4134 -44.4127 -44.4127 -44.4114 -44.4114
   -44.4112 -44.4112 -44.4099 -44.4099 -44.4099 -44.4099 -44.4097 -44.4097
     3.1648   3.1649   3.7557   3.7557   3.7561   3.7561   4.3134   4.3134
     6.3425   6.3425   6.3426   6.3426   6.3794   6.3795   6.4856   6.4856
     6.5751   6.5751   6.6139   6.6139   6.6142   6.6142   6.6178   6.6178
     6.6587   6.6587   6.7373   6.7373   6.7445   6.7445   6.8169   6.8169
     6.8170   6.8170   6.8198   6.8198   6.8199   6.8199   6.8415   6.8415
     6.8417   6.8417   6.9032   6.9032   6.9171   6.9171   6.9177   6.9177
     7.8034   7.8034   7.8461   7.8461   7.8462   7.8462   7.8860   7.8860
     7.9257   7.9257   7.9729   7.9729   7.9730   7.9730   7.9811   7.9811
     8.0088   8.0088   8.0102   8.0102   8.0158   8.0158   8.0158   8.0159
     8.0256   8.0256   8.0308   8.0308   8.0308   8.0308   8.0554   8.0554
     8.0770   8.0770   8.0856   8.0856   8.0857   8.0857   8.2689   8.2689
    10.0601  10.0602

          k = 0.2898-0.3725-0.3725 ( 26392 PWs)   bands (ev):

   -78.3053 -78.3053 -78.3051 -78.3051 -78.3048 -78.3048 -78.3047 -78.3047
   -78.3039 -78.3039 -78.3037 -78.3037 -78.3035 -78.3034 -78.3034 -78.3034
   -44.4301 -44.4301 -44.4301 -44.4301 -44.4298 -44.4298 -44.4298 -44.4298
   -44.4274 -44.4274 -44.4274 -44.4274 -44.4272 -44.4272 -44.4271 -44.4271
   -44.4271 -44.4271 -44.4270 -44.4270 -44.4249 -44.4249 -44.4248 -44.4248
   -44.4155 -44.4155 -44.4154 -44.4154 -44.4138 -44.4138 -44.4137 -44.4137
   -44.4129 -44.4129 -44.4128 -44.4128 -44.4120 -44.4120 -44.4120 -44.4120
   -44.4108 -44.4108 -44.4108 -44.4107 -44.4100 -44.4100 -44.4100 -44.4100
     3.4315   3.4315   3.4319   3.4320   4.0092   4.0092   4.0096   4.0096
     6.4198   6.4198   6.4198   6.4199   6.5018   6.5018   6.5021   6.5021
     6.5758   6.5758   6.5760   6.5760   6.6023   6.6023   6.6025   6.6025
     6.7022   6.7022   6.7024   6.7024   6.7820   6.7820   6.7820   6.7820
     6.7830   6.7830   6.7833   6.7833   6.8160   6.8160   6.8160   6.8160
     6.8577   6.8577   6.8579   6.8579   6.8765   6.8765   6.8765   6.8765
     7.8789   7.8789   7.8789   7.8789   7.9071   7.9071   7.9072   7.9072
     7.9091   7.9091   7.9091   7.9091   7.9945   7.9945   7.9945   7.9945
     7.9982   7.9982   7.9982   7.9982   8.0084   8.0085   8.0086   8.0086
     8.0087   8.0087   8.0088   8.0088   8.0548   8.0548   8.0549   8.0549
     8.0706   8.0706   8.0706   8.0706   8.1434   8.1434   8.1434   8.1434
    10.3317  10.3319

          k =-0.3725-0.3725-0.3725 ( 26344 PWs)   bands (ev):

   -78.3052 -78.3052 -78.3049 -78.3049 -78.3049 -78.3049 -78.3049 -78.3049
   -78.3037 -78.3037 -78.3035 -78.3035 -78.3035 -78.3035 -78.3035 -78.3035
   -44.4286 -44.4286 -44.4286 -44.4286 -44.4286 -44.4286 -44.4286 -44.4286
   -44.4286 -44.4285 -44.4285 -44.4285 -44.4285 -44.4285 -44.4285 -44.4285
   -44.4261 -44.4261 -44.4261 -44.4261 -44.4261 -44.4261 -44.4259 -44.4259
   -44.4144 -44.4144 -44.4144 -44.4144 -44.4144 -44.4144 -44.4142 -44.4142
   -44.4114 -44.4114 -44.4114 -44.4114 -44.4114 -44.4114 -44.4113 -44.4113
   -44.4113 -44.4113 -44.4113 -44.4113 -44.4113 -44.4113 -44.4113 -44.4113
     3.6930   3.6930   3.6930   3.6930   3.6930   3.6930   3.6938   3.6939
     6.5886   6.5886   6.5886   6.5886   6.5886   6.5886   6.5890   6.5890
     6.5890   6.5890   6.5891   6.5891   6.5891   6.5891   6.5891   6.5891
     6.6460   6.6460   6.6460   6.6460   6.6460   6.6460   6.6460   6.6460
     6.8215   6.8215   6.8215   6.8215   6.8216   6.8216   6.8216   6.8216
     6.8216   6.8216   6.8218   6.8218   6.8218   6.8218   6.8218   6.8218
     7.9486   7.9486   7.9486   7.9486   7.9487   7.9487   7.9487   7.9487
     7.9487   7.9487   7.9488   7.9488   7.9488   7.9488   7.9488   7.9488
     8.0226   8.0226   8.0226   8.0226   8.0226   8.0226   8.0227   8.0227
     8.0340   8.0340   8.0340   8.0340   8.0340   8.0340   8.0340   8.0340
     8.0340   8.0340   8.0341   8.0341   8.0341   8.0341   8.0341   8.0341
    11.0464  11.0465

     the Fermi energy is     7.0986 ev

!    total energy              =   -5266.04654077 Ry

     total all-electron energy =    -40726.791070 Ry
     estimated scf accuracy    <          6.0E-09 Ry
     smearing contrib. (-TS)   =      -0.06647244 Ry
     internal energy E=F+TS    =   -5265.98006833 Ry

     The total energy is F=E-TS. E is the sum of the following terms:
     one-electron contribution =   -2781.03867810 Ry
     hartree contribution      =    1443.27808485 Ry
     xc contribution           =    -440.67863535 Ry
     ewald contribution        =   -2163.13375746 Ry
     one-center paw contrib.   =   -1324.40708226 Ry

     total magnetization       =    49.88 Bohr mag/cell
     absolute magnetization    =    54.03 Bohr mag/cell

     convergence has been achieved in  34 iterations

     negative rho (up, down):  0.000E+00 5.522E-03

     Forces acting on atoms (cartesian axes, Ry/au):

     atom    1 type  1   force =     0.00000000    0.00000000    0.00000000
     atom    2 type  2   force =    -0.00000027   -0.00000027   -0.00000027
     atom    3 type  1   force =     0.00000000    0.00000000    0.00000000
     atom    4 type  2   force =    -0.00000027   -0.00000027    0.00000027
     atom    5 type  1   force =     0.00000000    0.00000000    0.00000000
     atom    6 type  2   force =    -0.00000027    0.00000027   -0.00000027
     atom    7 type  1   force =     0.00000000    0.00000000    0.00000000
     atom    8 type  2   force =    -0.00000027    0.00000027    0.00000027
     atom    9 type  1   force =     0.00000000    0.00000000    0.00000000
     atom   10 type  2   force =     0.00000027   -0.00000027   -0.00000027
     atom   11 type  1   force =     0.00000000    0.00000000    0.00000000
     atom   12 type  2   force =     0.00000027   -0.00000027    0.00000027
     atom   13 type  1   force =     0.00000000    0.00000000    0.00000000
     atom   14 type  2   force =     0.00000027    0.00000027   -0.00000027
     atom   15 type  1   force =     0.00000000    0.00000000    0.00000000
     atom   16 type  2   force =     0.00000027    0.00000027    0.00000027

     Total force =     0.000001     Total SCF correction =     0.000324
     SCF correction compared to forces is large: reduce conv_thr to get better values


     Computing stress (Cartesian axis) and pressure


     negative rho (up, down):  0.000E+00 5.522E-03
          total   stress  (Ry/bohr**3)                   (kbar)     P=     -250.51
  -0.00170295   0.00000000   0.00000000         -250.51        0.00        0.00
   0.00000000  -0.00170295   0.00000000            0.00     -250.51        0.00
   0.00000000   0.00000000  -0.00170295            0.00        0.00     -250.51


     Writing output data file /scratch/vLEKJkzeWaRorsTM.save/
 
     init_run     :      8.30s CPU      8.56s WALL (       1 calls)
     electrons    :    827.57s CPU    840.08s WALL (       1 calls)
     forces       :      2.66s CPU      2.70s WALL (       1 calls)
     stress       :     11.14s CPU     11.21s WALL (       1 calls)

     Called by init_run:
     wfcinit      :      7.68s CPU      7.86s WALL (       1 calls)
     potinit      :      0.22s CPU      0.25s WALL (       1 calls)
     hinit0       :      0.11s CPU      0.11s WALL (       1 calls)

     Called by electrons:
     c_bands      :    713.43s CPU    722.82s WALL (      34 calls)
     sum_band     :    107.30s CPU    109.43s WALL (      34 calls)
     v_of_rho     :      0.84s CPU      0.91s WALL (      35 calls)
     newd         :      1.36s CPU      1.75s WALL (      35 calls)
     PAW_pot      :      3.97s CPU      4.45s WALL (      35 calls)
     mix_rho      :      0.72s CPU      0.77s WALL (      34 calls)

     Called by c_bands:
     init_us_2    :      3.89s CPU      4.09s WALL (    4970 calls)
     cegterg      :    698.42s CPU    707.38s WALL (    2380 calls)

     Called by *egterg:
     cdiaghg      :     88.56s CPU     88.99s WALL (    9435 calls)
     h_psi        :    458.51s CPU    466.02s WALL (    9505 calls)
     s_psi        :     16.66s CPU     16.82s WALL (    9505 calls)
     g_psi        :      0.83s CPU      0.84s WALL (    7055 calls)

     Called by h_psi:
     h_psi:calbec :     37.04s CPU     37.37s WALL (    9505 calls)
     vloc_psi     :    401.84s CPU    408.81s WALL (    9505 calls)
     add_vuspsi   :     17.82s CPU     18.02s WALL (    9505 calls)

     General routines
     calbec       :     54.49s CPU     55.01s WALL (   12235 calls)
     fft          :      0.64s CPU      0.67s WALL (     913 calls)
     ffts         :      0.42s CPU      0.43s WALL (     937 calls)
     fftw         :    469.67s CPU    477.79s WALL ( 2123292 calls)
     interpolate  :      0.08s CPU      0.09s WALL (      70 calls)
 
     Parallel routines
     fft_scatt_xy :     34.82s CPU     35.42s WALL ( 2125142 calls)
     fft_scatt_yz :    324.83s CPU    330.67s WALL ( 2125142 calls)
 
     PWSCF        :  14m18.97s CPU  14m33.58s WALL

 
   This run was terminated on:  14:36:36  17Jan2022            

=------------------------------------------------------------------------------=
   JOB DONE.
=------------------------------------------------------------------------------=
