
     Program PWSCF v.6.7MaX starts on 14Mar2022 at  8:51:20 

     This program is part of the open-source Quantum ESPRESSO suite
     for quantum simulation of materials; please cite
         "P. Giannozzi et al., J. Phys.:Condens. Matter 21 395502 (2009);
         "P. Giannozzi et al., J. Phys.:Condens. Matter 29 465901 (2017);
          URL http://www.quantum-espresso.org", 
     in publications or presentations arising from this work. More details at
     http://www.quantum-espresso.org/quote

     Parallel version (MPI & OpenMP), running on      72 processor cores
     Number of MPI processes:                72
     Threads/MPI process:                     1

     MPI processes distributed on     1 nodes
     R & G space division:  proc/nbgrp/npool/nimage =      72
     Reading input from ru_0047.in
Warning: card &CELL ignored
Warning: card CELL_DYNAMICS = 'BFGS', ignored
Warning: card CELL_FACTOR = 2.0, ignored
Warning: card PRESS = 0.0, ignored
Warning: card / ignored

     Current dimensions of program PWSCF are:
     Max number of different atomic species (ntypx) = 10
     Max number of k-points (npk) =  40000
     Max angular momentum in pseudopotentials (lmaxx) =  3
     file Ru.pbe-spn-kjpaw_psl.1.0.0.UPF: wavefunction(s)  4D renormalized

     Subspace diagonalization in iterative solution of the eigenvalue problem:
     one sub-group per band group will be used
     ELPA distributed-memory algorithm (size of sub-group:  8*  8 procs)

 
     Parallelization info
     --------------------
     sticks:   dense  smooth     PW     G-vecs:    dense   smooth      PW
     Min          98      65     17                 6232     3345     475
     Max          99      67     18                 6237     3351     482
     Sum        7089    4693   1281               448855   241089   34457
 


     bravais-lattice index     =            0
     lattice parameter (alat)  =      14.3940  a.u.
     unit-cell volume          =    2982.2680 (a.u.)^3
     number of atoms/cell      =           32
     number of atomic types    =            1
     number of electrons       =       512.00
     number of Kohn-Sham states=          307
     kinetic-energy cutoff     =      71.0000  Ry
     charge density cutoff     =     430.0000  Ry
     scf convergence threshold =      1.0E-08
     mixing beta               =       0.3000
     number of iterations used =           10  local-TF  mixing
     Exchange-correlation= SLA  PW   PBX  PBC
                           (   1   4   3   4   0   0   0)

     celldm(1)=  14.394024  celldm(2)=   0.000000  celldm(3)=   0.000000
     celldm(4)=   0.000000  celldm(5)=   0.000000  celldm(6)=   0.000000

     crystal axes: (cart. coord. in units of alat)
               a(1) = (   1.000000   0.000000   0.000000 )  
               a(2) = (   0.000000   1.000000   0.000000 )  
               a(3) = (   0.000000   0.000000   1.000000 )  

     reciprocal axes: (cart. coord. in units 2 pi/alat)
               b(1) = (  1.000000  0.000000  0.000000 )  
               b(2) = (  0.000000  1.000000  0.000000 )  
               b(3) = (  0.000000  0.000000  1.000000 )  


     PseudoPot. # 1 for Ru read from file:
     /rds/homes/b/bxp912/pp/Ru.pbe-spn-kjpaw_psl.1.0.0.UPF
     MD5 check sum: 0ae1f594dea09af7be8575c3a481d1ae
     Pseudo is Projector augmented-wave + core cor, Zval = 16.0
     Generated using "atomic" code by A. Dal Corso  v.5.1
     Shape of augmentation charge: PSQ
     Using radial grid of 1233 points,  6 beta functions with: 
                l(1) =   0
                l(2) =   0
                l(3) =   1
                l(4) =   1
                l(5) =   2
                l(6) =   2
     Q(r) pseudized with 0 coefficients 


     atomic species   valence    mass     pseudopotential
        Ru            16.00   101.07000     Ru( 1.00)

     No symmetry found



   Cartesian axes

     site n.     atom                  positions (alat units)
         1           Ru  tau(   1) = (   0.0006640   0.0027050   0.0003640  )
         2           Ru  tau(   2) = (   0.2513560   0.2453820   0.0038000  )
         3           Ru  tau(   3) = (   0.2516370   0.0006490   0.2558380  )
         4           Ru  tau(   4) = (   0.0017570   0.2500120   0.2476300  )
         5           Ru  tau(   5) = (   0.9990960   0.0006100   0.5016130  )
         6           Ru  tau(   6) = (   0.2468700   0.2453190   0.5005150  )
         7           Ru  tau(   7) = (   0.2483900   0.0053940   0.7507710  )
         8           Ru  tau(   8) = (   0.9995140   0.2503450   0.7461520  )
         9           Ru  tau(   9) = (   0.0038200   0.4990050   0.0010400  )
        10           Ru  tau(  10) = (   0.2468200   0.7568910   0.9994540  )
        11           Ru  tau(  11) = (   0.2479630   0.5023460   0.2518540  )
        12           Ru  tau(  12) = (   0.9957480   0.7519790   0.2494770  )
        13           Ru  tau(  13) = (   0.0023680   0.4983140   0.5019420  )
        14           Ru  tau(  14) = (   0.2512920   0.7512200   0.4984790  )
        15           Ru  tau(  15) = (   0.2540320   0.4994710   0.7519750  )
        16           Ru  tau(  16) = (   0.0008100   0.7471340   0.7501440  )
        17           Ru  tau(  17) = (   0.5001000   0.9989870   0.9916840  )
        18           Ru  tau(  18) = (   0.7498550   0.2497950   0.9993250  )
        19           Ru  tau(  19) = (   0.7521150   0.9994790   0.2498550  )
        20           Ru  tau(  20) = (   0.5031340   0.2524860   0.2526740  )
        21           Ru  tau(  21) = (   0.4948790   0.9945850   0.4982200  )
        22           Ru  tau(  22) = (   0.7501150   0.2489650   0.4981310  )
        23           Ru  tau(  23) = (   0.7472120   0.0043430   0.7503880  )
        24           Ru  tau(  24) = (   0.4971240   0.2507810   0.7488310  )
        25           Ru  tau(  25) = (   0.4986770   0.5036430   0.0000480  )
        26           Ru  tau(  26) = (   0.7497790   0.7478190   0.0024110  )
        27           Ru  tau(  27) = (   0.7510420   0.4996410   0.2545050  )
        28           Ru  tau(  28) = (   0.5028510   0.7511730   0.2484170  )
        29           Ru  tau(  29) = (   0.4984870   0.5033720   0.5002450  )
        30           Ru  tau(  30) = (   0.7471970   0.7530540   0.4992450  )
        31           Ru  tau(  31) = (   0.7532300   0.4996600   0.7522200  )
        32           Ru  tau(  32) = (   0.4991100   0.7521530   0.7499200  )

     number of k points=   365  Marzari-Vanderbilt smearing, width (Ry)=  0.0400

     Number of k-points >= 100: set verbosity='high' to print them.

     Dense  grid:   448855 G-vectors     FFT dimensions: (  96,  96,  96)

     Smooth grid:   241089 G-vectors     FFT dimensions: (  80,  80,  80)

     Estimated max dynamical RAM per process >     753.03 MB

     Estimated total dynamical RAM >      52.95 GB

     Check: negative core charge=   -0.000002

     Initial potential from superposition of free atoms

     starting charge  511.97959, renormalised to  512.00000
     Starting wfcs are  320 randomized atomic wfcs
     Checking if some PAW data can be deallocated... 

     total cpu time spent up to now is       99.0 secs

     Self-consistent Calculation

     iteration #  1     ecut=    71.00 Ry     beta= 0.30
     Davidson diagonalization with overlap
     ethr =  1.00E-02,  avg # of iterations =  3.6

     Threshold (ethr) on eigenvalues was too large:
     Diagonalizing with lowered threshold

     Davidson diagonalization with overlap
     ethr =  8.70E-05,  avg # of iterations =  6.0

     total cpu time spent up to now is      818.4 secs

     total energy              =  -13813.36279313 Ry
     estimated scf accuracy    <       0.65298072 Ry

     iteration #  2     ecut=    71.00 Ry     beta= 0.30
     Davidson diagonalization with overlap
     ethr =  1.28E-04,  avg # of iterations =  1.1

     total cpu time spent up to now is     1070.5 secs

     total energy              =  -13813.22520012 Ry
     estimated scf accuracy    <       0.30507884 Ry

     iteration #  3     ecut=    71.00 Ry     beta= 0.30
     Davidson diagonalization with overlap
     c_bands:  1 eigenvalues not converged
     ethr =  5.96E-05,  avg # of iterations =  2.3

     total cpu time spent up to now is     1400.0 secs

     total energy              =  -13813.28785108 Ry
     estimated scf accuracy    <       0.00211605 Ry

     iteration #  4     ecut=    71.00 Ry     beta= 0.30
     Davidson diagonalization with overlap
     c_bands:  1 eigenvalues not converged
     ethr =  4.13E-07,  avg # of iterations =  5.2

     total cpu time spent up to now is     1784.7 secs

     total energy              =  -13813.28651849 Ry
     estimated scf accuracy    <       0.00112668 Ry

     iteration #  5     ecut=    71.00 Ry     beta= 0.30
     Davidson diagonalization with overlap
     ethr =  2.20E-07,  avg # of iterations =  2.1

     total cpu time spent up to now is     2123.7 secs

     total energy              =  -13813.28672128 Ry
     estimated scf accuracy    <       0.00023582 Ry

     iteration #  6     ecut=    71.00 Ry     beta= 0.30
     Davidson diagonalization with overlap
     ethr =  4.61E-08,  avg # of iterations =  2.0

     total cpu time spent up to now is     2413.2 secs

     total energy              =  -13813.28670541 Ry
     estimated scf accuracy    <       0.00001786 Ry

     iteration #  7     ecut=    71.00 Ry     beta= 0.30
     Davidson diagonalization with overlap
     ethr =  3.49E-09,  avg # of iterations =  3.1

     total cpu time spent up to now is     2805.5 secs

     total energy              =  -13813.28670687 Ry
     estimated scf accuracy    <       0.00000566 Ry

     iteration #  8     ecut=    71.00 Ry     beta= 0.30
     Davidson diagonalization with overlap
     ethr =  1.10E-09,  avg # of iterations =  2.0

     total cpu time spent up to now is     3176.7 secs

     total energy              =  -13813.28670763 Ry
     estimated scf accuracy    <       0.00000052 Ry

     iteration #  9     ecut=    71.00 Ry     beta= 0.30
     Davidson diagonalization with overlap
     ethr =  1.01E-10,  avg # of iterations =  2.4

     total cpu time spent up to now is     3467.7 secs

     total energy              =  -13813.28670771 Ry
     estimated scf accuracy    <       0.00000019 Ry

     iteration # 10     ecut=    71.00 Ry     beta= 0.30
     Davidson diagonalization with overlap
     ethr =  3.70E-11,  avg # of iterations =  2.0

     total cpu time spent up to now is     3839.0 secs

     total energy              =  -13813.28670777 Ry
     estimated scf accuracy    <       0.00000001 Ry

     iteration # 11     ecut=    71.00 Ry     beta= 0.30
     Davidson diagonalization with overlap
     ethr =  2.18E-12,  avg # of iterations =  4.1

     total cpu time spent up to now is     4249.7 secs

     End of self-consistent calculation

     Number of k-points >= 100: set verbosity='high' to print the bands.

     the Fermi energy is    23.1585 ev

!    total energy              =  -13813.28670778 Ry

     total all-electron energy =   -289989.677047 Ry
     estimated scf accuracy    <          7.1E-10 Ry
     smearing contrib. (-TS)   =       0.01993605 Ry
     internal energy E=F+TS    =  -13813.30664383 Ry

     The total energy is F=E-TS. E is the sum of the following terms:
     one-electron contribution =    -994.53451840 Ry
     hartree contribution      =     916.23274152 Ry
     xc contribution           =    -928.15143379 Ry
     ewald contribution        =   -5217.40799485 Ry
     one-center paw contrib.   =   -7589.44543832 Ry

     convergence has been achieved in  11 iterations

     Forces acting on atoms (cartesian axes, Ry/au):

     atom    1 type  1   force =    -0.00710446   -0.00495140   -0.00130098
     atom    2 type  1   force =    -0.00149313    0.01478681   -0.01076029
     atom    3 type  1   force =    -0.00674118   -0.00215625   -0.01774786
     atom    4 type  1   force =    -0.00535242    0.00149157    0.00540260
     atom    5 type  1   force =    -0.00075114   -0.00248534   -0.00712270
     atom    6 type  1   force =     0.00859191    0.02235306   -0.00249093
     atom    7 type  1   force =     0.00497046   -0.01322257   -0.00007847
     atom    8 type  1   force =    -0.00014556    0.00195370    0.01460892
     atom    9 type  1   force =    -0.01020050    0.00451880   -0.00037609
     atom   10 type  1   force =     0.00719633   -0.02205349    0.00183277
     atom   11 type  1   force =     0.00821853   -0.00287486   -0.00409646
     atom   12 type  1   force =     0.01404364   -0.00553932    0.00086320
     atom   13 type  1   force =    -0.01061885    0.00566652   -0.00400912
     atom   14 type  1   force =    -0.00659045   -0.00975030    0.00756130
     atom   15 type  1   force =    -0.01160841    0.00634231    0.00163592
     atom   16 type  1   force =    -0.00361120    0.00711030   -0.00222473
     atom   17 type  1   force =     0.00225180    0.00528318    0.02494396
     atom   18 type  1   force =    -0.00319414    0.00840178    0.00248705
     atom   19 type  1   force =    -0.01017697    0.00463829    0.00079850
     atom   20 type  1   force =    -0.01097226   -0.00244667   -0.00792867
     atom   21 type  1   force =     0.01777948    0.01950581    0.00440897
     atom   22 type  1   force =     0.00073692    0.00349067    0.00851715
     atom   23 type  1   force =     0.01145495   -0.01194149    0.00334920
     atom   24 type  1   force =     0.01037108    0.00001916    0.00208665
     atom   25 type  1   force =     0.00608203   -0.01011792    0.00001708
     atom   26 type  1   force =     0.00205154    0.00232006   -0.00997797
     atom   27 type  1   force =     0.00083852    0.00337188   -0.01078224
     atom   28 type  1   force =    -0.00717817   -0.00254070    0.00290385
     atom   29 type  1   force =     0.00654284   -0.01011292   -0.00414095
     atom   30 type  1   force =     0.00534034   -0.01034212    0.00255457
     atom   31 type  1   force =    -0.01140467    0.00560791   -0.00445511
     atom   32 type  1   force =     0.00067313   -0.00632644    0.00352089

     Total force =     0.081974     Total SCF correction =     0.000211


     Computing stress (Cartesian axis) and pressure

          total   stress  (Ry/bohr**3)                   (kbar)     P=        3.23
   0.00002128  -0.00000059   0.00000282            3.13       -0.09        0.41
  -0.00000059   0.00002205   0.00000195           -0.09        3.24        0.29
   0.00000282   0.00000195   0.00002248            0.41        0.29        3.31


     Writing output data file /scratch/bxp912/ru01_0047.save/
 
     init_run     :     94.58s CPU     96.63s WALL (       1 calls)
     electrons    :   4097.20s CPU   4150.66s WALL (       1 calls)
     forces       :     54.53s CPU     54.88s WALL (       1 calls)
     stress       :    325.23s CPU    327.68s WALL (       1 calls)

     Called by init_run:
     wfcinit      :     93.86s CPU     95.83s WALL (       1 calls)
     potinit      :      0.14s CPU      0.15s WALL (       1 calls)
     hinit0       :      0.42s CPU      0.43s WALL (       1 calls)

     Called by electrons:
     c_bands      :   3655.64s CPU   3700.59s WALL (      12 calls)
     sum_band     :    439.67s CPU    447.96s WALL (      12 calls)
     v_of_rho     :      0.17s CPU      0.19s WALL (      12 calls)
     newd         :      0.41s CPU      0.51s WALL (      12 calls)
     PAW_pot      :      1.11s CPU      1.18s WALL (      12 calls)
     mix_rho      :      0.16s CPU      0.18s WALL (      12 calls)

     Called by c_bands:
     init_us_2    :     17.66s CPU     18.14s WALL (    9855 calls)
     cegterg      :   3589.83s CPU   3631.51s WALL (    4380 calls)

     Called by *egterg:
     cdiaghg      :    446.08s CPU    448.76s WALL (   17161 calls)
     h_psi        :   2000.62s CPU   2031.01s WALL (   17891 calls)
     s_psi        :    163.77s CPU    164.97s WALL (   17891 calls)
     g_psi        :      3.96s CPU      4.03s WALL (   13146 calls)

     Called by h_psi:
     h_psi:calbec :    296.41s CPU    298.75s WALL (   17891 calls)
     vloc_psi     :   1538.28s CPU   1563.84s WALL (   17891 calls)
     add_vuspsi   :    155.87s CPU    158.27s WALL (   17891 calls)

     General routines
     calbec       :    504.89s CPU    508.61s WALL (   24096 calls)
     fft          :      0.48s CPU      0.50s WALL (     180 calls)
     ffts         :      0.11s CPU      0.12s WALL (     208 calls)
     fftw         :   1769.56s CPU   1798.63s WALL ( 8364234 calls)
     interpolate  :      0.13s CPU      0.13s WALL (      12 calls)
 
     Parallel routines
     fft_scatt_xy :    144.49s CPU    146.78s WALL ( 8364622 calls)
     fft_scatt_yz :   1376.78s CPU   1399.84s WALL ( 8364622 calls)
 
     PWSCF        :      1h17m CPU      1h18m WALL

 
   This run was terminated on:  10:10: 4  14Mar2022            

=------------------------------------------------------------------------------=
   JOB DONE.
=------------------------------------------------------------------------------=
