
     Program PWSCF v.6.7MaX starts on 14Mar2022 at 10:10: 8 

     This program is part of the open-source Quantum ESPRESSO suite
     for quantum simulation of materials; please cite
         "P. Giannozzi et al., J. Phys.:Condens. Matter 21 395502 (2009);
         "P. Giannozzi et al., J. Phys.:Condens. Matter 29 465901 (2017);
          URL http://www.quantum-espresso.org", 
     in publications or presentations arising from this work. More details at
     http://www.quantum-espresso.org/quote

     Parallel version (MPI & OpenMP), running on      72 processor cores
     Number of MPI processes:                72
     Threads/MPI process:                     1

     MPI processes distributed on     1 nodes
     R & G space division:  proc/nbgrp/npool/nimage =      72
     Reading input from ru_0048.in
Warning: card &CELL ignored
Warning: card CELL_DYNAMICS = 'BFGS', ignored
Warning: card CELL_FACTOR = 2.0, ignored
Warning: card PRESS = 0.0, ignored
Warning: card / ignored

     Current dimensions of program PWSCF are:
     Max number of different atomic species (ntypx) = 10
     Max number of k-points (npk) =  40000
     Max angular momentum in pseudopotentials (lmaxx) =  3
     file Ru.pbe-spn-kjpaw_psl.1.0.0.UPF: wavefunction(s)  4D renormalized

     Subspace diagonalization in iterative solution of the eigenvalue problem:
     one sub-group per band group will be used
     ELPA distributed-memory algorithm (size of sub-group:  8*  8 procs)

 
     Parallelization info
     --------------------
     sticks:   dense  smooth     PW     G-vecs:    dense   smooth      PW
     Min          98      65     17                 6232     3345     475
     Max          99      67     18                 6237     3351     482
     Sum        7089    4693   1281               448855   241089   34457
 


     bravais-lattice index     =            0
     lattice parameter (alat)  =      14.3940  a.u.
     unit-cell volume          =    2982.2680 (a.u.)^3
     number of atoms/cell      =           32
     number of atomic types    =            1
     number of electrons       =       512.00
     number of Kohn-Sham states=          307
     kinetic-energy cutoff     =      71.0000  Ry
     charge density cutoff     =     430.0000  Ry
     scf convergence threshold =      1.0E-08
     mixing beta               =       0.3000
     number of iterations used =           10  local-TF  mixing
     Exchange-correlation= SLA  PW   PBX  PBC
                           (   1   4   3   4   0   0   0)

     celldm(1)=  14.394024  celldm(2)=   0.000000  celldm(3)=   0.000000
     celldm(4)=   0.000000  celldm(5)=   0.000000  celldm(6)=   0.000000

     crystal axes: (cart. coord. in units of alat)
               a(1) = (   1.000000   0.000000   0.000000 )  
               a(2) = (   0.000000   1.000000   0.000000 )  
               a(3) = (   0.000000   0.000000   1.000000 )  

     reciprocal axes: (cart. coord. in units 2 pi/alat)
               b(1) = (  1.000000  0.000000  0.000000 )  
               b(2) = (  0.000000  1.000000  0.000000 )  
               b(3) = (  0.000000  0.000000  1.000000 )  


     PseudoPot. # 1 for Ru read from file:
     /rds/homes/b/bxp912/pp/Ru.pbe-spn-kjpaw_psl.1.0.0.UPF
     MD5 check sum: 0ae1f594dea09af7be8575c3a481d1ae
     Pseudo is Projector augmented-wave + core cor, Zval = 16.0
     Generated using "atomic" code by A. Dal Corso  v.5.1
     Shape of augmentation charge: PSQ
     Using radial grid of 1233 points,  6 beta functions with: 
                l(1) =   0
                l(2) =   0
                l(3) =   1
                l(4) =   1
                l(5) =   2
                l(6) =   2
     Q(r) pseudized with 0 coefficients 


     atomic species   valence    mass     pseudopotential
        Ru            16.00   101.07000     Ru( 1.00)

     No symmetry found



   Cartesian axes

     site n.     atom                  positions (alat units)
         1           Ru  tau(   1) = (   0.9997640   0.0029390   0.0015360  )
         2           Ru  tau(   2) = (   0.2508890   0.2585560   0.0032930  )
         3           Ru  tau(   3) = (   0.2465420   0.9975530   0.2475500  )
         4           Ru  tau(   4) = (   0.9954450   0.2480480   0.2571060  )
         5           Ru  tau(   5) = (   0.9955840   0.0004850   0.4918610  )
         6           Ru  tau(   6) = (   0.2485610   0.2494100   0.4974650  )
         7           Ru  tau(   7) = (   0.2506660   0.9956670   0.7445020  )
         8           Ru  tau(   8) = (   0.0023810   0.2493310   0.7430860  )
         9           Ru  tau(   9) = (   0.9975920   0.5004710   0.9980280  )
        10           Ru  tau(  10) = (   0.2484490   0.7603580   0.0034480  )
        11           Ru  tau(  11) = (   0.2407980   0.4992160   0.2473340  )
        12           Ru  tau(  12) = (   0.9993830   0.7550900   0.2370590  )
        13           Ru  tau(  13) = (   0.0005000   0.4993530   0.4979560  )
        14           Ru  tau(  14) = (   0.2515370   0.7601340   0.5054630  )
        15           Ru  tau(  15) = (   0.2498470   0.4960320   0.7398380  )
        16           Ru  tau(  16) = (   0.0060750   0.7514320   0.7513820  )
        17           Ru  tau(  17) = (   0.4988740   0.0044540   0.9951960  )
        18           Ru  tau(  18) = (   0.7605530   0.2556070   0.9993180  )
        19           Ru  tau(  19) = (   0.7511300   0.0008610   0.2448390  )
        20           Ru  tau(  20) = (   0.5004420   0.2473960   0.2532910  )
        21           Ru  tau(  21) = (   0.4969170   0.9998710   0.5000460  )
        22           Ru  tau(  22) = (   0.7495480   0.2549160   0.5061830  )
        23           Ru  tau(  23) = (   0.7511000   0.9986100   0.7547020  )
        24           Ru  tau(  24) = (   0.5050220   0.2494000   0.7517190  )
        25           Ru  tau(  25) = (   0.4959120   0.5045200   0.0007750  )
        26           Ru  tau(  26) = (   0.7455550   0.7466890   0.0043620  )
        27           Ru  tau(  27) = (   0.7436980   0.5077350   0.2484410  )
        28           Ru  tau(  28) = (   0.5011860   0.7446100   0.2463760  )
        29           Ru  tau(  29) = (   0.4984370   0.5039850   0.4976760  )
        30           Ru  tau(  30) = (   0.7479800   0.7535800   0.4975210  )
        31           Ru  tau(  31) = (   0.7556300   0.4989480   0.7478000  )
        32           Ru  tau(  32) = (   0.4927210   0.7513250   0.7410250  )

     number of k points=   365  Marzari-Vanderbilt smearing, width (Ry)=  0.0400

     Number of k-points >= 100: set verbosity='high' to print them.

     Dense  grid:   448855 G-vectors     FFT dimensions: (  96,  96,  96)

     Smooth grid:   241089 G-vectors     FFT dimensions: (  80,  80,  80)

     Estimated max dynamical RAM per process >     753.03 MB

     Estimated total dynamical RAM >      52.95 GB

     Check: negative core charge=   -0.000002

     Initial potential from superposition of free atoms

     starting charge  511.97959, renormalised to  512.00000
     Starting wfcs are  320 randomized atomic wfcs
     Checking if some PAW data can be deallocated... 

     total cpu time spent up to now is      101.6 secs

     Self-consistent Calculation

     iteration #  1     ecut=    71.00 Ry     beta= 0.30
     Davidson diagonalization with overlap
     ethr =  1.00E-02,  avg # of iterations =  3.7

     Threshold (ethr) on eigenvalues was too large:
     Diagonalizing with lowered threshold

     Davidson diagonalization with overlap
     ethr =  9.32E-05,  avg # of iterations =  6.1

     total cpu time spent up to now is      827.8 secs

     total energy              =  -13813.34397230 Ry
     estimated scf accuracy    <       0.68236188 Ry

     iteration #  2     ecut=    71.00 Ry     beta= 0.30
     Davidson diagonalization with overlap
     ethr =  1.33E-04,  avg # of iterations =  1.0

     total cpu time spent up to now is     1079.0 secs

     total energy              =  -13813.20867277 Ry
     estimated scf accuracy    <       0.31822836 Ry

     iteration #  3     ecut=    71.00 Ry     beta= 0.30
     Davidson diagonalization with overlap
     ethr =  6.22E-05,  avg # of iterations =  2.1

     total cpu time spent up to now is     1405.6 secs

     total energy              =  -13813.26534247 Ry
     estimated scf accuracy    <       0.00468820 Ry

     iteration #  4     ecut=    71.00 Ry     beta= 0.30
     Davidson diagonalization with overlap
     c_bands:  1 eigenvalues not converged
     c_bands:  1 eigenvalues not converged
     c_bands:  1 eigenvalues not converged
     c_bands:  1 eigenvalues not converged
     c_bands:  1 eigenvalues not converged
     c_bands:  1 eigenvalues not converged
     c_bands:  1 eigenvalues not converged
     c_bands:  1 eigenvalues not converged
     ethr =  9.16E-07,  avg # of iterations =  5.6

     total cpu time spent up to now is     1825.8 secs

     total energy              =  -13813.26398571 Ry
     estimated scf accuracy    <       0.00174276 Ry

     iteration #  5     ecut=    71.00 Ry     beta= 0.30
     Davidson diagonalization with overlap
     ethr =  3.40E-07,  avg # of iterations =  2.0

     total cpu time spent up to now is     2152.7 secs

     total energy              =  -13813.26427440 Ry
     estimated scf accuracy    <       0.00022143 Ry

     iteration #  6     ecut=    71.00 Ry     beta= 0.30
     Davidson diagonalization with overlap
     ethr =  4.32E-08,  avg # of iterations =  2.0

     total cpu time spent up to now is     2479.1 secs

     total energy              =  -13813.26427587 Ry
     estimated scf accuracy    <       0.00001670 Ry

     iteration #  7     ecut=    71.00 Ry     beta= 0.30
     Davidson diagonalization with overlap
     ethr =  3.26E-09,  avg # of iterations =  2.6

     total cpu time spent up to now is     2857.6 secs

     total energy              =  -13813.26427650 Ry
     estimated scf accuracy    <       0.00000616 Ry

     iteration #  8     ecut=    71.00 Ry     beta= 0.30
     Davidson diagonalization with overlap
     ethr =  1.20E-09,  avg # of iterations =  2.1

     total cpu time spent up to now is     3228.8 secs

     total energy              =  -13813.26427721 Ry
     estimated scf accuracy    <       0.00000043 Ry

     iteration #  9     ecut=    71.00 Ry     beta= 0.30
     Davidson diagonalization with overlap
     ethr =  8.41E-11,  avg # of iterations =  2.7

     total cpu time spent up to now is     3572.5 secs

     total energy              =  -13813.26427735 Ry
     estimated scf accuracy    <       0.00000017 Ry

     iteration # 10     ecut=    71.00 Ry     beta= 0.30
     Davidson diagonalization with overlap
     ethr =  3.36E-11,  avg # of iterations =  2.0

     total cpu time spent up to now is     3944.2 secs

     total energy              =  -13813.26427736 Ry
     estimated scf accuracy    <       0.00000002 Ry

     iteration # 11     ecut=    71.00 Ry     beta= 0.30
     Davidson diagonalization with overlap
     ethr =  4.26E-12,  avg # of iterations =  2.6

     total cpu time spent up to now is     4278.0 secs

     End of self-consistent calculation

     Number of k-points >= 100: set verbosity='high' to print the bands.

     the Fermi energy is    23.1683 ev

!    total energy              =  -13813.26427737 Ry

     total all-electron energy =   -289989.654617 Ry
     estimated scf accuracy    <          1.4E-09 Ry
     smearing contrib. (-TS)   =       0.01665047 Ry
     internal energy E=F+TS    =  -13813.28092784 Ry

     The total energy is F=E-TS. E is the sum of the following terms:
     one-electron contribution =   -1000.08641708 Ry
     hartree contribution      =     919.01376566 Ry
     xc contribution           =    -928.21800907 Ry
     ewald contribution        =   -5214.54215881 Ry
     one-center paw contrib.   =   -7589.44810853 Ry

     convergence has been achieved in  11 iterations

     Forces acting on atoms (cartesian axes, Ry/au):

     atom    1 type  1   force =    -0.00461517    0.00098312   -0.01206849
     atom    2 type  1   force =    -0.00395872   -0.01680353   -0.00855080
     atom    3 type  1   force =     0.01039932    0.01330454    0.00322179
     atom    4 type  1   force =     0.01065552    0.01051418   -0.02235460
     atom    5 type  1   force =     0.00788341   -0.00326688    0.02229790
     atom    6 type  1   force =     0.01212037    0.01193844    0.00572466
     atom    7 type  1   force =    -0.00102370    0.02147370    0.01348331
     atom    8 type  1   force =    -0.00914910    0.00706271    0.01462366
     atom    9 type  1   force =     0.00626703    0.00348858   -0.00102756
     atom   10 type  1   force =     0.01468265   -0.02316694   -0.01455460
     atom   11 type  1   force =     0.02657336    0.00617755   -0.00236330
     atom   12 type  1   force =    -0.00512686   -0.01755280    0.02666477
     atom   13 type  1   force =    -0.00669278    0.00643350    0.00582627
     atom   14 type  1   force =    -0.01702805   -0.02692271   -0.02238103
     atom   15 type  1   force =     0.00193124    0.00580489    0.02117885
     atom   16 type  1   force =    -0.01943915   -0.00133120   -0.00759033
     atom   17 type  1   force =    -0.00173588   -0.00668830    0.00965605
     atom   18 type  1   force =    -0.03133615   -0.00857351   -0.00326885
     atom   19 type  1   force =    -0.01487262    0.00296964    0.00762520
     atom   20 type  1   force =    -0.00016774    0.01164830   -0.01918511
     atom   21 type  1   force =     0.01244955    0.01005138   -0.00303574
     atom   22 type  1   force =    -0.00222095   -0.00985066   -0.01759415
     atom   23 type  1   force =    -0.00251878    0.00581554   -0.01682103
     atom   24 type  1   force =    -0.01522016    0.00655861   -0.00176999
     atom   25 type  1   force =     0.00855042   -0.00970569   -0.00828342
     atom   26 type  1   force =     0.00880111    0.02003101   -0.01680720
     atom   27 type  1   force =     0.01741086   -0.02817825    0.00123617
     atom   28 type  1   force =    -0.01262165    0.02254091    0.00963179
     atom   29 type  1   force =     0.00065085   -0.01040850    0.00395915
     atom   30 type  1   force =     0.00284042   -0.00603242    0.00953245
     atom   31 type  1   force =    -0.02272360    0.00844628    0.00029512
     atom   32 type  1   force =     0.02923499   -0.00676148    0.02269906

     Total force =     0.131183     Total SCF correction =     0.000216


     Computing stress (Cartesian axis) and pressure

          total   stress  (Ry/bohr**3)                   (kbar)     P=       10.11
   0.00006205   0.00000339   0.00000076            9.13        0.50        0.11
   0.00000339   0.00006914   0.00001923            0.50       10.17        2.83
   0.00000076   0.00001923   0.00007489            0.11        2.83       11.02


     Writing output data file /scratch/bxp912/ru01_0048.save/
 
     init_run     :     98.36s CPU    100.49s WALL (       1 calls)
     electrons    :   4121.87s CPU   4176.43s WALL (       1 calls)
     forces       :     54.19s CPU     54.72s WALL (       1 calls)
     stress       :    323.82s CPU    328.38s WALL (       1 calls)

     Called by init_run:
     wfcinit      :     97.41s CPU     99.47s WALL (       1 calls)
     potinit      :      0.13s CPU      0.15s WALL (       1 calls)
     hinit0       :      0.51s CPU      0.52s WALL (       1 calls)

     Called by electrons:
     c_bands      :   3681.50s CPU   3726.71s WALL (      12 calls)
     sum_band     :    438.90s CPU    448.01s WALL (      12 calls)
     v_of_rho     :      0.16s CPU      0.18s WALL (      12 calls)
     newd         :      0.25s CPU      0.38s WALL (      12 calls)
     PAW_pot      :      0.97s CPU      1.04s WALL (      12 calls)
     mix_rho      :      0.15s CPU      0.17s WALL (      12 calls)

     Called by c_bands:
     init_us_2    :     18.59s CPU     19.08s WALL (    9855 calls)
     cegterg      :   3615.57s CPU   3657.26s WALL (    4380 calls)

     Called by *egterg:
     cdiaghg      :    431.48s CPU    434.12s WALL (   16667 calls)
     h_psi        :   2036.57s CPU   2067.88s WALL (   17397 calls)
     s_psi        :    166.97s CPU    168.19s WALL (   17397 calls)
     g_psi        :      4.30s CPU      4.37s WALL (   12652 calls)

     Called by h_psi:
     h_psi:calbec :    298.98s CPU    301.20s WALL (   17397 calls)
     vloc_psi     :   1568.19s CPU   1594.60s WALL (   17397 calls)
     add_vuspsi   :    159.33s CPU    161.90s WALL (   17397 calls)

     General routines
     calbec       :    495.73s CPU    499.77s WALL (   23602 calls)
     fft          :      0.19s CPU      0.21s WALL (     180 calls)
     ffts         :      0.10s CPU      0.11s WALL (     210 calls)
     fftw         :   1797.78s CPU   1828.06s WALL ( 8467716 calls)
     interpolate  :      0.03s CPU      0.04s WALL (      12 calls)
 
     Parallel routines
     fft_scatt_xy :    145.59s CPU    147.96s WALL ( 8468106 calls)
     fft_scatt_yz :   1400.99s CPU   1425.11s WALL ( 8468106 calls)
 
     PWSCF        :      1h17m CPU      1h19m WALL

 
   This run was terminated on:  11:29:22  14Mar2022            

=------------------------------------------------------------------------------=
   JOB DONE.
=------------------------------------------------------------------------------=
