
     Program PWSCF v.6.7MaX starts on 14Mar2022 at  9:34:47 

     This program is part of the open-source Quantum ESPRESSO suite
     for quantum simulation of materials; please cite
         "P. Giannozzi et al., J. Phys.:Condens. Matter 21 395502 (2009);
         "P. Giannozzi et al., J. Phys.:Condens. Matter 29 465901 (2017);
          URL http://www.quantum-espresso.org", 
     in publications or presentations arising from this work. More details at
     http://www.quantum-espresso.org/quote

     Parallel version (MPI & OpenMP), running on      72 processor cores
     Number of MPI processes:                72
     Threads/MPI process:                     1

     MPI processes distributed on     1 nodes
     R & G space division:  proc/nbgrp/npool/nimage =      72
     Reading input from ru_0057.in
Warning: card &CELL ignored
Warning: card CELL_DYNAMICS = 'BFGS', ignored
Warning: card CELL_FACTOR = 2.0, ignored
Warning: card PRESS = 0.0, ignored
Warning: card / ignored

     Current dimensions of program PWSCF are:
     Max number of different atomic species (ntypx) = 10
     Max number of k-points (npk) =  40000
     Max angular momentum in pseudopotentials (lmaxx) =  3
     file Ru.pbe-spn-kjpaw_psl.1.0.0.UPF: wavefunction(s)  4D renormalized

     Subspace diagonalization in iterative solution of the eigenvalue problem:
     one sub-group per band group will be used
     ELPA distributed-memory algorithm (size of sub-group:  8*  8 procs)

 
     Parallelization info
     --------------------
     sticks:   dense  smooth     PW     G-vecs:    dense   smooth      PW
     Min          98      65     17                 6232     3345     475
     Max          99      67     18                 6237     3351     482
     Sum        7089    4693   1281               448855   241089   34457
 


     bravais-lattice index     =            0
     lattice parameter (alat)  =      14.3940  a.u.
     unit-cell volume          =    2982.2680 (a.u.)^3
     number of atoms/cell      =           32
     number of atomic types    =            1
     number of electrons       =       512.00
     number of Kohn-Sham states=          307
     kinetic-energy cutoff     =      71.0000  Ry
     charge density cutoff     =     430.0000  Ry
     scf convergence threshold =      1.0E-08
     mixing beta               =       0.3000
     number of iterations used =           10  local-TF  mixing
     Exchange-correlation= SLA  PW   PBX  PBC
                           (   1   4   3   4   0   0   0)

     celldm(1)=  14.394024  celldm(2)=   0.000000  celldm(3)=   0.000000
     celldm(4)=   0.000000  celldm(5)=   0.000000  celldm(6)=   0.000000

     crystal axes: (cart. coord. in units of alat)
               a(1) = (   1.000000   0.000000   0.000000 )  
               a(2) = (   0.000000   1.000000   0.000000 )  
               a(3) = (   0.000000   0.000000   1.000000 )  

     reciprocal axes: (cart. coord. in units 2 pi/alat)
               b(1) = (  1.000000  0.000000  0.000000 )  
               b(2) = (  0.000000  1.000000  0.000000 )  
               b(3) = (  0.000000  0.000000  1.000000 )  


     PseudoPot. # 1 for Ru read from file:
     /rds/homes/b/bxp912/pp/Ru.pbe-spn-kjpaw_psl.1.0.0.UPF
     MD5 check sum: 0ae1f594dea09af7be8575c3a481d1ae
     Pseudo is Projector augmented-wave + core cor, Zval = 16.0
     Generated using "atomic" code by A. Dal Corso  v.5.1
     Shape of augmentation charge: PSQ
     Using radial grid of 1233 points,  6 beta functions with: 
                l(1) =   0
                l(2) =   0
                l(3) =   1
                l(4) =   1
                l(5) =   2
                l(6) =   2
     Q(r) pseudized with 0 coefficients 


     atomic species   valence    mass     pseudopotential
        Ru            16.00   101.07000     Ru( 1.00)

     No symmetry found



   Cartesian axes

     site n.     atom                  positions (alat units)
         1           Ru  tau(   1) = (   0.9992030   0.0005050   0.9947380  )
         2           Ru  tau(   2) = (   0.2510850   0.2491310   0.0010050  )
         3           Ru  tau(   3) = (   0.2512590   0.9972000   0.2519780  )
         4           Ru  tau(   4) = (   0.0021780   0.2482840   0.2476140  )
         5           Ru  tau(   5) = (   0.9998050   0.9995330   0.4990000  )
         6           Ru  tau(   6) = (   0.2491960   0.2485760   0.5007460  )
         7           Ru  tau(   7) = (   0.2507200   0.9995900   0.7471180  )
         8           Ru  tau(   8) = (   0.9991120   0.2511640   0.7475550  )
         9           Ru  tau(   9) = (   0.9986730   0.5004150   0.0018430  )
        10           Ru  tau(  10) = (   0.2500680   0.7509620   0.0003520  )
        11           Ru  tau(  11) = (   0.2465530   0.4988250   0.2478780  )
        12           Ru  tau(  12) = (   0.0026530   0.7484620   0.2509000  )
        13           Ru  tau(  13) = (   0.9987150   0.5016790   0.4976430  )
        14           Ru  tau(  14) = (   0.2470060   0.7474150   0.5006840  )
        15           Ru  tau(  15) = (   0.2484620   0.5001150   0.7495370  )
        16           Ru  tau(  16) = (   0.0024380   0.7499730   0.7471860  )
        17           Ru  tau(  17) = (   0.5010750   0.0030470   0.9969430  )
        18           Ru  tau(  18) = (   0.7553760   0.2490580   0.0007600  )
        19           Ru  tau(  19) = (   0.7484810   0.9992380   0.2534810  )
        20           Ru  tau(  20) = (   0.5020410   0.2443950   0.2515900  )
        21           Ru  tau(  21) = (   0.4981690   0.9993910   0.5030640  )
        22           Ru  tau(  22) = (   0.7511360   0.2473700   0.4976830  )
        23           Ru  tau(  23) = (   0.7554850   0.9972000   0.7494760  )
        24           Ru  tau(  24) = (   0.4954740   0.2515990   0.7553540  )
        25           Ru  tau(  25) = (   0.5023490   0.4999560   0.9997790  )
        26           Ru  tau(  26) = (   0.7508390   0.7501170   0.0010210  )
        27           Ru  tau(  27) = (   0.7464430   0.5029340   0.2475470  )
        28           Ru  tau(  28) = (   0.5021030   0.7534960   0.2488830  )
        29           Ru  tau(  29) = (   0.4993790   0.5000930   0.5026790  )
        30           Ru  tau(  30) = (   0.7506360   0.7507980   0.4982650  )
        31           Ru  tau(  31) = (   0.7529740   0.5002250   0.7512770  )
        32           Ru  tau(  32) = (   0.4957300   0.7518040   0.7499160  )

     number of k points=   365  Marzari-Vanderbilt smearing, width (Ry)=  0.0400

     Number of k-points >= 100: set verbosity='high' to print them.

     Dense  grid:   448855 G-vectors     FFT dimensions: (  96,  96,  96)

     Smooth grid:   241089 G-vectors     FFT dimensions: (  80,  80,  80)

     Estimated max dynamical RAM per process >     753.03 MB

     Estimated total dynamical RAM >      52.95 GB

     Check: negative core charge=   -0.000002

     Initial potential from superposition of free atoms

     starting charge  511.97959, renormalised to  512.00000
     Starting wfcs are  320 randomized atomic wfcs
     Checking if some PAW data can be deallocated... 

     total cpu time spent up to now is      103.4 secs

     Self-consistent Calculation

     iteration #  1     ecut=    71.00 Ry     beta= 0.30
     Davidson diagonalization with overlap
     ethr =  1.00E-02,  avg # of iterations =  3.6

     Threshold (ethr) on eigenvalues was too large:
     Diagonalizing with lowered threshold

     Davidson diagonalization with overlap
     ethr =  8.74E-05,  avg # of iterations =  5.9

     total cpu time spent up to now is      826.4 secs

     total energy              =  -13813.36646720 Ry
     estimated scf accuracy    <       0.65425165 Ry

     iteration #  2     ecut=    71.00 Ry     beta= 0.30
     Davidson diagonalization with overlap
     ethr =  1.28E-04,  avg # of iterations =  1.0

     total cpu time spent up to now is     1081.6 secs

     total energy              =  -13813.23036010 Ry
     estimated scf accuracy    <       0.30500003 Ry

     iteration #  3     ecut=    71.00 Ry     beta= 0.30
     Davidson diagonalization with overlap
     ethr =  5.96E-05,  avg # of iterations =  2.4

     total cpu time spent up to now is     1414.0 secs

     total energy              =  -13813.29161134 Ry
     estimated scf accuracy    <       0.00211746 Ry

     iteration #  4     ecut=    71.00 Ry     beta= 0.30
     Davidson diagonalization with overlap
     c_bands:  1 eigenvalues not converged
     c_bands:  1 eigenvalues not converged
     ethr =  4.14E-07,  avg # of iterations =  5.2

     total cpu time spent up to now is     1804.3 secs

     total energy              =  -13813.29024617 Ry
     estimated scf accuracy    <       0.00110723 Ry

     iteration #  5     ecut=    71.00 Ry     beta= 0.30
     Davidson diagonalization with overlap
     ethr =  2.16E-07,  avg # of iterations =  2.4

     total cpu time spent up to now is     2178.8 secs

     total energy              =  -13813.29046893 Ry
     estimated scf accuracy    <       0.00025829 Ry

     iteration #  6     ecut=    71.00 Ry     beta= 0.30
     Davidson diagonalization with overlap
     ethr =  5.04E-08,  avg # of iterations =  2.0

     total cpu time spent up to now is     2465.0 secs

     total energy              =  -13813.29043740 Ry
     estimated scf accuracy    <       0.00002192 Ry

     iteration #  7     ecut=    71.00 Ry     beta= 0.30
     Davidson diagonalization with overlap
     ethr =  4.28E-09,  avg # of iterations =  3.5

     total cpu time spent up to now is     2889.8 secs

     total energy              =  -13813.29044900 Ry
     estimated scf accuracy    <       0.00001289 Ry

     iteration #  8     ecut=    71.00 Ry     beta= 0.30
     Davidson diagonalization with overlap
     ethr =  2.52E-09,  avg # of iterations =  2.0

     total cpu time spent up to now is     3189.1 secs

     total energy              =  -13813.29044966 Ry
     estimated scf accuracy    <       0.00000109 Ry

     iteration #  9     ecut=    71.00 Ry     beta= 0.30
     Davidson diagonalization with overlap
     ethr =  2.13E-10,  avg # of iterations =  3.2

     total cpu time spent up to now is     3531.0 secs

     total energy              =  -13813.29044998 Ry
     estimated scf accuracy    <       0.00000015 Ry

     iteration # 10     ecut=    71.00 Ry     beta= 0.30
     Davidson diagonalization with overlap
     ethr =  2.87E-11,  avg # of iterations =  2.1

     total cpu time spent up to now is     3871.4 secs

     total energy              =  -13813.29045001 Ry
     estimated scf accuracy    <       0.00000002 Ry

     iteration # 11     ecut=    71.00 Ry     beta= 0.30
     Davidson diagonalization with overlap
     ethr =  4.84E-12,  avg # of iterations =  3.0

     total cpu time spent up to now is     4254.8 secs

     End of self-consistent calculation

     Number of k-points >= 100: set verbosity='high' to print the bands.

     the Fermi energy is    23.1576 ev

!    total energy              =  -13813.29045002 Ry

     total all-electron energy =   -289989.680789 Ry
     estimated scf accuracy    <          2.3E-09 Ry
     smearing contrib. (-TS)   =       0.01998243 Ry
     internal energy E=F+TS    =  -13813.31043245 Ry

     The total energy is F=E-TS. E is the sum of the following terms:
     one-electron contribution =    -994.19397780 Ry
     hartree contribution      =     916.05802734 Ry
     xc contribution           =    -928.14466415 Ry
     ewald contribution        =   -5217.58465635 Ry
     one-center paw contrib.   =   -7589.44516149 Ry

     convergence has been achieved in  11 iterations

     Forces acting on atoms (cartesian axes, Ry/au):

     atom    1 type  1   force =     0.00372973   -0.00117006    0.01526573
     atom    2 type  1   force =    -0.00036629    0.00159173   -0.00223431
     atom    3 type  1   force =    -0.00254853    0.00952483   -0.00665720
     atom    4 type  1   force =    -0.00624729    0.00399912    0.00757539
     atom    5 type  1   force =     0.00069582    0.00265604   -0.00086289
     atom    6 type  1   force =     0.00713778    0.00560774   -0.00229468
     atom    7 type  1   force =     0.00147064    0.00120191    0.00984511
     atom    8 type  1   force =    -0.00074356   -0.00204559    0.00656616
     atom    9 type  1   force =     0.00466245    0.00032461   -0.00558781
     atom   10 type  1   force =     0.00410993   -0.00474077   -0.00084393
     atom   11 type  1   force =     0.01204448    0.00175308    0.00405112
     atom   12 type  1   force =    -0.00793311    0.00108290   -0.00667130
     atom   13 type  1   force =     0.00187502   -0.00781813    0.00429718
     atom   14 type  1   force =     0.01137494    0.00333933   -0.00228083
     atom   15 type  1   force =     0.00634639   -0.00437562    0.00076690
     atom   16 type  1   force =    -0.00987533   -0.00187155    0.00659838
     atom   17 type  1   force =    -0.00197091   -0.00858008    0.00885247
     atom   18 type  1   force =    -0.01576173    0.00369733   -0.00363899
     atom   19 type  1   force =     0.00370802    0.00257916   -0.01146104
     atom   20 type  1   force =    -0.00425870    0.01734030   -0.00492757
     atom   21 type  1   force =     0.00485037    0.00249060   -0.01122213
     atom   22 type  1   force =    -0.00427802    0.00759348    0.00682342
     atom   23 type  1   force =    -0.01630971    0.00931798    0.00173754
     atom   24 type  1   force =     0.01448429   -0.00065076   -0.01741215
     atom   25 type  1   force =    -0.00773765   -0.00009596    0.00226691
     atom   26 type  1   force =    -0.00373434   -0.00197476   -0.00523016
     atom   27 type  1   force =     0.00620221   -0.01189884    0.00779717
     atom   28 type  1   force =    -0.00262470   -0.01250676    0.00401657
     atom   29 type  1   force =     0.00260013   -0.00038204   -0.00797673
     atom   30 type  1   force =    -0.00440138   -0.00623870    0.00528392
     atom   31 type  1   force =    -0.01011149   -0.00164290   -0.00428376
     atom   32 type  1   force =     0.01361054   -0.00810764    0.00184149

     Total force =     0.068501     Total SCF correction =     0.000120


     Computing stress (Cartesian axis) and pressure

          total   stress  (Ry/bohr**3)                   (kbar)     P=        2.48
   0.00001831  -0.00000563  -0.00000116            2.69       -0.83       -0.17
  -0.00000563   0.00001523  -0.00000263           -0.83        2.24       -0.39
  -0.00000116  -0.00000263   0.00001694           -0.17       -0.39        2.49


     Writing output data file /scratch/bxp912/ru01_0057.save/
 
     init_run     :     95.53s CPU     97.61s WALL (       1 calls)
     electrons    :   4099.34s CPU   4151.49s WALL (       1 calls)
     forces       :     53.23s CPU     54.47s WALL (       1 calls)
     stress       :    331.36s CPU    335.07s WALL (       1 calls)

     Called by init_run:
     wfcinit      :     94.97s CPU     96.96s WALL (       1 calls)
     potinit      :      0.22s CPU      0.24s WALL (       1 calls)
     hinit0       :      0.08s CPU      0.08s WALL (       1 calls)

     Called by electrons:
     c_bands      :   3654.64s CPU   3697.92s WALL (      12 calls)
     sum_band     :    443.16s CPU    451.81s WALL (      12 calls)
     v_of_rho     :      0.26s CPU      0.28s WALL (      12 calls)
     newd         :      0.27s CPU      0.39s WALL (      12 calls)
     PAW_pot      :      0.98s CPU      1.05s WALL (      12 calls)
     mix_rho      :      0.17s CPU      0.20s WALL (      12 calls)

     Called by c_bands:
     init_us_2    :     21.19s CPU     21.70s WALL (    9855 calls)
     cegterg      :   3589.17s CPU   3629.35s WALL (    4380 calls)

     Called by *egterg:
     cdiaghg      :    437.72s CPU    440.84s WALL (   17303 calls)
     h_psi        :   1993.83s CPU   2023.71s WALL (   18033 calls)
     s_psi        :    162.88s CPU    164.10s WALL (   18033 calls)
     g_psi        :      4.17s CPU      4.24s WALL (   13288 calls)

     Called by h_psi:
     h_psi:calbec :    297.86s CPU    299.96s WALL (   18033 calls)
     vloc_psi     :   1527.82s CPU   1552.68s WALL (   18033 calls)
     add_vuspsi   :    157.14s CPU    159.97s WALL (   18033 calls)

     General routines
     calbec       :    473.71s CPU    477.74s WALL (   24238 calls)
     fft          :      0.42s CPU      0.44s WALL (     180 calls)
     ffts         :      0.10s CPU      0.11s WALL (     202 calls)
     fftw         :   1760.24s CPU   1788.93s WALL ( 8288420 calls)
     interpolate  :      0.02s CPU      0.03s WALL (      12 calls)
 
     Parallel routines
     fft_scatt_xy :    143.59s CPU    145.91s WALL ( 8288802 calls)
     fft_scatt_yz :   1370.03s CPU   1392.82s WALL ( 8288802 calls)
 
     PWSCF        :      1h17m CPU      1h18m WALL

 
   This run was terminated on:  10:53:44  14Mar2022            

=------------------------------------------------------------------------------=
   JOB DONE.
=------------------------------------------------------------------------------=
