
     Program PWSCF v.6.7MaX starts on  8Mar2022 at 14:10:27 

     This program is part of the open-source Quantum ESPRESSO suite
     for quantum simulation of materials; please cite
         "P. Giannozzi et al., J. Phys.:Condens. Matter 21 395502 (2009);
         "P. Giannozzi et al., J. Phys.:Condens. Matter 29 465901 (2017);
          URL http://www.quantum-espresso.org", 
     in publications or presentations arising from this work. More details at
     http://www.quantum-espresso.org/quote

     Parallel version (MPI & OpenMP), running on      72 processor cores
     Number of MPI processes:                72
     Threads/MPI process:                     1

     MPI processes distributed on     1 nodes
     R & G space division:  proc/nbgrp/npool/nimage =      72
     Reading input from ru_0046.in
Warning: card &CELL ignored
Warning: card CELL_DYNAMICS = 'BFGS', ignored
Warning: card CELL_FACTOR = 2.0, ignored
Warning: card PRESS = 0.0, ignored
Warning: card / ignored

     Current dimensions of program PWSCF are:
     Max number of different atomic species (ntypx) = 10
     Max number of k-points (npk) =  40000
     Max angular momentum in pseudopotentials (lmaxx) =  3
     file Ru.pbe-spn-kjpaw_psl.1.0.0.UPF: wavefunction(s)  4D renormalized

     Subspace diagonalization in iterative solution of the eigenvalue problem:
     one sub-group per band group will be used
     ELPA distributed-memory algorithm (size of sub-group:  8*  8 procs)

 
     Parallelization info
     --------------------
     sticks:   dense  smooth     PW     G-vecs:    dense   smooth      PW
     Min          98      65     17                 6232     3345     475
     Max          99      67     18                 6237     3351     482
     Sum        7089    4693   1281               448855   241089   34457
 


     bravais-lattice index     =            0
     lattice parameter (alat)  =      14.3940  a.u.
     unit-cell volume          =    2982.2680 (a.u.)^3
     number of atoms/cell      =           32
     number of atomic types    =            1
     number of electrons       =       512.00
     number of Kohn-Sham states=          307
     kinetic-energy cutoff     =      71.0000  Ry
     charge density cutoff     =     430.0000  Ry
     scf convergence threshold =      1.0E-08
     mixing beta               =       0.3000
     number of iterations used =           10  local-TF  mixing
     Exchange-correlation= SLA  PW   PBX  PBC
                           (   1   4   3   4   0   0   0)

     celldm(1)=  14.394024  celldm(2)=   0.000000  celldm(3)=   0.000000
     celldm(4)=   0.000000  celldm(5)=   0.000000  celldm(6)=   0.000000

     crystal axes: (cart. coord. in units of alat)
               a(1) = (   1.000000   0.000000   0.000000 )  
               a(2) = (   0.000000   1.000000   0.000000 )  
               a(3) = (   0.000000   0.000000   1.000000 )  

     reciprocal axes: (cart. coord. in units 2 pi/alat)
               b(1) = (  1.000000  0.000000  0.000000 )  
               b(2) = (  0.000000  1.000000  0.000000 )  
               b(3) = (  0.000000  0.000000  1.000000 )  


     PseudoPot. # 1 for Ru read from file:
     /rds/homes/b/bxp912/pp/Ru.pbe-spn-kjpaw_psl.1.0.0.UPF
     MD5 check sum: 0ae1f594dea09af7be8575c3a481d1ae
     Pseudo is Projector augmented-wave + core cor, Zval = 16.0
     Generated using "atomic" code by A. Dal Corso  v.5.1
     Shape of augmentation charge: PSQ
     Using radial grid of 1233 points,  6 beta functions with: 
                l(1) =   0
                l(2) =   0
                l(3) =   1
                l(4) =   1
                l(5) =   2
                l(6) =   2
     Q(r) pseudized with 0 coefficients 


     atomic species   valence    mass     pseudopotential
        Ru            16.00   101.07000     Ru( 1.00)

     No symmetry found



   Cartesian axes

     site n.     atom                  positions (alat units)
         1           Ru  tau(   1) = (   0.9936440   0.9972730   0.9955360  )
         2           Ru  tau(   2) = (   0.2436270   0.2536110   0.0044980  )
         3           Ru  tau(   3) = (   0.2471170   0.0001980   0.2482480  )
         4           Ru  tau(   4) = (   0.9949630   0.2494260   0.2438190  )
         5           Ru  tau(   5) = (   0.9933520   0.9932470   0.5026630  )
         6           Ru  tau(   6) = (   0.2444800   0.2484730   0.4981620  )
         7           Ru  tau(   7) = (   0.2503570   0.0044710   0.7457420  )
         8           Ru  tau(   8) = (   0.9954940   0.2490600   0.7473020  )
         9           Ru  tau(   9) = (   0.0014800   0.5020370   0.9979080  )
        10           Ru  tau(  10) = (   0.2546400   0.7549710   0.9951310  )
        11           Ru  tau(  11) = (   0.2457330   0.4970480   0.2454610  )
        12           Ru  tau(  12) = (   0.0056250   0.7470560   0.2473010  )
        13           Ru  tau(  13) = (   0.0035510   0.5013600   0.4977950  )
        14           Ru  tau(  14) = (   0.2551550   0.7554480   0.5043140  )
        15           Ru  tau(  15) = (   0.2479210   0.5018180   0.7529410  )
        16           Ru  tau(  16) = (   0.0053210   0.7494740   0.7489360  )
        17           Ru  tau(  17) = (   0.4925660   0.0004590   0.0055050  )
        18           Ru  tau(  18) = (   0.7503540   0.2483130   0.9993620  )
        19           Ru  tau(  19) = (   0.7487280   0.0035860   0.2530240  )
        20           Ru  tau(  20) = (   0.4977240   0.2510820   0.2487320  )
        21           Ru  tau(  21) = (   0.4989630   0.9973870   0.5016260  )
        22           Ru  tau(  22) = (   0.7503450   0.2561270   0.5026630  )
        23           Ru  tau(  23) = (   0.7481270   0.9987740   0.7495420  )
        24           Ru  tau(  24) = (   0.4997630   0.2577560   0.7461170  )
        25           Ru  tau(  25) = (   0.5026760   0.4925220   0.9992020  )
        26           Ru  tau(  26) = (   0.7529390   0.7490550   0.0062730  )
        27           Ru  tau(  27) = (   0.7516650   0.5009220   0.2505820  )
        28           Ru  tau(  28) = (   0.4999520   0.7522970   0.2490750  )
        29           Ru  tau(  29) = (   0.5002150   0.4970480   0.4947130  )
        30           Ru  tau(  30) = (   0.7512050   0.7484570   0.5025230  )
        31           Ru  tau(  31) = (   0.7509740   0.4979470   0.7520880  )
        32           Ru  tau(  32) = (   0.4987550   0.7511330   0.7494160  )

     number of k points=   365  Marzari-Vanderbilt smearing, width (Ry)=  0.0400

     Number of k-points >= 100: set verbosity='high' to print them.

     Dense  grid:   448855 G-vectors     FFT dimensions: (  96,  96,  96)

     Smooth grid:   241089 G-vectors     FFT dimensions: (  80,  80,  80)

     Estimated max dynamical RAM per process >     753.03 MB

     Estimated total dynamical RAM >      52.95 GB

     Check: negative core charge=   -0.000002

     Initial potential from superposition of free atoms

     starting charge  511.97959, renormalised to  512.00000
     Starting wfcs are  320 randomized atomic wfcs
     Checking if some PAW data can be deallocated... 

     total cpu time spent up to now is      101.0 secs

     Self-consistent Calculation

     iteration #  1     ecut=    71.00 Ry     beta= 0.30
     Davidson diagonalization with overlap
     ethr =  1.00E-02,  avg # of iterations =  3.6

     Threshold (ethr) on eigenvalues was too large:
     Diagonalizing with lowered threshold

     Davidson diagonalization with overlap
     ethr =  8.83E-05,  avg # of iterations =  6.1

     total cpu time spent up to now is      820.7 secs

     total energy              =  -13813.35601168 Ry
     estimated scf accuracy    <       0.65738184 Ry

     iteration #  2     ecut=    71.00 Ry     beta= 0.30
     Davidson diagonalization with overlap
     ethr =  1.28E-04,  avg # of iterations =  1.0

     total cpu time spent up to now is     1073.4 secs

     total energy              =  -13813.21904593 Ry
     estimated scf accuracy    <       0.30798020 Ry

     iteration #  3     ecut=    71.00 Ry     beta= 0.30
     Davidson diagonalization with overlap
     ethr =  6.02E-05,  avg # of iterations =  2.3

     total cpu time spent up to now is     1401.8 secs

     total energy              =  -13813.28013256 Ry
     estimated scf accuracy    <       0.00254381 Ry

     iteration #  4     ecut=    71.00 Ry     beta= 0.30
     Davidson diagonalization with overlap
     c_bands:  1 eigenvalues not converged
     c_bands:  1 eigenvalues not converged
     c_bands:  1 eigenvalues not converged
     c_bands:  1 eigenvalues not converged
     c_bands:  1 eigenvalues not converged
     c_bands:  1 eigenvalues not converged
     c_bands:  1 eigenvalues not converged
     ethr =  4.97E-07,  avg # of iterations =  5.7

     total cpu time spent up to now is     1795.0 secs

     total energy              =  -13813.27874790 Ry
     estimated scf accuracy    <       0.00127442 Ry

     iteration #  5     ecut=    71.00 Ry     beta= 0.30
     Davidson diagonalization with overlap
     ethr =  2.49E-07,  avg # of iterations =  2.1

     total cpu time spent up to now is     2128.2 secs

     total energy              =  -13813.27897965 Ry
     estimated scf accuracy    <       0.00023360 Ry

     iteration #  6     ecut=    71.00 Ry     beta= 0.30
     Davidson diagonalization with overlap
     ethr =  4.56E-08,  avg # of iterations =  2.0

     total cpu time spent up to now is     2452.6 secs

     total energy              =  -13813.27897040 Ry
     estimated scf accuracy    <       0.00001665 Ry

     iteration #  7     ecut=    71.00 Ry     beta= 0.30
     Davidson diagonalization with overlap
     ethr =  3.25E-09,  avg # of iterations =  2.7

     total cpu time spent up to now is     2834.7 secs

     total energy              =  -13813.27897107 Ry
     estimated scf accuracy    <       0.00000496 Ry

     iteration #  8     ecut=    71.00 Ry     beta= 0.30
     Davidson diagonalization with overlap
     ethr =  9.68E-10,  avg # of iterations =  2.0

     total cpu time spent up to now is     3207.4 secs

     total energy              =  -13813.27897182 Ry
     estimated scf accuracy    <       0.00000035 Ry

     iteration #  9     ecut=    71.00 Ry     beta= 0.30
     Davidson diagonalization with overlap
     ethr =  6.78E-11,  avg # of iterations =  2.3

     total cpu time spent up to now is     3487.4 secs

     total energy              =  -13813.27897191 Ry
     estimated scf accuracy    <       0.00000019 Ry

     iteration # 10     ecut=    71.00 Ry     beta= 0.30
     Davidson diagonalization with overlap
     ethr =  3.62E-11,  avg # of iterations =  2.1

     total cpu time spent up to now is     3858.3 secs

     total energy              =  -13813.27897196 Ry
     estimated scf accuracy    <       0.00000001 Ry

     iteration # 11     ecut=    71.00 Ry     beta= 0.30
     Davidson diagonalization with overlap
     ethr =  2.53E-12,  avg # of iterations =  3.6

     total cpu time spent up to now is     4235.8 secs

     End of self-consistent calculation

     Number of k-points >= 100: set verbosity='high' to print the bands.

     the Fermi energy is    23.1620 ev

!    total energy              =  -13813.27897196 Ry

     total all-electron energy =   -289989.669311 Ry
     estimated scf accuracy    <          1.2E-09 Ry
     smearing contrib. (-TS)   =       0.01886380 Ry
     internal energy E=F+TS    =  -13813.29783577 Ry

     The total energy is F=E-TS. E is the sum of the following terms:
     one-electron contribution =    -995.77132352 Ry
     hartree contribution      =     916.85718140 Ry
     xc contribution           =    -928.17114964 Ry
     ewald contribution        =   -5216.76630145 Ry
     one-center paw contrib.   =   -7589.44624256 Ry

     convergence has been achieved in  11 iterations

     Forces acting on atoms (cartesian axes, Ry/au):

     atom    1 type  1   force =     0.01699605    0.00555577    0.01466630
     atom    2 type  1   force =     0.01914264   -0.01008307   -0.01284127
     atom    3 type  1   force =     0.00419206   -0.00158065    0.00518633
     atom    4 type  1   force =     0.00961733    0.00087550    0.01440203
     atom    5 type  1   force =     0.01301515    0.01966591   -0.00629716
     atom    6 type  1   force =     0.01460438    0.00782244    0.00144568
     atom    7 type  1   force =    -0.00070766   -0.01168463    0.01013456
     atom    8 type  1   force =     0.01088729    0.00117369    0.00344816
     atom    9 type  1   force =    -0.01057813   -0.00676211    0.00191576
     atom   10 type  1   force =    -0.01302209   -0.01511051    0.01433587
     atom   11 type  1   force =     0.01401678    0.01347829    0.01238268
     atom   12 type  1   force =    -0.01553996    0.00992929    0.00601936
     atom   13 type  1   force =    -0.00670619   -0.00592729    0.00321579
     atom   14 type  1   force =    -0.01424268   -0.00946329   -0.00915582
     atom   15 type  1   force =     0.00666286   -0.00810824   -0.01194231
     atom   16 type  1   force =    -0.01727745    0.00522592   -0.00235639
     atom   17 type  1   force =     0.01730384    0.00031614   -0.01651560
     atom   18 type  1   force =    -0.00636813    0.00439806    0.00146202
     atom   19 type  1   force =    -0.00059401   -0.01254377   -0.01047127
     atom   20 type  1   force =     0.00575685   -0.00245753    0.00113675
     atom   21 type  1   force =     0.00266683    0.00522776   -0.00611030
     atom   22 type  1   force =    -0.00373532   -0.01565330   -0.00433236
     atom   23 type  1   force =    -0.00065431    0.00236668   -0.00047299
     atom   24 type  1   force =    -0.00466052   -0.01942422    0.00304429
     atom   25 type  1   force =    -0.00862569    0.01939715    0.00230751
     atom   26 type  1   force =    -0.01110170    0.00797651   -0.01362445
     atom   27 type  1   force =    -0.01086960   -0.00418329   -0.00059052
     atom   28 type  1   force =    -0.00082938   -0.00206404    0.00062836
     atom   29 type  1   force =    -0.00547326    0.00677402    0.01418383
     atom   30 type  1   force =    -0.00599752    0.00171940   -0.00923857
     atom   31 type  1   force =    -0.00486735    0.01316519   -0.00659950
     atom   32 type  1   force =     0.00698891   -0.00002179    0.00063326

     Total force =     0.094074     Total SCF correction =     0.000221


     Computing stress (Cartesian axis) and pressure

          total   stress  (Ry/bohr**3)                   (kbar)     P=        5.33
   0.00003423   0.00000313  -0.00000508            5.03        0.46       -0.75
   0.00000313   0.00003810   0.00000108            0.46        5.60        0.16
  -0.00000508   0.00000108   0.00003639           -0.75        0.16        5.35


     Writing output data file /scratch/bxp912/ru01_0046.save/
 
     init_run     :     95.27s CPU     98.75s WALL (       1 calls)
     electrons    :   4082.00s CPU   4134.85s WALL (       1 calls)
     forces       :     53.86s CPU     54.45s WALL (       1 calls)
     stress       :    323.05s CPU    325.61s WALL (       1 calls)

     Called by init_run:
     wfcinit      :     94.92s CPU     97.97s WALL (       1 calls)
     potinit      :      0.14s CPU      0.16s WALL (       1 calls)
     hinit0       :      0.05s CPU      0.07s WALL (       1 calls)

     Called by electrons:
     c_bands      :   3636.49s CPU   3679.19s WALL (      12 calls)
     sum_band     :    444.00s CPU    453.64s WALL (      12 calls)
     v_of_rho     :      0.16s CPU      0.17s WALL (      12 calls)
     newd         :      0.27s CPU      0.66s WALL (      12 calls)
     PAW_pot      :      0.99s CPU      1.06s WALL (      12 calls)
     mix_rho      :      0.17s CPU      0.20s WALL (      12 calls)

     Called by c_bands:
     init_us_2    :     18.62s CPU     19.11s WALL (    9855 calls)
     cegterg      :   3571.69s CPU   3611.00s WALL (    4380 calls)

     Called by *egterg:
     cdiaghg      :    435.03s CPU    437.39s WALL (   16946 calls)
     h_psi        :   2014.45s CPU   2045.00s WALL (   17676 calls)
     s_psi        :    160.55s CPU    161.78s WALL (   17676 calls)
     g_psi        :      4.47s CPU      4.54s WALL (   12931 calls)

     Called by h_psi:
     h_psi:calbec :    294.65s CPU    296.90s WALL (   17676 calls)
     vloc_psi     :   1554.77s CPU   1580.19s WALL (   17676 calls)
     add_vuspsi   :    154.80s CPU    157.59s WALL (   17676 calls)

     General routines
     calbec       :    473.23s CPU    476.65s WALL (   23881 calls)
     fft          :      0.32s CPU      0.35s WALL (     180 calls)
     ffts         :      0.11s CPU      0.12s WALL (     208 calls)
     fftw         :   1790.67s CPU   1820.14s WALL ( 8386478 calls)
     interpolate  :      0.02s CPU      0.03s WALL (      12 calls)
 
     Parallel routines
     fft_scatt_xy :    145.18s CPU    147.53s WALL ( 8386866 calls)
     fft_scatt_yz :   1396.71s CPU   1420.13s WALL ( 8386866 calls)
 
     PWSCF        :      1h17m CPU      1h18m WALL

 
   This run was terminated on:  15:29: 2   8Mar2022            

=------------------------------------------------------------------------------=
   JOB DONE.
=------------------------------------------------------------------------------=
