
     Program PWSCF v.6.7MaX starts on 14Mar2022 at 12:15: 0 

     This program is part of the open-source Quantum ESPRESSO suite
     for quantum simulation of materials; please cite
         "P. Giannozzi et al., J. Phys.:Condens. Matter 21 395502 (2009);
         "P. Giannozzi et al., J. Phys.:Condens. Matter 29 465901 (2017);
          URL http://www.quantum-espresso.org", 
     in publications or presentations arising from this work. More details at
     http://www.quantum-espresso.org/quote

     Parallel version (MPI & OpenMP), running on      72 processor cores
     Number of MPI processes:                72
     Threads/MPI process:                     1

     MPI processes distributed on     1 nodes
     R & G space division:  proc/nbgrp/npool/nimage =      72
     Reading input from ru_0059.in
Warning: card &CELL ignored
Warning: card CELL_DYNAMICS = 'BFGS', ignored
Warning: card CELL_FACTOR = 2.0, ignored
Warning: card PRESS = 0.0, ignored
Warning: card / ignored

     Current dimensions of program PWSCF are:
     Max number of different atomic species (ntypx) = 10
     Max number of k-points (npk) =  40000
     Max angular momentum in pseudopotentials (lmaxx) =  3
     file Ru.pbe-spn-kjpaw_psl.1.0.0.UPF: wavefunction(s)  4D renormalized

     Subspace diagonalization in iterative solution of the eigenvalue problem:
     one sub-group per band group will be used
     ELPA distributed-memory algorithm (size of sub-group:  8*  8 procs)

 
     Parallelization info
     --------------------
     sticks:   dense  smooth     PW     G-vecs:    dense   smooth      PW
     Min          98      65     17                 6232     3345     475
     Max          99      67     18                 6237     3351     482
     Sum        7089    4693   1281               448855   241089   34457
 


     bravais-lattice index     =            0
     lattice parameter (alat)  =      14.3940  a.u.
     unit-cell volume          =    2982.2680 (a.u.)^3
     number of atoms/cell      =           32
     number of atomic types    =            1
     number of electrons       =       512.00
     number of Kohn-Sham states=          307
     kinetic-energy cutoff     =      71.0000  Ry
     charge density cutoff     =     430.0000  Ry
     scf convergence threshold =      1.0E-08
     mixing beta               =       0.3000
     number of iterations used =           10  local-TF  mixing
     Exchange-correlation= SLA  PW   PBX  PBC
                           (   1   4   3   4   0   0   0)

     celldm(1)=  14.394024  celldm(2)=   0.000000  celldm(3)=   0.000000
     celldm(4)=   0.000000  celldm(5)=   0.000000  celldm(6)=   0.000000

     crystal axes: (cart. coord. in units of alat)
               a(1) = (   1.000000   0.000000   0.000000 )  
               a(2) = (   0.000000   1.000000   0.000000 )  
               a(3) = (   0.000000   0.000000   1.000000 )  

     reciprocal axes: (cart. coord. in units 2 pi/alat)
               b(1) = (  1.000000  0.000000  0.000000 )  
               b(2) = (  0.000000  1.000000  0.000000 )  
               b(3) = (  0.000000  0.000000  1.000000 )  


     PseudoPot. # 1 for Ru read from file:
     /rds/homes/b/bxp912/pp/Ru.pbe-spn-kjpaw_psl.1.0.0.UPF
     MD5 check sum: 0ae1f594dea09af7be8575c3a481d1ae
     Pseudo is Projector augmented-wave + core cor, Zval = 16.0
     Generated using "atomic" code by A. Dal Corso  v.5.1
     Shape of augmentation charge: PSQ
     Using radial grid of 1233 points,  6 beta functions with: 
                l(1) =   0
                l(2) =   0
                l(3) =   1
                l(4) =   1
                l(5) =   2
                l(6) =   2
     Q(r) pseudized with 0 coefficients 


     atomic species   valence    mass     pseudopotential
        Ru            16.00   101.07000     Ru( 1.00)

     No symmetry found



   Cartesian axes

     site n.     atom                  positions (alat units)
         1           Ru  tau(   1) = (   0.9965500   0.0076330   0.9956040  )
         2           Ru  tau(   2) = (   0.2445520   0.2526230   0.0054970  )
         3           Ru  tau(   3) = (   0.2515160   0.9870930   0.2434760  )
         4           Ru  tau(   4) = (   0.0010050   0.2559830   0.2558020  )
         5           Ru  tau(   5) = (   0.9967240   0.9963010   0.4950590  )
         6           Ru  tau(   6) = (   0.2397350   0.2481510   0.5045480  )
         7           Ru  tau(   7) = (   0.2412310   0.0060600   0.7472910  )
         8           Ru  tau(   8) = (   0.9982210   0.2446820   0.7509230  )
         9           Ru  tau(   9) = (   0.9996710   0.4983260   0.9953360  )
        10           Ru  tau(  10) = (   0.2469180   0.7502410   0.9931600  )
        11           Ru  tau(  11) = (   0.2441640   0.5032050   0.2443850  )
        12           Ru  tau(  12) = (   0.9972130   0.7482340   0.2597100  )
        13           Ru  tau(  13) = (   0.0031550   0.5052840   0.4956410  )
        14           Ru  tau(  14) = (   0.2464790   0.7449570   0.4935880  )
        15           Ru  tau(  15) = (   0.2502700   0.5026640   0.7428140  )
        16           Ru  tau(  16) = (   0.9978440   0.7425300   0.7528960  )
        17           Ru  tau(  17) = (   0.4901260   0.9963100   0.0058960  )
        18           Ru  tau(  18) = (   0.7514760   0.2467060   0.0030700  )
        19           Ru  tau(  19) = (   0.7491620   0.9970920   0.2514500  )
        20           Ru  tau(  20) = (   0.4954210   0.2459240   0.2514890  )
        21           Ru  tau(  21) = (   0.5013570   0.0093770   0.5024540  )
        22           Ru  tau(  22) = (   0.7537800   0.2447280   0.5004370  )
        23           Ru  tau(  23) = (   0.7458270   0.9982190   0.7496230  )
        24           Ru  tau(  24) = (   0.4930640   0.2523410   0.7414980  )
        25           Ru  tau(  25) = (   0.4995910   0.5012430   0.0032980  )
        26           Ru  tau(  26) = (   0.7480380   0.7479900   0.0012450  )
        27           Ru  tau(  27) = (   0.7447420   0.4937350   0.2431650  )
        28           Ru  tau(  28) = (   0.5047370   0.7517860   0.2471030  )
        29           Ru  tau(  29) = (   0.5008090   0.4978550   0.5008140  )
        30           Ru  tau(  30) = (   0.7548040   0.7558610   0.5035700  )
        31           Ru  tau(  31) = (   0.7432750   0.4999250   0.7468540  )
        32           Ru  tau(  32) = (   0.5019190   0.7437290   0.7390360  )

     number of k points=   365  Marzari-Vanderbilt smearing, width (Ry)=  0.0400

     Number of k-points >= 100: set verbosity='high' to print them.

     Dense  grid:   448855 G-vectors     FFT dimensions: (  96,  96,  96)

     Smooth grid:   241089 G-vectors     FFT dimensions: (  80,  80,  80)

     Estimated max dynamical RAM per process >     753.03 MB

     Estimated total dynamical RAM >      52.95 GB

     Check: negative core charge=   -0.000002

     Initial potential from superposition of free atoms

     starting charge  511.97959, renormalised to  512.00000
     Starting wfcs are  320 randomized atomic wfcs
     Checking if some PAW data can be deallocated... 

     total cpu time spent up to now is       99.6 secs

     Self-consistent Calculation

     iteration #  1     ecut=    71.00 Ry     beta= 0.30
     Davidson diagonalization with overlap
     ethr =  1.00E-02,  avg # of iterations =  3.7

     Threshold (ethr) on eigenvalues was too large:
     Diagonalizing with lowered threshold

     Davidson diagonalization with overlap
     ethr =  9.50E-05,  avg # of iterations =  6.1

     total cpu time spent up to now is      827.8 secs

     total energy              =  -13813.33715737 Ry
     estimated scf accuracy    <       0.69098075 Ry

     iteration #  2     ecut=    71.00 Ry     beta= 0.30
     Davidson diagonalization with overlap
     ethr =  1.35E-04,  avg # of iterations =  1.1

     total cpu time spent up to now is     1083.2 secs

     total energy              =  -13813.20458336 Ry
     estimated scf accuracy    <       0.32077611 Ry

     iteration #  3     ecut=    71.00 Ry     beta= 0.30
     Davidson diagonalization with overlap
     ethr =  6.27E-05,  avg # of iterations =  2.1

     total cpu time spent up to now is     1411.9 secs

     total energy              =  -13813.25733895 Ry
     estimated scf accuracy    <       0.00661630 Ry

     iteration #  4     ecut=    71.00 Ry     beta= 0.30
     Davidson diagonalization with overlap
     c_bands:  1 eigenvalues not converged
     c_bands:  1 eigenvalues not converged
     c_bands:  1 eigenvalues not converged
     c_bands:  1 eigenvalues not converged
     c_bands:  1 eigenvalues not converged
     c_bands:  1 eigenvalues not converged
     c_bands:  1 eigenvalues not converged
     c_bands:  1 eigenvalues not converged
     ethr =  1.29E-06,  avg # of iterations =  5.5

     total cpu time spent up to now is     1829.7 secs

     total energy              =  -13813.25622707 Ry
     estimated scf accuracy    <       0.00189376 Ry

     iteration #  5     ecut=    71.00 Ry     beta= 0.30
     Davidson diagonalization with overlap
     ethr =  3.70E-07,  avg # of iterations =  2.0

     total cpu time spent up to now is     2158.3 secs

     total energy              =  -13813.25653553 Ry
     estimated scf accuracy    <       0.00017653 Ry

     iteration #  6     ecut=    71.00 Ry     beta= 0.30
     Davidson diagonalization with overlap
     ethr =  3.45E-08,  avg # of iterations =  2.1

     total cpu time spent up to now is     2489.0 secs

     total energy              =  -13813.25653386 Ry
     estimated scf accuracy    <       0.00001521 Ry

     iteration #  7     ecut=    71.00 Ry     beta= 0.30
     Davidson diagonalization with overlap
     ethr =  2.97E-09,  avg # of iterations =  3.2

     total cpu time spent up to now is     2883.3 secs

     total energy              =  -13813.25653657 Ry
     estimated scf accuracy    <       0.00000664 Ry

     iteration #  8     ecut=    71.00 Ry     beta= 0.30
     Davidson diagonalization with overlap
     ethr =  1.30E-09,  avg # of iterations =  2.0

     total cpu time spent up to now is     3218.0 secs

     total energy              =  -13813.25653722 Ry
     estimated scf accuracy    <       0.00000033 Ry

     iteration #  9     ecut=    71.00 Ry     beta= 0.30
     Davidson diagonalization with overlap
     ethr =  6.50E-11,  avg # of iterations =  2.9

     total cpu time spent up to now is     3571.7 secs

     total energy              =  -13813.25653738 Ry
     estimated scf accuracy    <       0.00000013 Ry

     iteration # 10     ecut=    71.00 Ry     beta= 0.30
     Davidson diagonalization with overlap
     ethr =  2.46E-11,  avg # of iterations =  2.0

     total cpu time spent up to now is     3966.2 secs

     total energy              =  -13813.25653736 Ry
     estimated scf accuracy    <       0.00000002 Ry

     iteration # 11     ecut=    71.00 Ry     beta= 0.30
     Davidson diagonalization with overlap
     ethr =  4.15E-12,  avg # of iterations =  2.8

     total cpu time spent up to now is     4305.2 secs

     End of self-consistent calculation

     Number of k-points >= 100: set verbosity='high' to print the bands.

     the Fermi energy is    23.1701 ev

!    total energy              =  -13813.25653738 Ry

     total all-electron energy =   -289989.646877 Ry
     estimated scf accuracy    <          3.8E-09 Ry
     smearing contrib. (-TS)   =       0.01690607 Ry
     internal energy E=F+TS    =  -13813.27344344 Ry

     The total energy is F=E-TS. E is the sum of the following terms:
     one-electron contribution =   -1001.59455000 Ry
     hartree contribution      =     919.76684312 Ry
     xc contribution           =    -928.23707519 Ry
     ewald contribution        =   -5213.75988444 Ry
     one-center paw contrib.   =   -7589.44877694 Ry

     convergence has been achieved in  11 iterations

     Forces acting on atoms (cartesian axes, Ry/au):

     atom    1 type  1   force =     0.00462907   -0.02427055    0.01364390
     atom    2 type  1   force =     0.01686096   -0.01404507   -0.01751684
     atom    3 type  1   force =    -0.01641810    0.03400534    0.01646378
     atom    4 type  1   force =    -0.00820223   -0.02148845   -0.02120229
     atom    5 type  1   force =     0.00797942    0.01310538    0.01092092
     atom    6 type  1   force =     0.02758964    0.00432392   -0.01745802
     atom    7 type  1   force =     0.02256371   -0.01718619    0.00682776
     atom    8 type  1   force =    -0.00707061    0.01349216    0.00158255
     atom    9 type  1   force =    -0.00761667   -0.00134805    0.00642269
     atom   10 type  1   force =     0.00676549   -0.00756476    0.01427563
     atom   11 type  1   force =     0.01238899   -0.00836854    0.00284001
     atom   12 type  1   force =    -0.00120092    0.00144682   -0.04258990
     atom   13 type  1   force =    -0.01500865   -0.01088548    0.01505321
     atom   14 type  1   force =     0.01648112    0.01589955    0.02167046
     atom   15 type  1   force =    -0.00891342   -0.01140886    0.01389382
     atom   16 type  1   force =     0.00210646    0.02247517   -0.00376814
     atom   17 type  1   force =     0.02676174    0.01189237   -0.02534919
     atom   18 type  1   force =    -0.02065845    0.00928235   -0.00492330
     atom   19 type  1   force =    -0.00864707    0.00834288   -0.01265945
     atom   20 type  1   force =     0.00467869    0.00678317   -0.01913130
     atom   21 type  1   force =    -0.01103605   -0.02734686   -0.00434921
     atom   22 type  1   force =    -0.01944206    0.01369963    0.00446588
     atom   23 type  1   force =     0.00445244    0.00381998   -0.00054522
     atom   24 type  1   force =     0.01673865   -0.01206924    0.02592666
     atom   25 type  1   force =    -0.00431463    0.00105380   -0.01089338
     atom   26 type  1   force =    -0.00058522    0.00411353   -0.00956016
     atom   27 type  1   force =     0.00945692    0.00656698    0.01432080
     atom   28 type  1   force =    -0.01421297   -0.00628743    0.00501190
     atom   29 type  1   force =    -0.00280076    0.00100936   -0.00836899
     atom   30 type  1   force =    -0.02957773   -0.02381342   -0.01181663
     atom   31 type  1   force =     0.00944174    0.00068377    0.00590318
     atom   32 type  1   force =    -0.01318949    0.01408671    0.03090886

     Total force =     0.145190     Total SCF correction =     0.000196


     Computing stress (Cartesian axis) and pressure

          total   stress  (Ry/bohr**3)                   (kbar)     P=       11.99
   0.00007491  -0.00000011   0.00000117           11.02       -0.02        0.17
  -0.00000011   0.00008484   0.00000406           -0.02       12.48        0.60
   0.00000117   0.00000406   0.00008468            0.17        0.60       12.46


     Writing output data file /scratch/bxp912/ru01_0059.save/
 
     init_run     :     95.04s CPU     97.03s WALL (       1 calls)
     electrons    :   4107.76s CPU   4205.64s WALL (       1 calls)
     forces       :     53.59s CPU     54.00s WALL (       1 calls)
     stress       :    328.18s CPU    331.08s WALL (       1 calls)

     Called by init_run:
     wfcinit      :     94.10s CPU     96.01s WALL (       1 calls)
     potinit      :      0.13s CPU      0.14s WALL (       1 calls)
     hinit0       :      0.47s CPU      0.48s WALL (       1 calls)

     Called by electrons:
     c_bands      :   3666.10s CPU   3755.55s WALL (      12 calls)
     sum_band     :    440.11s CPU    448.31s WALL (      12 calls)
     v_of_rho     :      0.16s CPU      0.17s WALL (      12 calls)
     newd         :      0.26s CPU      0.38s WALL (      12 calls)
     PAW_pot      :      0.99s CPU      1.06s WALL (      12 calls)
     mix_rho      :      0.18s CPU      0.20s WALL (      12 calls)

     Called by c_bands:
     init_us_2    :     20.35s CPU     20.79s WALL (    9855 calls)
     cegterg      :   3600.40s CPU   3639.15s WALL (    4380 calls)

     Called by *egterg:
     cdiaghg      :    439.03s CPU    441.47s WALL (   16898 calls)
     h_psi        :   2015.39s CPU   2044.99s WALL (   17628 calls)
     s_psi        :    164.77s CPU    165.88s WALL (   17628 calls)
     g_psi        :      4.60s CPU      4.66s WALL (   12883 calls)

     Called by h_psi:
     h_psi:calbec :    299.93s CPU    301.99s WALL (   17628 calls)
     vloc_psi     :   1544.92s CPU   1569.35s WALL (   17628 calls)
     add_vuspsi   :    159.01s CPU    162.01s WALL (   17628 calls)

     General routines
     calbec       :    472.50s CPU    475.77s WALL (   23833 calls)
     fft          :      0.22s CPU      0.24s WALL (     180 calls)
     ffts         :      0.13s CPU      0.13s WALL (     210 calls)
     fftw         :   1774.95s CPU   1803.00s WALL ( 8350164 calls)
     interpolate  :      0.02s CPU      0.03s WALL (      12 calls)
 
     Parallel routines
     fft_scatt_xy :    145.26s CPU    147.51s WALL ( 8350554 calls)
     fft_scatt_yz :   1382.08s CPU   1404.19s WALL ( 8350554 calls)
 
     PWSCF        :      1h17m CPU      1h19m WALL

 
   This run was terminated on:  13:34:43  14Mar2022            

=------------------------------------------------------------------------------=
   JOB DONE.
=------------------------------------------------------------------------------=
