
     Program PWSCF v.6.7MaX starts on  8Mar2022 at  7:41:58 

     This program is part of the open-source Quantum ESPRESSO suite
     for quantum simulation of materials; please cite
         "P. Giannozzi et al., J. Phys.:Condens. Matter 21 395502 (2009);
         "P. Giannozzi et al., J. Phys.:Condens. Matter 29 465901 (2017);
          URL http://www.quantum-espresso.org", 
     in publications or presentations arising from this work. More details at
     http://www.quantum-espresso.org/quote

     Parallel version (MPI & OpenMP), running on      72 processor cores
     Number of MPI processes:                72
     Threads/MPI process:                     1

     MPI processes distributed on     1 nodes
     R & G space division:  proc/nbgrp/npool/nimage =      72
     Reading input from ru_0024.in
Warning: card &CELL ignored
Warning: card CELL_DYNAMICS = 'BFGS', ignored
Warning: card CELL_FACTOR = 2.0, ignored
Warning: card PRESS = 0.0, ignored
Warning: card / ignored

     Current dimensions of program PWSCF are:
     Max number of different atomic species (ntypx) = 10
     Max number of k-points (npk) =  40000
     Max angular momentum in pseudopotentials (lmaxx) =  3
     file Ru.pbe-spn-kjpaw_psl.1.0.0.UPF: wavefunction(s)  4D renormalized

     Subspace diagonalization in iterative solution of the eigenvalue problem:
     one sub-group per band group will be used
     ELPA distributed-memory algorithm (size of sub-group:  8*  8 procs)

 
     Parallelization info
     --------------------
     sticks:   dense  smooth     PW     G-vecs:    dense   smooth      PW
     Min          98      65     17                 6232     3345     475
     Max          99      67     18                 6237     3351     482
     Sum        7089    4693   1281               448855   241089   34457
 


     bravais-lattice index     =            0
     lattice parameter (alat)  =      14.3940  a.u.
     unit-cell volume          =    2982.2680 (a.u.)^3
     number of atoms/cell      =           32
     number of atomic types    =            1
     number of electrons       =       512.00
     number of Kohn-Sham states=          307
     kinetic-energy cutoff     =      71.0000  Ry
     charge density cutoff     =     430.0000  Ry
     scf convergence threshold =      1.0E-08
     mixing beta               =       0.3000
     number of iterations used =           10  local-TF  mixing
     Exchange-correlation= SLA  PW   PBX  PBC
                           (   1   4   3   4   0   0   0)

     celldm(1)=  14.394024  celldm(2)=   0.000000  celldm(3)=   0.000000
     celldm(4)=   0.000000  celldm(5)=   0.000000  celldm(6)=   0.000000

     crystal axes: (cart. coord. in units of alat)
               a(1) = (   1.000000   0.000000   0.000000 )  
               a(2) = (   0.000000   1.000000   0.000000 )  
               a(3) = (   0.000000   0.000000   1.000000 )  

     reciprocal axes: (cart. coord. in units 2 pi/alat)
               b(1) = (  1.000000  0.000000  0.000000 )  
               b(2) = (  0.000000  1.000000  0.000000 )  
               b(3) = (  0.000000  0.000000  1.000000 )  


     PseudoPot. # 1 for Ru read from file:
     /rds/homes/b/bxp912/pp/Ru.pbe-spn-kjpaw_psl.1.0.0.UPF
     MD5 check sum: 0ae1f594dea09af7be8575c3a481d1ae
     Pseudo is Projector augmented-wave + core cor, Zval = 16.0
     Generated using "atomic" code by A. Dal Corso  v.5.1
     Shape of augmentation charge: PSQ
     Using radial grid of 1233 points,  6 beta functions with: 
                l(1) =   0
                l(2) =   0
                l(3) =   1
                l(4) =   1
                l(5) =   2
                l(6) =   2
     Q(r) pseudized with 0 coefficients 


     atomic species   valence    mass     pseudopotential
        Ru            16.00   101.07000     Ru( 1.00)

     No symmetry found



   Cartesian axes

     site n.     atom                  positions (alat units)
         1           Ru  tau(   1) = (   0.0000170   0.0000430   0.0000100  )
         2           Ru  tau(   2) = (   0.2497010   0.2507660   0.0004870  )
         3           Ru  tau(   3) = (   0.2501550   0.9992690   0.2494380  )
         4           Ru  tau(   4) = (   0.0003580   0.2501070   0.2495100  )
         5           Ru  tau(   5) = (   0.9993780   0.0003370   0.4995260  )
         6           Ru  tau(   6) = (   0.2499400   0.2505200   0.5004170  )
         7           Ru  tau(   7) = (   0.2499820   0.0003720   0.7500960  )
         8           Ru  tau(   8) = (   0.9992980   0.2502930   0.7498600  )
         9           Ru  tau(   9) = (   0.9992770   0.4999130   0.0006360  )
        10           Ru  tau(  10) = (   0.2497800   0.7492060   0.0001610  )
        11           Ru  tau(  11) = (   0.2499980   0.5008070   0.2497660  )
        12           Ru  tau(  12) = (   0.0004240   0.7500490   0.2501930  )
        13           Ru  tau(  13) = (   0.9995190   0.4998050   0.4999780  )
        14           Ru  tau(  14) = (   0.2501210   0.7496350   0.4995800  )
        15           Ru  tau(  15) = (   0.2499840   0.5002540   0.7493540  )
        16           Ru  tau(  16) = (   0.9994770   0.7497190   0.7499750  )
        17           Ru  tau(  17) = (   0.5001570   0.0002230   0.9995420  )
        18           Ru  tau(  18) = (   0.7511350   0.2497830   0.9997980  )
        19           Ru  tau(  19) = (   0.7499480   0.0000890   0.2500000  )
        20           Ru  tau(  20) = (   0.4997400   0.2509910   0.2511980  )
        21           Ru  tau(  21) = (   0.4997440   0.9998810   0.4994010  )
        22           Ru  tau(  22) = (   0.7497560   0.2502830   0.5000490  )
        23           Ru  tau(  23) = (   0.7498630   0.9998420   0.7500590  )
        24           Ru  tau(  24) = (   0.5002470   0.2502920   0.7503780  )
        25           Ru  tau(  25) = (   0.4993970   0.4997120   0.0006980  )
        26           Ru  tau(  26) = (   0.7503770   0.7498100   0.9999230  )
        27           Ru  tau(  27) = (   0.7502910   0.5002860   0.2497040  )
        28           Ru  tau(  28) = (   0.5000300   0.7491220   0.2503680  )
        29           Ru  tau(  29) = (   0.4993580   0.5000590   0.4997390  )
        30           Ru  tau(  30) = (   0.7501030   0.7499540   0.4998610  )
        31           Ru  tau(  31) = (   0.7493930   0.4997880   0.7498730  )
        32           Ru  tau(  32) = (   0.4999350   0.7505350   0.7497760  )

     number of k points=   365  Marzari-Vanderbilt smearing, width (Ry)=  0.0400

     Number of k-points >= 100: set verbosity='high' to print them.

     Dense  grid:   448855 G-vectors     FFT dimensions: (  96,  96,  96)

     Smooth grid:   241089 G-vectors     FFT dimensions: (  80,  80,  80)

     Estimated max dynamical RAM per process >     753.03 MB

     Estimated total dynamical RAM >      52.95 GB

     Check: negative core charge=   -0.000002

     Initial potential from superposition of free atoms

     starting charge  511.97959, renormalised to  512.00000
     Starting wfcs are  320 randomized atomic wfcs
     Checking if some PAW data can be deallocated... 

     total cpu time spent up to now is       98.6 secs

     Self-consistent Calculation

     iteration #  1     ecut=    71.00 Ry     beta= 0.30
     Davidson diagonalization with overlap
     ethr =  1.00E-02,  avg # of iterations =  3.4

     Threshold (ethr) on eigenvalues was too large:
     Diagonalizing with lowered threshold

     Davidson diagonalization with overlap
     ethr =  8.38E-05,  avg # of iterations =  5.8

     total cpu time spent up to now is      796.0 secs

     total energy              =  -13813.37530042 Ry
     estimated scf accuracy    <       0.64089249 Ry

     iteration #  2     ecut=    71.00 Ry     beta= 0.30
     Davidson diagonalization with overlap
     ethr =  1.25E-04,  avg # of iterations =  1.0

     total cpu time spent up to now is     1042.7 secs

     total energy              =  -13813.23575524 Ry
     estimated scf accuracy    <       0.30116445 Ry

     iteration #  3     ecut=    71.00 Ry     beta= 0.30
     Davidson diagonalization with overlap
     ethr =  5.88E-05,  avg # of iterations =  2.2

     total cpu time spent up to now is     1366.4 secs

     total energy              =  -13813.30132286 Ry
     estimated scf accuracy    <       0.00195613 Ry

     iteration #  4     ecut=    71.00 Ry     beta= 0.30
     Davidson diagonalization with overlap
     c_bands:  1 eigenvalues not converged
     ethr =  3.82E-07,  avg # of iterations =  4.8

     total cpu time spent up to now is     1763.3 secs

     total energy              =  -13813.30021904 Ry
     estimated scf accuracy    <       0.00086720 Ry

     iteration #  5     ecut=    71.00 Ry     beta= 0.30
     Davidson diagonalization with overlap
     ethr =  1.69E-07,  avg # of iterations =  2.5

     total cpu time spent up to now is     2136.9 secs

     total energy              =  -13813.30039996 Ry
     estimated scf accuracy    <       0.00028101 Ry

     iteration #  6     ecut=    71.00 Ry     beta= 0.30
     Davidson diagonalization with overlap
     ethr =  5.49E-08,  avg # of iterations =  1.6

     total cpu time spent up to now is     2400.7 secs

     total energy              =  -13813.30036353 Ry
     estimated scf accuracy    <       0.00002031 Ry

     iteration #  7     ecut=    71.00 Ry     beta= 0.30
     Davidson diagonalization with overlap
     ethr =  3.97E-09,  avg # of iterations =  4.6

     total cpu time spent up to now is     2830.8 secs

     total energy              =  -13813.30037746 Ry
     estimated scf accuracy    <       0.00001933 Ry

     iteration #  8     ecut=    71.00 Ry     beta= 0.30
     Davidson diagonalization with overlap
     ethr =  3.77E-09,  avg # of iterations =  2.0

     total cpu time spent up to now is     3126.1 secs

     total energy              =  -13813.30037840 Ry
     estimated scf accuracy    <       0.00000202 Ry

     iteration #  9     ecut=    71.00 Ry     beta= 0.30
     Davidson diagonalization with overlap
     ethr =  3.95E-10,  avg # of iterations =  2.7

     total cpu time spent up to now is     3449.3 secs

     total energy              =  -13813.30037857 Ry
     estimated scf accuracy    <       0.00000038 Ry

     iteration # 10     ecut=    71.00 Ry     beta= 0.30
     Davidson diagonalization with overlap
     ethr =  7.45E-11,  avg # of iterations =  2.7

     total cpu time spent up to now is     3804.3 secs

     total energy              =  -13813.30037864 Ry
     estimated scf accuracy    <       0.00000004 Ry

     iteration # 11     ecut=    71.00 Ry     beta= 0.30
     Davidson diagonalization with overlap
     ethr =  8.63E-12,  avg # of iterations =  4.0

     total cpu time spent up to now is     4205.1 secs

     End of self-consistent calculation

     Number of k-points >= 100: set verbosity='high' to print the bands.

     the Fermi energy is    23.1542 ev

!    total energy              =  -13813.30037867 Ry

     total all-electron energy =   -289989.690718 Ry
     estimated scf accuracy    <          3.9E-10 Ry
     smearing contrib. (-TS)   =       0.02052561 Ry
     internal energy E=F+TS    =  -13813.32090427 Ry

     The total energy is F=E-TS. E is the sum of the following terms:
     one-electron contribution =    -992.08312475 Ry
     hartree contribution      =     914.99991420 Ry
     xc contribution           =    -928.12108655 Ry
     ewald contribution        =   -5218.67231537 Ry
     one-center paw contrib.   =   -7589.44429180 Ry

     convergence has been achieved in  11 iterations

     Forces acting on atoms (cartesian axes, Ry/au):

     atom    1 type  1   force =    -0.00036987   -0.00043525   -0.00078162
     atom    2 type  1   force =     0.00114127   -0.00272551   -0.00167590
     atom    3 type  1   force =     0.00005963    0.00268309    0.00119466
     atom    4 type  1   force =    -0.00094028   -0.00129556    0.00158079
     atom    5 type  1   force =     0.00154447   -0.00069110    0.00160022
     atom    6 type  1   force =     0.00057336   -0.00235600   -0.00092454
     atom    7 type  1   force =    -0.00056870   -0.00061327   -0.00036631
     atom    8 type  1   force =     0.00161049   -0.00075035    0.00081978
     atom    9 type  1   force =     0.00156578    0.00078619   -0.00226319
     atom   10 type  1   force =     0.00137130    0.00285618   -0.00092359
     atom   11 type  1   force =    -0.00059124   -0.00216806    0.00051305
     atom   12 type  1   force =    -0.00178437    0.00095674   -0.00091216
     atom   13 type  1   force =     0.00050615    0.00050028    0.00074578
     atom   14 type  1   force =    -0.00056608    0.00240909    0.00185013
     atom   15 type  1   force =     0.00017094   -0.00103048    0.00141657
     atom   16 type  1   force =     0.00151420    0.00135373   -0.00026335
     atom   17 type  1   force =    -0.00132618   -0.00040412    0.00080355
     atom   18 type  1   force =    -0.00371343   -0.00015775    0.00064926
     atom   19 type  1   force =    -0.00026542    0.00020052    0.00000542
     atom   20 type  1   force =     0.00027000   -0.00298757   -0.00368300
     atom   21 type  1   force =     0.00012786    0.00017874    0.00178816
     atom   22 type  1   force =     0.00041561   -0.00115492    0.00008927
     atom   23 type  1   force =     0.00047347    0.00064229   -0.00053075
     atom   24 type  1   force =    -0.00130459   -0.00153430   -0.00084163
     atom   25 type  1   force =     0.00127956    0.00066856   -0.00266781
     atom   26 type  1   force =    -0.00145116    0.00150516   -0.00025171
     atom   27 type  1   force =    -0.00068045   -0.00131930    0.00048566
     atom   28 type  1   force =    -0.00006505    0.00338445   -0.00110081
     atom   29 type  1   force =     0.00087051    0.00025530    0.00140725
     atom   30 type  1   force =    -0.00055660    0.00063298    0.00033840
     atom   31 type  1   force =     0.00124382    0.00102110    0.00035912
     atom   32 type  1   force =    -0.00055499   -0.00041086    0.00153930

     Total force =     0.013345     Total SCF correction =     0.000060


     Computing stress (Cartesian axis) and pressure

          total   stress  (Ry/bohr**3)                   (kbar)     P=        0.06
   0.00000037   0.00000001  -0.00000020            0.05        0.00       -0.03
   0.00000001   0.00000038   0.00000006            0.00        0.06        0.01
  -0.00000020   0.00000006   0.00000043           -0.03        0.01        0.06


     Writing output data file /scratch/bxp912/ru01_0024.save/
 
     init_run     :     96.15s CPU     98.16s WALL (       1 calls)
     electrons    :   4056.27s CPU   4106.56s WALL (       1 calls)
     forces       :     53.33s CPU     53.82s WALL (       1 calls)
     stress       :    322.94s CPU    325.41s WALL (       1 calls)

     Called by init_run:
     wfcinit      :     95.80s CPU     97.76s WALL (       1 calls)
     potinit      :      0.14s CPU      0.16s WALL (       1 calls)
     hinit0       :      0.07s CPU      0.08s WALL (       1 calls)

     Called by electrons:
     c_bands      :   3616.25s CPU   3658.76s WALL (      12 calls)
     sum_band     :    438.54s CPU    445.98s WALL (      12 calls)
     v_of_rho     :      0.16s CPU      0.18s WALL (      12 calls)
     newd         :      0.25s CPU      0.49s WALL (      12 calls)
     PAW_pot      :      0.96s CPU      1.03s WALL (      12 calls)
     mix_rho      :      0.16s CPU      0.19s WALL (      12 calls)

     Called by c_bands:
     init_us_2    :     18.32s CPU     18.67s WALL (    9855 calls)
     cegterg      :   3549.60s CPU   3589.78s WALL (    4380 calls)

     Called by *egterg:
     cdiaghg      :    446.01s CPU    448.62s WALL (   17647 calls)
     h_psi        :   1998.69s CPU   2028.93s WALL (   18377 calls)
     s_psi        :    158.49s CPU    159.69s WALL (   18377 calls)
     g_psi        :      4.44s CPU      4.50s WALL (   13632 calls)

     Called by h_psi:
     h_psi:calbec :    289.89s CPU    291.88s WALL (   18377 calls)
     vloc_psi     :   1545.48s CPU   1571.20s WALL (   18377 calls)
     add_vuspsi   :    152.08s CPU    154.51s WALL (   18377 calls)

     General routines
     calbec       :    472.92s CPU    476.05s WALL (   24582 calls)
     fft          :      0.21s CPU      0.23s WALL (     180 calls)
     ffts         :      0.11s CPU      0.11s WALL (     202 calls)
     fftw         :   1778.51s CPU   1807.70s WALL ( 8386140 calls)
     interpolate  :      0.03s CPU      0.03s WALL (      12 calls)
 
     Parallel routines
     fft_scatt_xy :    144.95s CPU    147.23s WALL ( 8386522 calls)
     fft_scatt_yz :   1384.09s CPU   1407.08s WALL ( 8386522 calls)
 
     PWSCF        :      1h16m CPU      1h17m WALL

 
   This run was terminated on:   8:59:55   8Mar2022            

=------------------------------------------------------------------------------=
   JOB DONE.
=------------------------------------------------------------------------------=
