
     Program PWSCF v.6.7MaX starts on 14Mar2022 at  8:59:43 

     This program is part of the open-source Quantum ESPRESSO suite
     for quantum simulation of materials; please cite
         "P. Giannozzi et al., J. Phys.:Condens. Matter 21 395502 (2009);
         "P. Giannozzi et al., J. Phys.:Condens. Matter 29 465901 (2017);
          URL http://www.quantum-espresso.org", 
     in publications or presentations arising from this work. More details at
     http://www.quantum-espresso.org/quote

     Parallel version (MPI & OpenMP), running on      72 processor cores
     Number of MPI processes:                72
     Threads/MPI process:                     1

     MPI processes distributed on     1 nodes
     R & G space division:  proc/nbgrp/npool/nimage =      72
     Reading input from ru_0020.in
Warning: card &CELL ignored
Warning: card CELL_DYNAMICS = 'BFGS', ignored
Warning: card CELL_FACTOR = 2.0, ignored
Warning: card PRESS = 0.0, ignored
Warning: card / ignored

     Current dimensions of program PWSCF are:
     Max number of different atomic species (ntypx) = 10
     Max number of k-points (npk) =  40000
     Max angular momentum in pseudopotentials (lmaxx) =  3
     file Ru.pbe-spn-kjpaw_psl.1.0.0.UPF: wavefunction(s)  4D renormalized

     Subspace diagonalization in iterative solution of the eigenvalue problem:
     one sub-group per band group will be used
     ELPA distributed-memory algorithm (size of sub-group:  8*  8 procs)

 
     Parallelization info
     --------------------
     sticks:   dense  smooth     PW     G-vecs:    dense   smooth      PW
     Min          98      65     17                 6232     3345     475
     Max          99      67     18                 6237     3351     482
     Sum        7089    4693   1281               448855   241089   34457
 


     bravais-lattice index     =            0
     lattice parameter (alat)  =      14.3940  a.u.
     unit-cell volume          =    2982.2680 (a.u.)^3
     number of atoms/cell      =           32
     number of atomic types    =            1
     number of electrons       =       512.00
     number of Kohn-Sham states=          307
     kinetic-energy cutoff     =      71.0000  Ry
     charge density cutoff     =     430.0000  Ry
     scf convergence threshold =      1.0E-08
     mixing beta               =       0.3000
     number of iterations used =           10  local-TF  mixing
     Exchange-correlation= SLA  PW   PBX  PBC
                           (   1   4   3   4   0   0   0)

     celldm(1)=  14.394024  celldm(2)=   0.000000  celldm(3)=   0.000000
     celldm(4)=   0.000000  celldm(5)=   0.000000  celldm(6)=   0.000000

     crystal axes: (cart. coord. in units of alat)
               a(1) = (   1.000000   0.000000   0.000000 )  
               a(2) = (   0.000000   1.000000   0.000000 )  
               a(3) = (   0.000000   0.000000   1.000000 )  

     reciprocal axes: (cart. coord. in units 2 pi/alat)
               b(1) = (  1.000000  0.000000  0.000000 )  
               b(2) = (  0.000000  1.000000  0.000000 )  
               b(3) = (  0.000000  0.000000  1.000000 )  


     PseudoPot. # 1 for Ru read from file:
     /rds/homes/b/bxp912/pp/Ru.pbe-spn-kjpaw_psl.1.0.0.UPF
     MD5 check sum: 0ae1f594dea09af7be8575c3a481d1ae
     Pseudo is Projector augmented-wave + core cor, Zval = 16.0
     Generated using "atomic" code by A. Dal Corso  v.5.1
     Shape of augmentation charge: PSQ
     Using radial grid of 1233 points,  6 beta functions with: 
                l(1) =   0
                l(2) =   0
                l(3) =   1
                l(4) =   1
                l(5) =   2
                l(6) =   2
     Q(r) pseudized with 0 coefficients 


     atomic species   valence    mass     pseudopotential
        Ru            16.00   101.07000     Ru( 1.00)

     No symmetry found



   Cartesian axes

     site n.     atom                  positions (alat units)
         1           Ru  tau(   1) = (   0.9993780   0.0004170   0.9995010  )
         2           Ru  tau(   2) = (   0.2501950   0.2494140   0.0006310  )
         3           Ru  tau(   3) = (   0.2490010   0.0008000   0.2487060  )
         4           Ru  tau(   4) = (   0.0001370   0.2498600   0.2500520  )
         5           Ru  tau(   5) = (   0.9993580   0.0002500   0.4997770  )
         6           Ru  tau(   6) = (   0.2498130   0.2496530   0.4996440  )
         7           Ru  tau(   7) = (   0.2496030   0.9992210   0.7519340  )
         8           Ru  tau(   8) = (   0.0007820   0.2504130   0.7492130  )
         9           Ru  tau(   9) = (   0.9996540   0.5005920   0.9997230  )
        10           Ru  tau(  10) = (   0.2505370   0.7493230   0.0005050  )
        11           Ru  tau(  11) = (   0.2498960   0.4993070   0.2497610  )
        12           Ru  tau(  12) = (   0.9995270   0.7491580   0.2495170  )
        13           Ru  tau(  13) = (   0.9998110   0.4999710   0.4996360  )
        14           Ru  tau(  14) = (   0.2497180   0.7496430   0.4988850  )
        15           Ru  tau(  15) = (   0.2491940   0.4999940   0.7495820  )
        16           Ru  tau(  16) = (   0.0002460   0.7505660   0.7500590  )
        17           Ru  tau(  17) = (   0.5005450   0.9992650   0.9993910  )
        18           Ru  tau(  18) = (   0.7497580   0.2503600   0.0002040  )
        19           Ru  tau(  19) = (   0.7486950   0.9994420   0.2501270  )
        20           Ru  tau(  20) = (   0.4998550   0.2495510   0.2498080  )
        21           Ru  tau(  21) = (   0.5003770   0.0006990   0.4997420  )
        22           Ru  tau(  22) = (   0.7503820   0.2505030   0.5001230  )
        23           Ru  tau(  23) = (   0.7497900   0.9995370   0.7502690  )
        24           Ru  tau(  24) = (   0.4995530   0.2503900   0.7496890  )
        25           Ru  tau(  25) = (   0.4999040   0.4992970   0.0009740  )
        26           Ru  tau(  26) = (   0.7497070   0.7505110   0.0001120  )
        27           Ru  tau(  27) = (   0.7496930   0.5006380   0.2505840  )
        28           Ru  tau(  28) = (   0.4992850   0.7490020   0.2494270  )
        29           Ru  tau(  29) = (   0.5003250   0.4995990   0.4999880  )
        30           Ru  tau(  30) = (   0.7497450   0.7500000   0.4998990  )
        31           Ru  tau(  31) = (   0.7499790   0.4994200   0.7498590  )
        32           Ru  tau(  32) = (   0.4998000   0.7511330   0.7491930  )

     number of k points=   365  Marzari-Vanderbilt smearing, width (Ry)=  0.0400

     Number of k-points >= 100: set verbosity='high' to print them.

     Dense  grid:   448855 G-vectors     FFT dimensions: (  96,  96,  96)

     Smooth grid:   241089 G-vectors     FFT dimensions: (  80,  80,  80)

     Estimated max dynamical RAM per process >     753.03 MB

     Estimated total dynamical RAM >      52.95 GB

     Check: negative core charge=   -0.000002

     Initial potential from superposition of free atoms

     starting charge  511.97959, renormalised to  512.00000
     Starting wfcs are  320 randomized atomic wfcs
     Checking if some PAW data can be deallocated... 

     total cpu time spent up to now is      101.5 secs

     Self-consistent Calculation

     iteration #  1     ecut=    71.00 Ry     beta= 0.30
     Davidson diagonalization with overlap
     ethr =  1.00E-02,  avg # of iterations =  3.4

     Threshold (ethr) on eigenvalues was too large:
     Diagonalizing with lowered threshold

     Davidson diagonalization with overlap
     ethr =  8.39E-05,  avg # of iterations =  5.8

     total cpu time spent up to now is      807.8 secs

     total energy              =  -13813.37511118 Ry
     estimated scf accuracy    <       0.64059844 Ry

     iteration #  2     ecut=    71.00 Ry     beta= 0.30
     Davidson diagonalization with overlap
     ethr =  1.25E-04,  avg # of iterations =  1.0

     total cpu time spent up to now is     1057.1 secs

     total energy              =  -13813.23512859 Ry
     estimated scf accuracy    <       0.30124391 Ry

     iteration #  3     ecut=    71.00 Ry     beta= 0.30
     Davidson diagonalization with overlap
     ethr =  5.88E-05,  avg # of iterations =  2.3

     total cpu time spent up to now is     1386.1 secs

     total energy              =  -13813.30104949 Ry
     estimated scf accuracy    <       0.00203248 Ry

     iteration #  4     ecut=    71.00 Ry     beta= 0.30
     Davidson diagonalization with overlap
     ethr =  3.97E-07,  avg # of iterations =  4.9

     total cpu time spent up to now is     1794.1 secs

     total energy              =  -13813.29997911 Ry
     estimated scf accuracy    <       0.00086729 Ry

     iteration #  5     ecut=    71.00 Ry     beta= 0.30
     Davidson diagonalization with overlap
     ethr =  1.69E-07,  avg # of iterations =  2.4

     total cpu time spent up to now is     2170.8 secs

     total energy              =  -13813.30015844 Ry
     estimated scf accuracy    <       0.00027761 Ry

     iteration #  6     ecut=    71.00 Ry     beta= 0.30
     Davidson diagonalization with overlap
     ethr =  5.42E-08,  avg # of iterations =  1.7

     total cpu time spent up to now is     2440.5 secs

     total energy              =  -13813.30012221 Ry
     estimated scf accuracy    <       0.00001980 Ry

     iteration #  7     ecut=    71.00 Ry     beta= 0.30
     Davidson diagonalization with overlap
     ethr =  3.87E-09,  avg # of iterations =  4.8

     total cpu time spent up to now is     2882.1 secs

     total energy              =  -13813.30013628 Ry
     estimated scf accuracy    <       0.00001997 Ry

     iteration #  8     ecut=    71.00 Ry     beta= 0.30
     Davidson diagonalization with overlap
     ethr =  3.87E-09,  avg # of iterations =  2.0

     total cpu time spent up to now is     3182.3 secs

     total energy              =  -13813.30013718 Ry
     estimated scf accuracy    <       0.00000211 Ry

     iteration #  9     ecut=    71.00 Ry     beta= 0.30
     Davidson diagonalization with overlap
     ethr =  4.12E-10,  avg # of iterations =  2.8

     total cpu time spent up to now is     3513.3 secs

     total energy              =  -13813.30013743 Ry
     estimated scf accuracy    <       0.00000029 Ry

     iteration # 10     ecut=    71.00 Ry     beta= 0.30
     Davidson diagonalization with overlap
     ethr =  5.60E-11,  avg # of iterations =  2.8

     total cpu time spent up to now is     3883.7 secs

     total energy              =  -13813.30013751 Ry
     estimated scf accuracy    <       0.00000003 Ry

     iteration # 11     ecut=    71.00 Ry     beta= 0.30
     Davidson diagonalization with overlap
     ethr =  5.36E-12,  avg # of iterations =  4.1

     total cpu time spent up to now is     4299.5 secs

     End of self-consistent calculation

     Number of k-points >= 100: set verbosity='high' to print the bands.

     the Fermi energy is    23.1544 ev

!    total energy              =  -13813.30013753 Ry

     total all-electron energy =   -289989.690477 Ry
     estimated scf accuracy    <          1.8E-09 Ry
     smearing contrib. (-TS)   =       0.02051659 Ry
     internal energy E=F+TS    =  -13813.32065411 Ry

     The total energy is F=E-TS. E is the sum of the following terms:
     one-electron contribution =    -992.12040578 Ry
     hartree contribution      =     915.01803793 Ry
     xc contribution           =    -928.12151091 Ry
     ewald contribution        =   -5218.65250318 Ry
     one-center paw contrib.   =   -7589.44427217 Ry

     convergence has been achieved in  11 iterations

     Forces acting on atoms (cartesian axes, Ry/au):

     atom    1 type  1   force =     0.00136488   -0.00142830    0.00067050
     atom    2 type  1   force =    -0.00099763    0.00172814   -0.00307332
     atom    3 type  1   force =     0.00203669   -0.00225567    0.00382694
     atom    4 type  1   force =    -0.00165243   -0.00025681   -0.00042848
     atom    5 type  1   force =     0.00234891   -0.00088682   -0.00005158
     atom    6 type  1   force =     0.00001756   -0.00007099    0.00168566
     atom    7 type  1   force =     0.00001466    0.00125433   -0.00618359
     atom    8 type  1   force =    -0.00226081   -0.00100573    0.00182552
     atom    9 type  1   force =     0.00112463   -0.00216763    0.00027262
     atom   10 type  1   force =    -0.00222510    0.00134919   -0.00207002
     atom   11 type  1   force =    -0.00088833    0.00137209    0.00137555
     atom   12 type  1   force =     0.00104470    0.00218173    0.00056453
     atom   13 type  1   force =     0.00046043    0.00099781    0.00131512
     atom   14 type  1   force =     0.00033574    0.00114518    0.00331206
     atom   15 type  1   force =     0.00214084    0.00019664    0.00031438
     atom   16 type  1   force =    -0.00160710   -0.00124007   -0.00078988
     atom   17 type  1   force =    -0.00223442    0.00181051    0.00134647
     atom   18 type  1   force =     0.00067680   -0.00129222   -0.00090784
     atom   19 type  1   force =     0.00298771    0.00090732    0.00060946
     atom   20 type  1   force =     0.00061109    0.00076291   -0.00032780
     atom   21 type  1   force =    -0.00212541   -0.00259573    0.00092807
     atom   22 type  1   force =    -0.00163104   -0.00130436   -0.00004331
     atom   23 type  1   force =    -0.00051897    0.00153861   -0.00153115
     atom   24 type  1   force =     0.00112009   -0.00092161    0.00037899
     atom   25 type  1   force =    -0.00042078    0.00221203   -0.00364168
     atom   26 type  1   force =     0.00040901   -0.00148531   -0.00145369
     atom   27 type  1   force =    -0.00019849   -0.00172121   -0.00219305
     atom   28 type  1   force =     0.00147637    0.00286060    0.00160426
     atom   29 type  1   force =    -0.00173413    0.00074036    0.00019422
     atom   30 type  1   force =     0.00045538    0.00016558    0.00088148
     atom   31 type  1   force =    -0.00057944    0.00075434    0.00029828
     atom   32 type  1   force =     0.00044859   -0.00334491    0.00129128

     Total force =     0.016304     Total SCF correction =     0.000072


     Computing stress (Cartesian axis) and pressure

          total   stress  (Ry/bohr**3)                   (kbar)     P=        0.08
   0.00000045   0.00000003   0.00000001            0.07        0.00        0.00
   0.00000003   0.00000056  -0.00000026            0.00        0.08       -0.04
   0.00000001  -0.00000026   0.00000059            0.00       -0.04        0.09


     Writing output data file /scratch/bxp912/ru01_0020.save/
 
     init_run     :     97.36s CPU     99.32s WALL (       1 calls)
     electrons    :   4146.44s CPU   4197.98s WALL (       1 calls)
     forces       :     53.54s CPU     54.13s WALL (       1 calls)
     stress       :    327.65s CPU    330.21s WALL (       1 calls)

     Called by init_run:
     wfcinit      :     96.50s CPU     98.38s WALL (       1 calls)
     potinit      :      0.13s CPU      0.14s WALL (       1 calls)
     hinit0       :      0.46s CPU      0.47s WALL (       1 calls)

     Called by electrons:
     c_bands      :   3706.01s CPU   3748.86s WALL (      12 calls)
     sum_band     :    438.94s CPU    447.40s WALL (      12 calls)
     v_of_rho     :      0.15s CPU      0.17s WALL (      12 calls)
     newd         :      0.26s CPU      0.39s WALL (      12 calls)
     PAW_pot      :      0.96s CPU      1.03s WALL (      12 calls)
     mix_rho      :      0.17s CPU      0.19s WALL (      12 calls)

     Called by c_bands:
     init_us_2    :     17.40s CPU     17.84s WALL (    9855 calls)
     cegterg      :   3640.08s CPU   3679.71s WALL (    4380 calls)

     Called by *egterg:
     cdiaghg      :    463.14s CPU    465.74s WALL (   17903 calls)
     h_psi        :   2026.32s CPU   2056.23s WALL (   18633 calls)
     s_psi        :    160.52s CPU    161.70s WALL (   18633 calls)
     g_psi        :      4.24s CPU      4.29s WALL (   13888 calls)

     Called by h_psi:
     h_psi:calbec :    295.22s CPU    297.29s WALL (   18633 calls)
     vloc_psi     :   1564.85s CPU   1590.18s WALL (   18633 calls)
     add_vuspsi   :    155.82s CPU    158.23s WALL (   18633 calls)

     General routines
     calbec       :    463.49s CPU    466.70s WALL (   24838 calls)
     fft          :      0.22s CPU      0.24s WALL (     180 calls)
     ffts         :      0.10s CPU      0.10s WALL (     200 calls)
     fftw         :   1797.55s CPU   1826.56s WALL ( 8440868 calls)
     interpolate  :      0.03s CPU      0.03s WALL (      12 calls)
 
     Parallel routines
     fft_scatt_xy :    146.25s CPU    148.56s WALL ( 8441248 calls)
     fft_scatt_yz :   1400.53s CPU   1423.62s WALL ( 8441248 calls)
 
     PWSCF        :      1h18m CPU      1h19m WALL

 
   This run was terminated on:  10:19:15  14Mar2022            

=------------------------------------------------------------------------------=
   JOB DONE.
=------------------------------------------------------------------------------=
