
     Program PWSCF v.6.7MaX starts on  8Mar2022 at 13:14:50 

     This program is part of the open-source Quantum ESPRESSO suite
     for quantum simulation of materials; please cite
         "P. Giannozzi et al., J. Phys.:Condens. Matter 21 395502 (2009);
         "P. Giannozzi et al., J. Phys.:Condens. Matter 29 465901 (2017);
          URL http://www.quantum-espresso.org", 
     in publications or presentations arising from this work. More details at
     http://www.quantum-espresso.org/quote

     Parallel version (MPI & OpenMP), running on      72 processor cores
     Number of MPI processes:                72
     Threads/MPI process:                     1

     MPI processes distributed on     1 nodes
     R & G space division:  proc/nbgrp/npool/nimage =      72
     Reading input from ru_0036.in
Warning: card &CELL ignored
Warning: card CELL_DYNAMICS = 'BFGS', ignored
Warning: card CELL_FACTOR = 2.0, ignored
Warning: card PRESS = 0.0, ignored
Warning: card / ignored

     Current dimensions of program PWSCF are:
     Max number of different atomic species (ntypx) = 10
     Max number of k-points (npk) =  40000
     Max angular momentum in pseudopotentials (lmaxx) =  3
     file Ru.pbe-spn-kjpaw_psl.1.0.0.UPF: wavefunction(s)  4D renormalized

     Subspace diagonalization in iterative solution of the eigenvalue problem:
     one sub-group per band group will be used
     ELPA distributed-memory algorithm (size of sub-group:  8*  8 procs)

 
     Parallelization info
     --------------------
     sticks:   dense  smooth     PW     G-vecs:    dense   smooth      PW
     Min          98      65     17                 6232     3345     475
     Max          99      67     18                 6237     3351     482
     Sum        7089    4693   1281               448855   241089   34457
 


     bravais-lattice index     =            0
     lattice parameter (alat)  =      14.3940  a.u.
     unit-cell volume          =    2982.2680 (a.u.)^3
     number of atoms/cell      =           32
     number of atomic types    =            1
     number of electrons       =       512.00
     number of Kohn-Sham states=          307
     kinetic-energy cutoff     =      71.0000  Ry
     charge density cutoff     =     430.0000  Ry
     scf convergence threshold =      1.0E-08
     mixing beta               =       0.3000
     number of iterations used =           10  local-TF  mixing
     Exchange-correlation= SLA  PW   PBX  PBC
                           (   1   4   3   4   0   0   0)

     celldm(1)=  14.394024  celldm(2)=   0.000000  celldm(3)=   0.000000
     celldm(4)=   0.000000  celldm(5)=   0.000000  celldm(6)=   0.000000

     crystal axes: (cart. coord. in units of alat)
               a(1) = (   1.000000   0.000000   0.000000 )  
               a(2) = (   0.000000   1.000000   0.000000 )  
               a(3) = (   0.000000   0.000000   1.000000 )  

     reciprocal axes: (cart. coord. in units 2 pi/alat)
               b(1) = (  1.000000  0.000000  0.000000 )  
               b(2) = (  0.000000  1.000000  0.000000 )  
               b(3) = (  0.000000  0.000000  1.000000 )  


     PseudoPot. # 1 for Ru read from file:
     /rds/homes/b/bxp912/pp/Ru.pbe-spn-kjpaw_psl.1.0.0.UPF
     MD5 check sum: 0ae1f594dea09af7be8575c3a481d1ae
     Pseudo is Projector augmented-wave + core cor, Zval = 16.0
     Generated using "atomic" code by A. Dal Corso  v.5.1
     Shape of augmentation charge: PSQ
     Using radial grid of 1233 points,  6 beta functions with: 
                l(1) =   0
                l(2) =   0
                l(3) =   1
                l(4) =   1
                l(5) =   2
                l(6) =   2
     Q(r) pseudized with 0 coefficients 


     atomic species   valence    mass     pseudopotential
        Ru            16.00   101.07000     Ru( 1.00)

     No symmetry found



   Cartesian axes

     site n.     atom                  positions (alat units)
         1           Ru  tau(   1) = (   0.9898790   0.9930810   0.0015150  )
         2           Ru  tau(   2) = (   0.2504880   0.2459790   0.9951240  )
         3           Ru  tau(   3) = (   0.2533060   0.9979340   0.2471510  )
         4           Ru  tau(   4) = (   0.9977350   0.2377150   0.2527820  )
         5           Ru  tau(   5) = (   0.0008300   0.9989800   0.5044040  )
         6           Ru  tau(   6) = (   0.2414200   0.2426280   0.5012550  )
         7           Ru  tau(   7) = (   0.2397490   0.9957080   0.7559870  )
         8           Ru  tau(   8) = (   0.9960670   0.2534490   0.7473520  )
         9           Ru  tau(   9) = (   0.9969570   0.4922380   0.9976800  )
        10           Ru  tau(  10) = (   0.2481630   0.7589710   0.9899820  )
        11           Ru  tau(  11) = (   0.2561790   0.4968030   0.2492780  )
        12           Ru  tau(  12) = (   0.9966030   0.7517040   0.2478880  )
        13           Ru  tau(  13) = (   0.0030510   0.5108480   0.4933670  )
        14           Ru  tau(  14) = (   0.2431580   0.7506440   0.5018980  )
        15           Ru  tau(  15) = (   0.2593450   0.4952720   0.7434330  )
        16           Ru  tau(  16) = (   0.9981670   0.7554240   0.7548460  )
        17           Ru  tau(  17) = (   0.4971920   0.9997890   0.0030030  )
        18           Ru  tau(  18) = (   0.7599820   0.2481260   0.9931890  )
        19           Ru  tau(  19) = (   0.7450480   0.9970240   0.2561980  )
        20           Ru  tau(  20) = (   0.5019010   0.2350130   0.2488100  )
        21           Ru  tau(  21) = (   0.4899550   0.0044410   0.5029590  )
        22           Ru  tau(  22) = (   0.7528780   0.2485170   0.5034050  )
        23           Ru  tau(  23) = (   0.7471930   0.9987320   0.7477460  )
        24           Ru  tau(  24) = (   0.5020490   0.2472070   0.7540100  )
        25           Ru  tau(  25) = (   0.4989390   0.4967260   0.9992930  )
        26           Ru  tau(  26) = (   0.7486100   0.7604560   0.0105040  )
        27           Ru  tau(  27) = (   0.7545770   0.4870120   0.2509780  )
        28           Ru  tau(  28) = (   0.5080290   0.7462460   0.2530590  )
        29           Ru  tau(  29) = (   0.5004010   0.4946550   0.5058540  )
        30           Ru  tau(  30) = (   0.7544170   0.7548720   0.4998620  )
        31           Ru  tau(  31) = (   0.7433990   0.5040010   0.7382980  )
        32           Ru  tau(  32) = (   0.5051290   0.7663670   0.7515500  )

     number of k points=   365  Marzari-Vanderbilt smearing, width (Ry)=  0.0400

     Number of k-points >= 100: set verbosity='high' to print them.

     Dense  grid:   448855 G-vectors     FFT dimensions: (  96,  96,  96)

     Smooth grid:   241089 G-vectors     FFT dimensions: (  80,  80,  80)

     Estimated max dynamical RAM per process >     753.03 MB

     Estimated total dynamical RAM >      52.95 GB

     Check: negative core charge=   -0.000002

     Initial potential from superposition of free atoms

     starting charge  511.97959, renormalised to  512.00000
     Starting wfcs are  320 randomized atomic wfcs
     Checking if some PAW data can be deallocated... 

     total cpu time spent up to now is      101.9 secs

     Self-consistent Calculation

     iteration #  1     ecut=    71.00 Ry     beta= 0.30
     Davidson diagonalization with overlap
     ethr =  1.00E-02,  avg # of iterations =  3.7

     Threshold (ethr) on eigenvalues was too large:
     Diagonalizing with lowered threshold

     Davidson diagonalization with overlap
     ethr =  1.14E-04,  avg # of iterations =  6.1

     total cpu time spent up to now is      821.2 secs

     total energy              =  -13813.30438456 Ry
     estimated scf accuracy    <       0.78651119 Ry

     iteration #  2     ecut=    71.00 Ry     beta= 0.30
     Davidson diagonalization with overlap
     ethr =  1.54E-04,  avg # of iterations =  1.0

     total cpu time spent up to now is     1074.4 secs

     total energy              =  -13813.20852192 Ry
     estimated scf accuracy    <       0.31974007 Ry

     iteration #  3     ecut=    71.00 Ry     beta= 0.30
     Davidson diagonalization with overlap
     ethr =  6.24E-05,  avg # of iterations =  2.0

     total cpu time spent up to now is     1397.8 secs

     total energy              =  -13813.22248363 Ry
     estimated scf accuracy    <       0.03939636 Ry

     iteration #  4     ecut=    71.00 Ry     beta= 0.30
     Davidson diagonalization with overlap
     c_bands:  1 eigenvalues not converged
     c_bands:  1 eigenvalues not converged
     c_bands:  1 eigenvalues not converged
     c_bands:  1 eigenvalues not converged
     c_bands:  1 eigenvalues not converged
     c_bands:  1 eigenvalues not converged
     ethr =  7.69E-06,  avg # of iterations =  3.4

     total cpu time spent up to now is     1741.8 secs

     total energy              =  -13813.22792149 Ry
     estimated scf accuracy    <       0.00214218 Ry

     iteration #  5     ecut=    71.00 Ry     beta= 0.30
     Davidson diagonalization with overlap
     c_bands:  1 eigenvalues not converged
     c_bands:  1 eigenvalues not converged
     c_bands:  1 eigenvalues not converged
     ethr =  4.18E-07,  avg # of iterations =  3.3

     total cpu time spent up to now is     2035.7 secs

     total energy              =  -13813.22755388 Ry
     estimated scf accuracy    <       0.00056685 Ry

     iteration #  6     ecut=    71.00 Ry     beta= 0.30
     Davidson diagonalization with overlap
     c_bands:  1 eigenvalues not converged
     ethr =  1.11E-07,  avg # of iterations =  2.1

     total cpu time spent up to now is     2365.5 secs

     total energy              =  -13813.22764632 Ry
     estimated scf accuracy    <       0.00001218 Ry

     iteration #  7     ecut=    71.00 Ry     beta= 0.30
     Davidson diagonalization with overlap
     ethr =  2.38E-09,  avg # of iterations =  4.8

     total cpu time spent up to now is     2791.9 secs

     total energy              =  -13813.22763956 Ry
     estimated scf accuracy    <       0.00000741 Ry

     iteration #  8     ecut=    71.00 Ry     beta= 0.30
     Davidson diagonalization with overlap
     ethr =  1.45E-09,  avg # of iterations =  2.0

     total cpu time spent up to now is     3166.1 secs

     total energy              =  -13813.22764032 Ry
     estimated scf accuracy    <       0.00000158 Ry

     iteration #  9     ecut=    71.00 Ry     beta= 0.30
     Davidson diagonalization with overlap
     ethr =  3.09E-10,  avg # of iterations =  2.0

     total cpu time spent up to now is     3493.8 secs

     total energy              =  -13813.22764064 Ry
     estimated scf accuracy    <       0.00000009 Ry

     iteration # 10     ecut=    71.00 Ry     beta= 0.30
     Davidson diagonalization with overlap
     ethr =  1.73E-11,  avg # of iterations =  2.3

     total cpu time spent up to now is     3870.2 secs

     total energy              =  -13813.22764066 Ry
     estimated scf accuracy    <       0.00000004 Ry

     iteration # 11     ecut=    71.00 Ry     beta= 0.30
     Davidson diagonalization with overlap
     ethr =  7.56E-12,  avg # of iterations =  2.0

     total cpu time spent up to now is     4154.6 secs

     End of self-consistent calculation

     Number of k-points >= 100: set verbosity='high' to print the bands.

     the Fermi energy is    23.1738 ev

!    total energy              =  -13813.22764067 Ry

     total all-electron energy =   -289989.617980 Ry
     estimated scf accuracy    <          4.7E-09 Ry
     smearing contrib. (-TS)   =       0.01802287 Ry
     internal energy E=F+TS    =  -13813.24566354 Ry

     The total energy is F=E-TS. E is the sum of the following terms:
     one-electron contribution =   -1006.09737154 Ry
     hartree contribution      =     922.04662945 Ry
     xc contribution           =    -928.26791903 Ry
     ewald contribution        =   -5211.47719795 Ry
     one-center paw contrib.   =   -7589.44980447 Ry

     convergence has been achieved in  11 iterations

     Forces acting on atoms (cartesian axes, Ry/au):

     atom    1 type  1   force =     0.02553690    0.02332547   -0.00083910
     atom    2 type  1   force =    -0.00037613    0.02509578    0.01849981
     atom    3 type  1   force =    -0.01172199   -0.01172960    0.00523892
     atom    4 type  1   force =     0.00967207    0.03443501   -0.00417760
     atom    5 type  1   force =    -0.00530071   -0.00561617   -0.01362610
     atom    6 type  1   force =     0.03022663    0.03112923   -0.01612408
     atom    7 type  1   force =     0.02323377    0.01946363   -0.01729334
     atom    8 type  1   force =     0.01763894    0.01009392    0.00144490
     atom    9 type  1   force =     0.01178309    0.01926113    0.01280881
     atom   10 type  1   force =     0.01305622   -0.04248838    0.03592130
     atom   11 type  1   force =    -0.01768308    0.00346085   -0.00129777
     atom   12 type  1   force =     0.01762793   -0.01746277    0.00299548
     atom   13 type  1   force =    -0.01202917   -0.03674072    0.01934663
     atom   14 type  1   force =     0.02302291   -0.00929670   -0.00424003
     atom   15 type  1   force =    -0.02711369    0.00909606    0.01810593
     atom   16 type  1   force =     0.00156711   -0.03497406   -0.01141334
     atom   17 type  1   force =     0.00317402   -0.01277834   -0.00273111
     atom   18 type  1   force =    -0.03595292    0.02027505    0.02171130
     atom   19 type  1   force =     0.01059743    0.00940102   -0.01408088
     atom   20 type  1   force =    -0.01246788    0.06038431    0.00119399
     atom   21 type  1   force =     0.02086195   -0.01175404   -0.00581113
     atom   22 type  1   force =    -0.01342837    0.01271206   -0.00902358
     atom   23 type  1   force =     0.01357101   -0.00494837    0.00803857
     atom   24 type  1   force =    -0.00847808    0.01298386   -0.00518229
     atom   25 type  1   force =    -0.00159974    0.00530375    0.00408084
     atom   26 type  1   force =    -0.00705134   -0.04402419   -0.02887582
     atom   27 type  1   force =    -0.00621362    0.02991346   -0.01429673
     atom   28 type  1   force =    -0.03113660   -0.01168504   -0.00075134
     atom   29 type  1   force =    -0.00561816    0.01366516   -0.02635579
     atom   30 type  1   force =    -0.02085246   -0.02558544   -0.00452949
     atom   31 type  1   force =     0.01919842   -0.01503403    0.03821016
     atom   32 type  1   force =    -0.02374444   -0.05588190   -0.00694711

     Total force =     0.196824     Total SCF correction =     0.000709


     Computing stress (Cartesian axis) and pressure

          total   stress  (Ry/bohr**3)                   (kbar)     P=       15.59
   0.00009949   0.00002029  -0.00000002           14.64        2.98       -0.00
   0.00002029   0.00010863  -0.00000393            2.98       15.98       -0.58
  -0.00000002  -0.00000393   0.00010973           -0.00       -0.58       16.14


     Writing output data file /scratch/bxp912/ru01_0036.save/
 
     init_run     :     97.55s CPU     99.61s WALL (       1 calls)
     electrons    :   4002.37s CPU   4052.75s WALL (       1 calls)
     forces       :     54.19s CPU     54.77s WALL (       1 calls)
     stress       :    330.28s CPU    333.35s WALL (       1 calls)

     Called by init_run:
     wfcinit      :     97.14s CPU     99.13s WALL (       1 calls)
     potinit      :      0.16s CPU      0.18s WALL (       1 calls)
     hinit0       :      0.07s CPU      0.08s WALL (       1 calls)

     Called by electrons:
     c_bands      :   3554.00s CPU   3594.79s WALL (      12 calls)
     sum_band     :    446.78s CPU    455.93s WALL (      12 calls)
     v_of_rho     :      0.19s CPU      0.21s WALL (      12 calls)
     newd         :      0.26s CPU      0.61s WALL (      12 calls)
     PAW_pot      :      1.01s CPU      1.08s WALL (      12 calls)
     mix_rho      :      0.18s CPU      0.20s WALL (      12 calls)

     Called by c_bands:
     init_us_2    :     18.30s CPU     18.77s WALL (    9855 calls)
     cegterg      :   3488.86s CPU   3526.25s WALL (    4380 calls)

     Called by *egterg:
     cdiaghg      :    415.98s CPU    418.10s WALL (   16672 calls)
     h_psi        :   1961.72s CPU   1990.59s WALL (   17402 calls)
     s_psi        :    158.20s CPU    159.24s WALL (   17402 calls)
     g_psi        :      3.96s CPU      4.01s WALL (   12657 calls)

     Called by h_psi:
     h_psi:calbec :    291.56s CPU    293.45s WALL (   17402 calls)
     vloc_psi     :   1505.60s CPU   1530.39s WALL (   17402 calls)
     add_vuspsi   :    153.82s CPU    155.93s WALL (   17402 calls)

     General routines
     calbec       :    464.96s CPU    468.00s WALL (   23607 calls)
     fft          :      0.22s CPU      0.23s WALL (     180 calls)
     ffts         :      0.12s CPU      0.12s WALL (     212 calls)
     fftw         :   1743.93s CPU   1772.68s WALL ( 8174786 calls)
     interpolate  :      0.02s CPU      0.02s WALL (      12 calls)
 
     Parallel routines
     fft_scatt_xy :    141.51s CPU    143.84s WALL ( 8175178 calls)
     fft_scatt_yz :   1360.71s CPU   1383.44s WALL ( 8175178 calls)
 
     PWSCF        :      1h16m CPU      1h17m WALL

 
   This run was terminated on:  14:32:13   8Mar2022            

=------------------------------------------------------------------------------=
   JOB DONE.
=------------------------------------------------------------------------------=
