
     Program PWSCF v.6.7MaX starts on  8Mar2022 at  6:23:24 

     This program is part of the open-source Quantum ESPRESSO suite
     for quantum simulation of materials; please cite
         "P. Giannozzi et al., J. Phys.:Condens. Matter 21 395502 (2009);
         "P. Giannozzi et al., J. Phys.:Condens. Matter 29 465901 (2017);
          URL http://www.quantum-espresso.org", 
     in publications or presentations arising from this work. More details at
     http://www.quantum-espresso.org/quote

     Parallel version (MPI & OpenMP), running on      72 processor cores
     Number of MPI processes:                72
     Threads/MPI process:                     1

     MPI processes distributed on     1 nodes
     R & G space division:  proc/nbgrp/npool/nimage =      72
     Reading input from ru_0023.in
Warning: card &CELL ignored
Warning: card CELL_DYNAMICS = 'BFGS', ignored
Warning: card CELL_FACTOR = 2.0, ignored
Warning: card PRESS = 0.0, ignored
Warning: card / ignored

     Current dimensions of program PWSCF are:
     Max number of different atomic species (ntypx) = 10
     Max number of k-points (npk) =  40000
     Max angular momentum in pseudopotentials (lmaxx) =  3
     file Ru.pbe-spn-kjpaw_psl.1.0.0.UPF: wavefunction(s)  4D renormalized

     Subspace diagonalization in iterative solution of the eigenvalue problem:
     one sub-group per band group will be used
     ELPA distributed-memory algorithm (size of sub-group:  8*  8 procs)

 
     Parallelization info
     --------------------
     sticks:   dense  smooth     PW     G-vecs:    dense   smooth      PW
     Min          98      65     17                 6232     3345     475
     Max          99      67     18                 6237     3351     482
     Sum        7089    4693   1281               448855   241089   34457
 


     bravais-lattice index     =            0
     lattice parameter (alat)  =      14.3940  a.u.
     unit-cell volume          =    2982.2680 (a.u.)^3
     number of atoms/cell      =           32
     number of atomic types    =            1
     number of electrons       =       512.00
     number of Kohn-Sham states=          307
     kinetic-energy cutoff     =      71.0000  Ry
     charge density cutoff     =     430.0000  Ry
     scf convergence threshold =      1.0E-08
     mixing beta               =       0.3000
     number of iterations used =           10  local-TF  mixing
     Exchange-correlation= SLA  PW   PBX  PBC
                           (   1   4   3   4   0   0   0)

     celldm(1)=  14.394024  celldm(2)=   0.000000  celldm(3)=   0.000000
     celldm(4)=   0.000000  celldm(5)=   0.000000  celldm(6)=   0.000000

     crystal axes: (cart. coord. in units of alat)
               a(1) = (   1.000000   0.000000   0.000000 )  
               a(2) = (   0.000000   1.000000   0.000000 )  
               a(3) = (   0.000000   0.000000   1.000000 )  

     reciprocal axes: (cart. coord. in units 2 pi/alat)
               b(1) = (  1.000000  0.000000  0.000000 )  
               b(2) = (  0.000000  1.000000  0.000000 )  
               b(3) = (  0.000000  0.000000  1.000000 )  


     PseudoPot. # 1 for Ru read from file:
     /rds/homes/b/bxp912/pp/Ru.pbe-spn-kjpaw_psl.1.0.0.UPF
     MD5 check sum: 0ae1f594dea09af7be8575c3a481d1ae
     Pseudo is Projector augmented-wave + core cor, Zval = 16.0
     Generated using "atomic" code by A. Dal Corso  v.5.1
     Shape of augmentation charge: PSQ
     Using radial grid of 1233 points,  6 beta functions with: 
                l(1) =   0
                l(2) =   0
                l(3) =   1
                l(4) =   1
                l(5) =   2
                l(6) =   2
     Q(r) pseudized with 0 coefficients 


     atomic species   valence    mass     pseudopotential
        Ru            16.00   101.07000     Ru( 1.00)

     No symmetry found



   Cartesian axes

     site n.     atom                  positions (alat units)
         1           Ru  tau(   1) = (   0.0001560   0.9993210   0.0002340  )
         2           Ru  tau(   2) = (   0.2492990   0.2499710   0.0005150  )
         3           Ru  tau(   3) = (   0.2507980   0.9997040   0.2498950  )
         4           Ru  tau(   4) = (   0.9994500   0.2492420   0.2502110  )
         5           Ru  tau(   5) = (   0.0002750   0.9999240   0.5000580  )
         6           Ru  tau(   6) = (   0.2501180   0.2495610   0.4996910  )
         7           Ru  tau(   7) = (   0.2506410   0.0004830   0.7497450  )
         8           Ru  tau(   8) = (   0.9995400   0.2496020   0.7502380  )
         9           Ru  tau(   9) = (   0.0001760   0.5004580   0.9998990  )
        10           Ru  tau(  10) = (   0.2503460   0.7492080   0.0003960  )
        11           Ru  tau(  11) = (   0.2502240   0.5009010   0.2487170  )
        12           Ru  tau(  12) = (   0.0003410   0.7502560   0.2507510  )
        13           Ru  tau(  13) = (   0.0008280   0.5000460   0.5011810  )
        14           Ru  tau(  14) = (   0.2504910   0.7498030   0.5000320  )
        15           Ru  tau(  15) = (   0.2495970   0.5001890   0.7498350  )
        16           Ru  tau(  16) = (   0.9997610   0.7501350   0.7498790  )
        17           Ru  tau(  17) = (   0.4998090   0.0011960   0.0004510  )
        18           Ru  tau(  18) = (   0.7502340   0.2497070   0.9999220  )
        19           Ru  tau(  19) = (   0.7497470   0.9998570   0.2497570  )
        20           Ru  tau(  20) = (   0.4993290   0.2500670   0.2503080  )
        21           Ru  tau(  21) = (   0.4993650   0.9998290   0.4992950  )
        22           Ru  tau(  22) = (   0.7496320   0.2500920   0.4998720  )
        23           Ru  tau(  23) = (   0.7496750   0.0000830   0.7503750  )
        24           Ru  tau(  24) = (   0.4993410   0.2497600   0.7505140  )
        25           Ru  tau(  25) = (   0.5003890   0.4987810   0.9999940  )
        26           Ru  tau(  26) = (   0.7491100   0.7505430   0.9999360  )
        27           Ru  tau(  27) = (   0.7495140   0.5006300   0.2499450  )
        28           Ru  tau(  28) = (   0.5004970   0.7499040   0.2494770  )
        29           Ru  tau(  29) = (   0.5002130   0.4993310   0.5004080  )
        30           Ru  tau(  30) = (   0.7506500   0.7499780   0.4995740  )
        31           Ru  tau(  31) = (   0.7498910   0.4994490   0.7504950  )
        32           Ru  tau(  32) = (   0.4997660   0.7496670   0.7492950  )

     number of k points=   365  Marzari-Vanderbilt smearing, width (Ry)=  0.0400

     Number of k-points >= 100: set verbosity='high' to print them.

     Dense  grid:   448855 G-vectors     FFT dimensions: (  96,  96,  96)

     Smooth grid:   241089 G-vectors     FFT dimensions: (  80,  80,  80)

     Estimated max dynamical RAM per process >     753.03 MB

     Estimated total dynamical RAM >      52.95 GB

     Check: negative core charge=   -0.000002

     Initial potential from superposition of free atoms

     starting charge  511.97959, renormalised to  512.00000
     Starting wfcs are  320 randomized atomic wfcs
     Checking if some PAW data can be deallocated... 

     total cpu time spent up to now is       97.9 secs

     Self-consistent Calculation

     iteration #  1     ecut=    71.00 Ry     beta= 0.30
     Davidson diagonalization with overlap
     ethr =  1.00E-02,  avg # of iterations =  3.4

     Threshold (ethr) on eigenvalues was too large:
     Diagonalizing with lowered threshold

     Davidson diagonalization with overlap
     ethr =  8.37E-05,  avg # of iterations =  5.8

     total cpu time spent up to now is      793.5 secs

     total energy              =  -13813.37526901 Ry
     estimated scf accuracy    <       0.63967929 Ry

     iteration #  2     ecut=    71.00 Ry     beta= 0.30
     Davidson diagonalization with overlap
     ethr =  1.25E-04,  avg # of iterations =  1.0

     total cpu time spent up to now is     1040.1 secs

     total energy              =  -13813.23437850 Ry
     estimated scf accuracy    <       0.30120272 Ry

     iteration #  3     ecut=    71.00 Ry     beta= 0.30
     Davidson diagonalization with overlap
     ethr =  5.88E-05,  avg # of iterations =  2.3

     total cpu time spent up to now is     1366.7 secs

     total energy              =  -13813.30111668 Ry
     estimated scf accuracy    <       0.00220765 Ry

     iteration #  4     ecut=    71.00 Ry     beta= 0.30
     Davidson diagonalization with overlap
     ethr =  4.31E-07,  avg # of iterations =  4.8

     total cpu time spent up to now is     1770.7 secs

     total energy              =  -13813.30012766 Ry
     estimated scf accuracy    <       0.00085284 Ry

     iteration #  5     ecut=    71.00 Ry     beta= 0.30
     Davidson diagonalization with overlap
     ethr =  1.67E-07,  avg # of iterations =  2.5

     total cpu time spent up to now is     2143.1 secs

     total energy              =  -13813.30029921 Ry
     estimated scf accuracy    <       0.00028862 Ry

     iteration #  6     ecut=    71.00 Ry     beta= 0.30
     Davidson diagonalization with overlap
     ethr =  5.64E-08,  avg # of iterations =  2.0

     total cpu time spent up to now is     2424.8 secs

     total energy              =  -13813.30026727 Ry
     estimated scf accuracy    <       0.00001830 Ry

     iteration #  7     ecut=    71.00 Ry     beta= 0.30
     Davidson diagonalization with overlap
     ethr =  3.57E-09,  avg # of iterations =  4.8

     total cpu time spent up to now is     2858.0 secs

     total energy              =  -13813.30028084 Ry
     estimated scf accuracy    <       0.00001910 Ry

     iteration #  8     ecut=    71.00 Ry     beta= 0.30
     Davidson diagonalization with overlap
     ethr =  3.57E-09,  avg # of iterations =  2.0

     total cpu time spent up to now is     3154.4 secs

     total energy              =  -13813.30028165 Ry
     estimated scf accuracy    <       0.00000229 Ry

     iteration #  9     ecut=    71.00 Ry     beta= 0.30
     Davidson diagonalization with overlap
     ethr =  4.48E-10,  avg # of iterations =  2.7

     total cpu time spent up to now is     3463.3 secs

     total energy              =  -13813.30028172 Ry
     estimated scf accuracy    <       0.00000051 Ry

     iteration # 10     ecut=    71.00 Ry     beta= 0.30
     Davidson diagonalization with overlap
     ethr =  1.00E-10,  avg # of iterations =  3.0

     total cpu time spent up to now is     3830.6 secs

     total energy              =  -13813.30028185 Ry
     estimated scf accuracy    <       0.00000002 Ry

     iteration # 11     ecut=    71.00 Ry     beta= 0.30
     Davidson diagonalization with overlap
     ethr =  4.57E-12,  avg # of iterations =  4.2

     total cpu time spent up to now is     4244.5 secs

     End of self-consistent calculation

     Number of k-points >= 100: set verbosity='high' to print the bands.

     the Fermi energy is    23.1543 ev

!    total energy              =  -13813.30028186 Ry

     total all-electron energy =   -289989.690621 Ry
     estimated scf accuracy    <          1.1E-09 Ry
     smearing contrib. (-TS)   =       0.02051862 Ry
     internal energy E=F+TS    =  -13813.32080048 Ry

     The total energy is F=E-TS. E is the sum of the following terms:
     one-electron contribution =    -992.08005854 Ry
     hartree contribution      =     914.99814170 Ry
     xc contribution           =    -928.12111980 Ry
     ewald contribution        =   -5218.67349621 Ry
     one-center paw contrib.   =   -7589.44426764 Ry

     convergence has been achieved in  11 iterations

     Forces acting on atoms (cartesian axes, Ry/au):

     atom    1 type  1   force =    -0.00058018    0.00108183   -0.00058072
     atom    2 type  1   force =     0.00059727   -0.00007255   -0.00135909
     atom    3 type  1   force =    -0.00294740    0.00120718    0.00016248
     atom    4 type  1   force =     0.00116401    0.00233691   -0.00005921
     atom    5 type  1   force =    -0.00137152    0.00035606    0.00033196
     atom    6 type  1   force =    -0.00011461    0.00086718    0.00126793
     atom    7 type  1   force =    -0.00220583   -0.00139756    0.00007374
     atom    8 type  1   force =     0.00056400    0.00078335   -0.00009178
     atom    9 type  1   force =    -0.00089353   -0.00048997    0.00098692
     atom   10 type  1   force =    -0.00060708    0.00177803   -0.00164653
     atom   11 type  1   force =    -0.00127962   -0.00243022    0.00397254
     atom   12 type  1   force =    -0.00131459   -0.00138722   -0.00238762
     atom   13 type  1   force =    -0.00244892   -0.00093664   -0.00330845
     atom   14 type  1   force =    -0.00209050    0.00003701    0.00044392
     atom   15 type  1   force =     0.00056175   -0.00070005    0.00006048
     atom   16 type  1   force =     0.00045649   -0.00097272    0.00021104
     atom   17 type  1   force =     0.00037215   -0.00359116   -0.00132462
     atom   18 type  1   force =    -0.00013718    0.00053613   -0.00002712
     atom   19 type  1   force =     0.00151267    0.00057205    0.00130411
     atom   20 type  1   force =     0.00194065   -0.00015718   -0.00087903
     atom   21 type  1   force =     0.00263280   -0.00050930    0.00225932
     atom   22 type  1   force =     0.00110884   -0.00014636    0.00061664
     atom   23 type  1   force =     0.00130029   -0.00028363   -0.00125637
     atom   24 type  1   force =     0.00128236    0.00059875   -0.00183751
     atom   25 type  1   force =    -0.00027121    0.00301359    0.00014785
     atom   26 type  1   force =     0.00239242   -0.00181679   -0.00011540
     atom   27 type  1   force =     0.00194701   -0.00216557    0.00041297
     atom   28 type  1   force =    -0.00152117   -0.00051711    0.00154964
     atom   29 type  1   force =    -0.00039308    0.00259606   -0.00071804
     atom   30 type  1   force =    -0.00123860   -0.00044801    0.00161880
     atom   31 type  1   force =     0.00069114    0.00174206   -0.00210736
     atom   32 type  1   force =     0.00089119    0.00051588    0.00227854

     Total force =     0.014251     Total SCF correction =     0.000074


     Computing stress (Cartesian axis) and pressure

          total   stress  (Ry/bohr**3)                   (kbar)     P=        0.05
   0.00000025   0.00000007   0.00000006            0.04        0.01        0.01
   0.00000007   0.00000029  -0.00000016            0.01        0.04       -0.02
   0.00000006  -0.00000016   0.00000039            0.01       -0.02        0.06


     Writing output data file /scratch/bxp912/ru01_0023.save/
 
     init_run     :     95.60s CPU     97.61s WALL (       1 calls)
     electrons    :   4095.29s CPU   4146.67s WALL (       1 calls)
     forces       :     53.33s CPU     53.94s WALL (       1 calls)
     stress       :    319.79s CPU    322.35s WALL (       1 calls)

     Called by init_run:
     wfcinit      :     95.23s CPU     97.18s WALL (       1 calls)
     potinit      :      0.14s CPU      0.15s WALL (       1 calls)
     hinit0       :      0.09s CPU      0.09s WALL (       1 calls)

     Called by electrons:
     c_bands      :   3659.92s CPU   3702.38s WALL (      12 calls)
     sum_band     :    433.82s CPU    442.54s WALL (      12 calls)
     v_of_rho     :      0.18s CPU      0.19s WALL (      12 calls)
     newd         :      0.30s CPU      0.41s WALL (      12 calls)
     PAW_pot      :      1.00s CPU      1.05s WALL (      12 calls)
     mix_rho      :      0.15s CPU      0.16s WALL (      12 calls)

     Called by c_bands:
     init_us_2    :     17.57s CPU     18.06s WALL (    9855 calls)
     cegterg      :   3594.45s CPU   3633.53s WALL (    4380 calls)

     Called by *egterg:
     cdiaghg      :    458.69s CPU    461.02s WALL (   18063 calls)
     h_psi        :   1997.69s CPU   2027.34s WALL (   18793 calls)
     s_psi        :    157.82s CPU    159.02s WALL (   18793 calls)
     g_psi        :      4.29s CPU      4.36s WALL (   14048 calls)

     Called by h_psi:
     h_psi:calbec :    291.58s CPU    293.69s WALL (   18793 calls)
     vloc_psi     :   1541.77s CPU   1567.03s WALL (   18793 calls)
     add_vuspsi   :    153.14s CPU    155.32s WALL (   18793 calls)

     General routines
     calbec       :    460.00s CPU    463.36s WALL (   24998 calls)
     fft          :      0.31s CPU      0.32s WALL (     180 calls)
     ffts         :      0.11s CPU      0.12s WALL (     202 calls)
     fftw         :   1770.57s CPU   1799.74s WALL ( 8434094 calls)
     interpolate  :      0.03s CPU      0.03s WALL (      12 calls)
 
     Parallel routines
     fft_scatt_xy :    145.40s CPU    147.83s WALL ( 8434476 calls)
     fft_scatt_yz :   1375.31s CPU   1398.25s WALL ( 8434476 calls)
 
     PWSCF        :      1h17m CPU      1h18m WALL

 
   This run was terminated on:   7:41:52   8Mar2022            

=------------------------------------------------------------------------------=
   JOB DONE.
=------------------------------------------------------------------------------=
