
     Program PWSCF v.6.7MaX starts on 14Mar2022 at  7:40:36 

     This program is part of the open-source Quantum ESPRESSO suite
     for quantum simulation of materials; please cite
         "P. Giannozzi et al., J. Phys.:Condens. Matter 21 395502 (2009);
         "P. Giannozzi et al., J. Phys.:Condens. Matter 29 465901 (2017);
          URL http://www.quantum-espresso.org", 
     in publications or presentations arising from this work. More details at
     http://www.quantum-espresso.org/quote

     Parallel version (MPI & OpenMP), running on      72 processor cores
     Number of MPI processes:                72
     Threads/MPI process:                     1

     MPI processes distributed on     1 nodes
     R & G space division:  proc/nbgrp/npool/nimage =      72
     Reading input from ru_0019.in
Warning: card &CELL ignored
Warning: card CELL_DYNAMICS = 'BFGS', ignored
Warning: card CELL_FACTOR = 2.0, ignored
Warning: card PRESS = 0.0, ignored
Warning: card / ignored

     Current dimensions of program PWSCF are:
     Max number of different atomic species (ntypx) = 10
     Max number of k-points (npk) =  40000
     Max angular momentum in pseudopotentials (lmaxx) =  3
     file Ru.pbe-spn-kjpaw_psl.1.0.0.UPF: wavefunction(s)  4D renormalized

     Subspace diagonalization in iterative solution of the eigenvalue problem:
     one sub-group per band group will be used
     ELPA distributed-memory algorithm (size of sub-group:  8*  8 procs)

 
     Parallelization info
     --------------------
     sticks:   dense  smooth     PW     G-vecs:    dense   smooth      PW
     Min          98      65     17                 6232     3345     475
     Max          99      67     18                 6237     3351     482
     Sum        7089    4693   1281               448855   241089   34457
 


     bravais-lattice index     =            0
     lattice parameter (alat)  =      14.3940  a.u.
     unit-cell volume          =    2982.2680 (a.u.)^3
     number of atoms/cell      =           32
     number of atomic types    =            1
     number of electrons       =       512.00
     number of Kohn-Sham states=          307
     kinetic-energy cutoff     =      71.0000  Ry
     charge density cutoff     =     430.0000  Ry
     scf convergence threshold =      1.0E-08
     mixing beta               =       0.3000
     number of iterations used =           10  local-TF  mixing
     Exchange-correlation= SLA  PW   PBX  PBC
                           (   1   4   3   4   0   0   0)

     celldm(1)=  14.394024  celldm(2)=   0.000000  celldm(3)=   0.000000
     celldm(4)=   0.000000  celldm(5)=   0.000000  celldm(6)=   0.000000

     crystal axes: (cart. coord. in units of alat)
               a(1) = (   1.000000   0.000000   0.000000 )  
               a(2) = (   0.000000   1.000000   0.000000 )  
               a(3) = (   0.000000   0.000000   1.000000 )  

     reciprocal axes: (cart. coord. in units 2 pi/alat)
               b(1) = (  1.000000  0.000000  0.000000 )  
               b(2) = (  0.000000  1.000000  0.000000 )  
               b(3) = (  0.000000  0.000000  1.000000 )  


     PseudoPot. # 1 for Ru read from file:
     /rds/homes/b/bxp912/pp/Ru.pbe-spn-kjpaw_psl.1.0.0.UPF
     MD5 check sum: 0ae1f594dea09af7be8575c3a481d1ae
     Pseudo is Projector augmented-wave + core cor, Zval = 16.0
     Generated using "atomic" code by A. Dal Corso  v.5.1
     Shape of augmentation charge: PSQ
     Using radial grid of 1233 points,  6 beta functions with: 
                l(1) =   0
                l(2) =   0
                l(3) =   1
                l(4) =   1
                l(5) =   2
                l(6) =   2
     Q(r) pseudized with 0 coefficients 


     atomic species   valence    mass     pseudopotential
        Ru            16.00   101.07000     Ru( 1.00)

     No symmetry found



   Cartesian axes

     site n.     atom                  positions (alat units)
         1           Ru  tau(   1) = (   0.0005320   0.0001520   0.9998300  )
         2           Ru  tau(   2) = (   0.2504310   0.2494460   0.9995510  )
         3           Ru  tau(   3) = (   0.2494240   0.0008980   0.2495670  )
         4           Ru  tau(   4) = (   0.0001380   0.2508260   0.2503670  )
         5           Ru  tau(   5) = (   0.9999720   0.0000000   0.5000050  )
         6           Ru  tau(   6) = (   0.2499450   0.2492920   0.5001670  )
         7           Ru  tau(   7) = (   0.2498630   0.9993740   0.7502000  )
         8           Ru  tau(   8) = (   0.9998340   0.2497760   0.7497430  )
         9           Ru  tau(   9) = (   0.9999150   0.5011690   0.9994570  )
        10           Ru  tau(  10) = (   0.2502430   0.7503420   0.9996600  )
        11           Ru  tau(  11) = (   0.2489700   0.4996180   0.2503870  )
        12           Ru  tau(  12) = (   0.9994710   0.7510330   0.2508650  )
        13           Ru  tau(  13) = (   0.0001080   0.4997940   0.5000760  )
        14           Ru  tau(  14) = (   0.2501160   0.7493650   0.4995890  )
        15           Ru  tau(  15) = (   0.2502710   0.5001090   0.7497390  )
        16           Ru  tau(  16) = (   0.9993160   0.7497930   0.7489280  )
        17           Ru  tau(  17) = (   0.4998750   0.9997310   0.9995650  )
        18           Ru  tau(  18) = (   0.7502430   0.2500530   0.0004900  )
        19           Ru  tau(  19) = (   0.7499070   0.9998110   0.2499390  )
        20           Ru  tau(  20) = (   0.5001600   0.2501300   0.2497680  )
        21           Ru  tau(  21) = (   0.5001850   0.9999050   0.4998230  )
        22           Ru  tau(  22) = (   0.7507700   0.2508050   0.5006220  )
        23           Ru  tau(  23) = (   0.7504790   0.0001380   0.7499650  )
        24           Ru  tau(  24) = (   0.4995700   0.2499060   0.7495430  )
        25           Ru  tau(  25) = (   0.4992820   0.5000400   0.0000150  )
        26           Ru  tau(  26) = (   0.7495940   0.7505550   0.9999950  )
        27           Ru  tau(  27) = (   0.7496760   0.5002330   0.2491080  )
        28           Ru  tau(  28) = (   0.4999890   0.7496440   0.2493650  )
        29           Ru  tau(  29) = (   0.5005580   0.4997250   0.4997140  )
        30           Ru  tau(  30) = (   0.7496770   0.7495370   0.5002150  )
        31           Ru  tau(  31) = (   0.7498880   0.5000150   0.7502250  )
        32           Ru  tau(  32) = (   0.5005910   0.7506070   0.7498120  )

     number of k points=   365  Marzari-Vanderbilt smearing, width (Ry)=  0.0400

     Number of k-points >= 100: set verbosity='high' to print them.

     Dense  grid:   448855 G-vectors     FFT dimensions: (  96,  96,  96)

     Smooth grid:   241089 G-vectors     FFT dimensions: (  80,  80,  80)

     Estimated max dynamical RAM per process >     753.03 MB

     Estimated total dynamical RAM >      52.95 GB

     Check: negative core charge=   -0.000002

     Initial potential from superposition of free atoms

     starting charge  511.97959, renormalised to  512.00000
     Starting wfcs are  320 randomized atomic wfcs
     Checking if some PAW data can be deallocated... 

     total cpu time spent up to now is       99.1 secs

     Self-consistent Calculation

     iteration #  1     ecut=    71.00 Ry     beta= 0.30
     Davidson diagonalization with overlap
     ethr =  1.00E-02,  avg # of iterations =  3.4

     Threshold (ethr) on eigenvalues was too large:
     Diagonalizing with lowered threshold

     Davidson diagonalization with overlap
     ethr =  8.38E-05,  avg # of iterations =  5.7

     total cpu time spent up to now is      801.7 secs

     total energy              =  -13813.37528864 Ry
     estimated scf accuracy    <       0.64025013 Ry

     iteration #  2     ecut=    71.00 Ry     beta= 0.30
     Davidson diagonalization with overlap
     ethr =  1.25E-04,  avg # of iterations =  1.0

     total cpu time spent up to now is     1052.1 secs

     total energy              =  -13813.23537429 Ry
     estimated scf accuracy    <       0.30109932 Ry

     iteration #  3     ecut=    71.00 Ry     beta= 0.30
     Davidson diagonalization with overlap
     ethr =  5.88E-05,  avg # of iterations =  2.2

     total cpu time spent up to now is     1379.5 secs

     total energy              =  -13813.30127373 Ry
     estimated scf accuracy    <       0.00201964 Ry

     iteration #  4     ecut=    71.00 Ry     beta= 0.30
     Davidson diagonalization with overlap
     ethr =  3.94E-07,  avg # of iterations =  4.8

     total cpu time spent up to now is     1786.6 secs

     total energy              =  -13813.30020851 Ry
     estimated scf accuracy    <       0.00085983 Ry

     iteration #  5     ecut=    71.00 Ry     beta= 0.30
     Davidson diagonalization with overlap
     ethr =  1.68E-07,  avg # of iterations =  2.4

     total cpu time spent up to now is     2163.1 secs

     total energy              =  -13813.30038605 Ry
     estimated scf accuracy    <       0.00027481 Ry

     iteration #  6     ecut=    71.00 Ry     beta= 0.30
     Davidson diagonalization with overlap
     ethr =  5.37E-08,  avg # of iterations =  1.7

     total cpu time spent up to now is     2429.8 secs

     total energy              =  -13813.30034933 Ry
     estimated scf accuracy    <       0.00001968 Ry

     iteration #  7     ecut=    71.00 Ry     beta= 0.30
     Davidson diagonalization with overlap
     ethr =  3.84E-09,  avg # of iterations =  4.8

     total cpu time spent up to now is     2869.2 secs

     total energy              =  -13813.30036335 Ry
     estimated scf accuracy    <       0.00002010 Ry

     iteration #  8     ecut=    71.00 Ry     beta= 0.30
     Davidson diagonalization with overlap
     ethr =  3.84E-09,  avg # of iterations =  2.0

     total cpu time spent up to now is     3168.6 secs

     total energy              =  -13813.30036428 Ry
     estimated scf accuracy    <       0.00000219 Ry

     iteration #  9     ecut=    71.00 Ry     beta= 0.30
     Davidson diagonalization with overlap
     ethr =  4.28E-10,  avg # of iterations =  2.7

     total cpu time spent up to now is     3493.1 secs

     total energy              =  -13813.30036444 Ry
     estimated scf accuracy    <       0.00000040 Ry

     iteration # 10     ecut=    71.00 Ry     beta= 0.30
     Davidson diagonalization with overlap
     ethr =  7.84E-11,  avg # of iterations =  3.0

     total cpu time spent up to now is     3862.4 secs

     total energy              =  -13813.30036453 Ry
     estimated scf accuracy    <       0.00000003 Ry

     iteration # 11     ecut=    71.00 Ry     beta= 0.30
     Davidson diagonalization with overlap
     ethr =  6.40E-12,  avg # of iterations =  4.1

     total cpu time spent up to now is     4275.5 secs

     End of self-consistent calculation

     Number of k-points >= 100: set verbosity='high' to print the bands.

     the Fermi energy is    23.1543 ev

!    total energy              =  -13813.30036455 Ry

     total all-electron energy =   -289989.690704 Ry
     estimated scf accuracy    <          1.3E-09 Ry
     smearing contrib. (-TS)   =       0.02052842 Ry
     internal energy E=F+TS    =  -13813.32089298 Ry

     The total energy is F=E-TS. E is the sum of the following terms:
     one-electron contribution =    -992.05486355 Ry
     hartree contribution      =     914.98548143 Ry
     xc contribution           =    -928.12086301 Ry
     ewald contribution        =   -5218.68639196 Ry
     one-center paw contrib.   =   -7589.44425588 Ry

     convergence has been achieved in  11 iterations

     Forces acting on atoms (cartesian axes, Ry/au):

     atom    1 type  1   force =    -0.00205175   -0.00024619    0.00040952
     atom    2 type  1   force =    -0.00097293    0.00199349    0.00107876
     atom    3 type  1   force =     0.00186907   -0.00224549    0.00089961
     atom    4 type  1   force =    -0.00082492   -0.00234083   -0.00230895
     atom    5 type  1   force =     0.00046589    0.00062314   -0.00076539
     atom    6 type  1   force =     0.00032822    0.00171264   -0.00061700
     atom    7 type  1   force =     0.00037700    0.00148569   -0.00066765
     atom    8 type  1   force =     0.00096176    0.00163911    0.00135400
     atom    9 type  1   force =     0.00049462   -0.00310486    0.00138559
     atom   10 type  1   force =    -0.00111330   -0.00161523    0.00101486
     atom   11 type  1   force =     0.00255002    0.00084933   -0.00126605
     atom   12 type  1   force =     0.00209986   -0.00281052   -0.00300384
     atom   13 type  1   force =    -0.00055950    0.00068467   -0.00052084
     atom   14 type  1   force =    -0.00003555    0.00197076    0.00027590
     atom   15 type  1   force =    -0.00042202    0.00033934   -0.00004900
     atom   16 type  1   force =     0.00173796    0.00092363    0.00286695
     atom   17 type  1   force =     0.00036288    0.00154736    0.00111854
     atom   18 type  1   force =    -0.00060073    0.00005965   -0.00100727
     atom   19 type  1   force =    -0.00073869    0.00060502    0.00016109
     atom   20 type  1   force =    -0.00066517    0.00051315    0.00024901
     atom   21 type  1   force =    -0.00029557    0.00005905    0.00000215
     atom   22 type  1   force =    -0.00208820   -0.00212843   -0.00220693
     atom   23 type  1   force =    -0.00130412    0.00013946   -0.00082911
     atom   24 type  1   force =     0.00084431   -0.00003122    0.00079425
     atom   25 type  1   force =     0.00192838   -0.00021470   -0.00024945
     atom   26 type  1   force =     0.00146862   -0.00101850    0.00001226
     atom   27 type  1   force =     0.00066532    0.00002428    0.00184918
     atom   28 type  1   force =    -0.00062154    0.00151121    0.00072970
     atom   29 type  1   force =    -0.00177742    0.00053528    0.00006143
     atom   30 type  1   force =     0.00055200    0.00113441   -0.00080688
     atom   31 type  1   force =    -0.00044590   -0.00066025   -0.00045298
     atom   32 type  1   force =    -0.00218860   -0.00193446    0.00048854

     Total force =     0.012740     Total SCF correction =     0.000054


     Computing stress (Cartesian axis) and pressure

          total   stress  (Ry/bohr**3)                   (kbar)     P=        0.02
   0.00000015   0.00000006   0.00000006            0.02        0.01        0.01
   0.00000006   0.00000012   0.00000011            0.01        0.02        0.02
   0.00000006   0.00000011   0.00000011            0.01        0.02        0.02


     Writing output data file /scratch/bxp912/ru01_0019.save/
 
     init_run     :     94.68s CPU     96.82s WALL (       1 calls)
     electrons    :   4125.53s CPU   4176.35s WALL (       1 calls)
     forces       :     53.82s CPU     54.20s WALL (       1 calls)
     stress       :    321.53s CPU    324.63s WALL (       1 calls)

     Called by init_run:
     wfcinit      :     94.20s CPU     96.20s WALL (       1 calls)
     potinit      :      0.16s CPU      0.18s WALL (       1 calls)
     hinit0       :      0.15s CPU      0.22s WALL (       1 calls)

     Called by electrons:
     c_bands      :   3686.83s CPU   3729.16s WALL (      12 calls)
     sum_band     :    437.11s CPU    445.38s WALL (      12 calls)
     v_of_rho     :      0.19s CPU      0.21s WALL (      12 calls)
     newd         :      0.33s CPU      0.45s WALL (      12 calls)
     PAW_pot      :      0.99s CPU      1.06s WALL (      12 calls)
     mix_rho      :      0.15s CPU      0.18s WALL (      12 calls)

     Called by c_bands:
     init_us_2    :     17.56s CPU     18.01s WALL (    9855 calls)
     cegterg      :   3620.84s CPU   3659.88s WALL (    4380 calls)

     Called by *egterg:
     cdiaghg      :    457.31s CPU    459.65s WALL (   17859 calls)
     h_psi        :   2017.50s CPU   2047.13s WALL (   18589 calls)
     s_psi        :    161.33s CPU    162.45s WALL (   18589 calls)
     g_psi        :      4.04s CPU      4.10s WALL (   13844 calls)

     Called by h_psi:
     h_psi:calbec :    296.19s CPU    298.14s WALL (   18589 calls)
     vloc_psi     :   1552.39s CPU   1577.66s WALL (   18589 calls)
     add_vuspsi   :    158.58s CPU    160.90s WALL (   18589 calls)

     General routines
     calbec       :    479.24s CPU    482.66s WALL (   24794 calls)
     fft          :      0.33s CPU      0.41s WALL (     180 calls)
     ffts         :      0.11s CPU      0.12s WALL (     200 calls)
     fftw         :   1782.08s CPU   1810.98s WALL ( 8424060 calls)
     interpolate  :      0.03s CPU      0.03s WALL (      12 calls)
 
     Parallel routines
     fft_scatt_xy :    145.00s CPU    147.32s WALL ( 8424440 calls)
     fft_scatt_yz :   1386.27s CPU   1409.11s WALL ( 8424440 calls)
 
     PWSCF        :      1h17m CPU      1h19m WALL

 
   This run was terminated on:   8:59:38  14Mar2022            

=------------------------------------------------------------------------------=
   JOB DONE.
=------------------------------------------------------------------------------=
