
     Program PWSCF v.6.7MaX starts on  8Mar2022 at 13: 1:29 

     This program is part of the open-source Quantum ESPRESSO suite
     for quantum simulation of materials; please cite
         "P. Giannozzi et al., J. Phys.:Condens. Matter 21 395502 (2009);
         "P. Giannozzi et al., J. Phys.:Condens. Matter 29 465901 (2017);
          URL http://www.quantum-espresso.org", 
     in publications or presentations arising from this work. More details at
     http://www.quantum-espresso.org/quote

     Parallel version (MPI & OpenMP), running on      72 processor cores
     Number of MPI processes:                72
     Threads/MPI process:                     1

     MPI processes distributed on     1 nodes
     R & G space division:  proc/nbgrp/npool/nimage =      72
     Reading input from ru_0055.in
Warning: card &CELL ignored
Warning: card CELL_DYNAMICS = 'BFGS', ignored
Warning: card CELL_FACTOR = 2.0, ignored
Warning: card PRESS = 0.0, ignored
Warning: card / ignored

     Current dimensions of program PWSCF are:
     Max number of different atomic species (ntypx) = 10
     Max number of k-points (npk) =  40000
     Max angular momentum in pseudopotentials (lmaxx) =  3
     file Ru.pbe-spn-kjpaw_psl.1.0.0.UPF: wavefunction(s)  4D renormalized

     Subspace diagonalization in iterative solution of the eigenvalue problem:
     one sub-group per band group will be used
     ELPA distributed-memory algorithm (size of sub-group:  8*  8 procs)

 
     Parallelization info
     --------------------
     sticks:   dense  smooth     PW     G-vecs:    dense   smooth      PW
     Min          98      65     17                 6232     3345     475
     Max          99      67     18                 6237     3351     482
     Sum        7089    4693   1281               448855   241089   34457
 


     bravais-lattice index     =            0
     lattice parameter (alat)  =      14.3940  a.u.
     unit-cell volume          =    2982.2680 (a.u.)^3
     number of atoms/cell      =           32
     number of atomic types    =            1
     number of electrons       =       512.00
     number of Kohn-Sham states=          307
     kinetic-energy cutoff     =      71.0000  Ry
     charge density cutoff     =     430.0000  Ry
     scf convergence threshold =      1.0E-08
     mixing beta               =       0.3000
     number of iterations used =           10  local-TF  mixing
     Exchange-correlation= SLA  PW   PBX  PBC
                           (   1   4   3   4   0   0   0)

     celldm(1)=  14.394024  celldm(2)=   0.000000  celldm(3)=   0.000000
     celldm(4)=   0.000000  celldm(5)=   0.000000  celldm(6)=   0.000000

     crystal axes: (cart. coord. in units of alat)
               a(1) = (   1.000000   0.000000   0.000000 )  
               a(2) = (   0.000000   1.000000   0.000000 )  
               a(3) = (   0.000000   0.000000   1.000000 )  

     reciprocal axes: (cart. coord. in units 2 pi/alat)
               b(1) = (  1.000000  0.000000  0.000000 )  
               b(2) = (  0.000000  1.000000  0.000000 )  
               b(3) = (  0.000000  0.000000  1.000000 )  


     PseudoPot. # 1 for Ru read from file:
     /rds/homes/b/bxp912/pp/Ru.pbe-spn-kjpaw_psl.1.0.0.UPF
     MD5 check sum: 0ae1f594dea09af7be8575c3a481d1ae
     Pseudo is Projector augmented-wave + core cor, Zval = 16.0
     Generated using "atomic" code by A. Dal Corso  v.5.1
     Shape of augmentation charge: PSQ
     Using radial grid of 1233 points,  6 beta functions with: 
                l(1) =   0
                l(2) =   0
                l(3) =   1
                l(4) =   1
                l(5) =   2
                l(6) =   2
     Q(r) pseudized with 0 coefficients 


     atomic species   valence    mass     pseudopotential
        Ru            16.00   101.07000     Ru( 1.00)

     No symmetry found



   Cartesian axes

     site n.     atom                  positions (alat units)
         1           Ru  tau(   1) = (   0.9947530   0.9998080   0.9997400  )
         2           Ru  tau(   2) = (   0.2474980   0.2439210   0.9942930  )
         3           Ru  tau(   3) = (   0.2466460   0.9963290   0.2519810  )
         4           Ru  tau(   4) = (   0.9996870   0.2530170   0.2424010  )
         5           Ru  tau(   5) = (   0.0021470   0.0021210   0.4998920  )
         6           Ru  tau(   6) = (   0.2474320   0.2415450   0.4994070  )
         7           Ru  tau(   7) = (   0.2463460   0.9922590   0.7409310  )
         8           Ru  tau(   8) = (   0.0010910   0.2488220   0.7463560  )
         9           Ru  tau(   9) = (   0.0052190   0.5011530   0.9943180  )
        10           Ru  tau(  10) = (   0.2553910   0.7562930   0.0052370  )
        11           Ru  tau(  11) = (   0.2533710   0.5025640   0.2496930  )
        12           Ru  tau(  12) = (   0.0047780   0.7547770   0.2493530  )
        13           Ru  tau(  13) = (   0.9972110   0.5036560   0.5014450  )
        14           Ru  tau(  14) = (   0.2497360   0.7441600   0.5036910  )
        15           Ru  tau(  15) = (   0.2540650   0.4959640   0.7482910  )
        16           Ru  tau(  16) = (   0.9955660   0.7486580   0.7460880  )
        17           Ru  tau(  17) = (   0.5032860   0.9964760   0.0033870  )
        18           Ru  tau(  18) = (   0.7509530   0.2507630   0.0016320  )
        19           Ru  tau(  19) = (   0.7563130   0.9931680   0.2516840  )
        20           Ru  tau(  20) = (   0.5039410   0.2553190   0.2539790  )
        21           Ru  tau(  21) = (   0.4961730   0.9970950   0.5058090  )
        22           Ru  tau(  22) = (   0.7546230   0.2508580   0.5049840  )
        23           Ru  tau(  23) = (   0.7409410   0.9973780   0.7471910  )
        24           Ru  tau(  24) = (   0.5051710   0.2510760   0.7494800  )
        25           Ru  tau(  25) = (   0.5054770   0.4996990   0.0062020  )
        26           Ru  tau(  26) = (   0.7500010   0.7557070   0.9999180  )
        27           Ru  tau(  27) = (   0.7420020   0.5029200   0.2461870  )
        28           Ru  tau(  28) = (   0.5005920   0.7535960   0.2474570  )
        29           Ru  tau(  29) = (   0.4984440   0.5052520   0.5041950  )
        30           Ru  tau(  30) = (   0.7446710   0.7461050   0.4978520  )
        31           Ru  tau(  31) = (   0.7524560   0.4991630   0.7467810  )
        32           Ru  tau(  32) = (   0.5034940   0.7501300   0.7548650  )

     number of k points=   365  Marzari-Vanderbilt smearing, width (Ry)=  0.0400

     Number of k-points >= 100: set verbosity='high' to print them.

     Dense  grid:   448855 G-vectors     FFT dimensions: (  96,  96,  96)

     Smooth grid:   241089 G-vectors     FFT dimensions: (  80,  80,  80)

     Estimated max dynamical RAM per process >     753.03 MB

     Estimated total dynamical RAM >      52.95 GB

     Check: negative core charge=   -0.000002

     Initial potential from superposition of free atoms

     starting charge  511.97959, renormalised to  512.00000
     Starting wfcs are  320 randomized atomic wfcs
     Checking if some PAW data can be deallocated... 

     total cpu time spent up to now is      100.8 secs

     Self-consistent Calculation

     iteration #  1     ecut=    71.00 Ry     beta= 0.30
     Davidson diagonalization with overlap
     ethr =  1.00E-02,  avg # of iterations =  3.7

     Threshold (ethr) on eigenvalues was too large:
     Diagonalizing with lowered threshold

     Davidson diagonalization with overlap
     ethr =  9.66E-05,  avg # of iterations =  6.1

     total cpu time spent up to now is      817.3 secs

     total energy              =  -13813.34465251 Ry
     estimated scf accuracy    <       0.69926177 Ry

     iteration #  2     ecut=    71.00 Ry     beta= 0.30
     Davidson diagonalization with overlap
     ethr =  1.37E-04,  avg # of iterations =  1.0

     total cpu time spent up to now is     1067.3 secs

     total energy              =  -13813.22242853 Ry
     estimated scf accuracy    <       0.31608378 Ry

     iteration #  3     ecut=    71.00 Ry     beta= 0.30
     Davidson diagonalization with overlap
     ethr =  6.17E-05,  avg # of iterations =  2.1

     total cpu time spent up to now is     1391.3 secs

     total energy              =  -13813.26630652 Ry
     estimated scf accuracy    <       0.01065628 Ry

     iteration #  4     ecut=    71.00 Ry     beta= 0.30
     Davidson diagonalization with overlap
     c_bands:  1 eigenvalues not converged
     c_bands:  1 eigenvalues not converged
     c_bands:  1 eigenvalues not converged
     c_bands:  1 eigenvalues not converged
     c_bands:  1 eigenvalues not converged
     c_bands:  1 eigenvalues not converged
     c_bands:  1 eigenvalues not converged
     ethr =  2.08E-06,  avg # of iterations =  5.3

     total cpu time spent up to now is     1794.2 secs

     total energy              =  -13813.26624533 Ry
     estimated scf accuracy    <       0.00166820 Ry

     iteration #  5     ecut=    71.00 Ry     beta= 0.30
     Davidson diagonalization with overlap
     c_bands:  1 eigenvalues not converged
     c_bands:  1 eigenvalues not converged
     ethr =  3.26E-07,  avg # of iterations =  2.1

     total cpu time spent up to now is     2119.6 secs

     total energy              =  -13813.26640385 Ry
     estimated scf accuracy    <       0.00018423 Ry

     iteration #  6     ecut=    71.00 Ry     beta= 0.30
     Davidson diagonalization with overlap
     ethr =  3.60E-08,  avg # of iterations =  2.4

     total cpu time spent up to now is     2448.1 secs

     total energy              =  -13813.26640996 Ry
     estimated scf accuracy    <       0.00001460 Ry

     iteration #  7     ecut=    71.00 Ry     beta= 0.30
     Davidson diagonalization with overlap
     ethr =  2.85E-09,  avg # of iterations =  3.3

     total cpu time spent up to now is     2816.5 secs

     total energy              =  -13813.26640769 Ry
     estimated scf accuracy    <       0.00000670 Ry

     iteration #  8     ecut=    71.00 Ry     beta= 0.30
     Davidson diagonalization with overlap
     ethr =  1.31E-09,  avg # of iterations =  2.0

     total cpu time spent up to now is     3187.4 secs

     total energy              =  -13813.26640777 Ry
     estimated scf accuracy    <       0.00000094 Ry

     iteration #  9     ecut=    71.00 Ry     beta= 0.30
     Davidson diagonalization with overlap
     ethr =  1.84E-10,  avg # of iterations =  2.3

     total cpu time spent up to now is     3560.4 secs

     total energy              =  -13813.26640810 Ry
     estimated scf accuracy    <       0.00000015 Ry

     iteration # 10     ecut=    71.00 Ry     beta= 0.30
     Davidson diagonalization with overlap
     ethr =  2.92E-11,  avg # of iterations =  2.3

     total cpu time spent up to now is     3896.7 secs

     total energy              =  -13813.26640813 Ry
     estimated scf accuracy    <       0.00000002 Ry

     iteration # 11     ecut=    71.00 Ry     beta= 0.30
     Davidson diagonalization with overlap
     ethr =  3.27E-12,  avg # of iterations =  3.4

     total cpu time spent up to now is     4238.5 secs

     End of self-consistent calculation

     Number of k-points >= 100: set verbosity='high' to print the bands.

     the Fermi energy is    23.1658 ev

!    total energy              =  -13813.26640813 Ry

     total all-electron energy =   -289989.656747 Ry
     estimated scf accuracy    <          3.5E-09 Ry
     smearing contrib. (-TS)   =       0.01776493 Ry
     internal energy E=F+TS    =  -13813.28417306 Ry

     The total energy is F=E-TS. E is the sum of the following terms:
     one-electron contribution =    -999.67520358 Ry
     hartree contribution      =     918.80352483 Ry
     xc contribution           =    -928.20378077 Ry
     ewald contribution        =   -5214.76114073 Ry
     one-center paw contrib.   =   -7589.44757280 Ry

     convergence has been achieved in  11 iterations

     Forces acting on atoms (cartesian axes, Ry/au):

     atom    1 type  1   force =     0.02025738    0.00276152    0.00155437
     atom    2 type  1   force =     0.00956394    0.01664493    0.02032898
     atom    3 type  1   force =     0.00323695    0.01581931   -0.01092525
     atom    4 type  1   force =     0.00740070   -0.00248956    0.01535265
     atom    5 type  1   force =    -0.00986363   -0.00189101   -0.00216896
     atom    6 type  1   force =     0.00699062    0.02680552    0.00258124
     atom    7 type  1   force =     0.00966048    0.02118496    0.03129925
     atom    8 type  1   force =     0.00481832    0.00342235    0.01204855
     atom    9 type  1   force =    -0.00840571   -0.00582840    0.01885505
     atom   10 type  1   force =    -0.02033412   -0.02147284   -0.01610730
     atom   11 type  1   force =    -0.00739091   -0.01833882   -0.00762672
     atom   12 type  1   force =    -0.00830521   -0.01909756   -0.00074154
     atom   13 type  1   force =     0.01141811   -0.01532210   -0.00731595
     atom   14 type  1   force =     0.00109664    0.00789968   -0.01265097
     atom   15 type  1   force =    -0.01923941    0.00262141    0.00349161
     atom   16 type  1   force =     0.01461243    0.00693377    0.00408119
     atom   17 type  1   force =    -0.00443487    0.01947108   -0.00233913
     atom   18 type  1   force =    -0.00238971    0.00298997   -0.00485101
     atom   19 type  1   force =    -0.01951941    0.02337877   -0.00992030
     atom   20 type  1   force =    -0.00851380   -0.01471791   -0.00903123
     atom   21 type  1   force =     0.00654039    0.00959869   -0.01621372
     atom   22 type  1   force =    -0.01523631   -0.00436653   -0.01975236
     atom   23 type  1   force =     0.02863861    0.00905846    0.00583080
     atom   24 type  1   force =    -0.01684199    0.00214306   -0.00305025
     atom   25 type  1   force =    -0.02222463   -0.00567198   -0.01846656
     atom   26 type  1   force =     0.00281346   -0.02030697    0.00633618
     atom   27 type  1   force =     0.03155869   -0.01283335    0.01149043
     atom   28 type  1   force =    -0.00271108   -0.00421070    0.00677200
     atom   29 type  1   force =     0.00775316   -0.02037682   -0.01094962
     atom   30 type  1   force =     0.01631069    0.00861855    0.01068289
     atom   31 type  1   force =    -0.00739420   -0.00821557    0.01241377
     atom   32 type  1   force =    -0.00986561   -0.00421190   -0.01100808

     Total force =     0.128892     Total SCF correction =     0.000435


     Computing stress (Cartesian axis) and pressure

          total   stress  (Ry/bohr**3)                   (kbar)     P=        8.74
   0.00006666   0.00001383   0.00001414            9.81        2.03        2.08
   0.00001383   0.00005593   0.00000971            2.03        8.23        1.43
   0.00001414   0.00000971   0.00005575            2.08        1.43        8.20


     Writing output data file /scratch/bxp912/ru01_0055.save/
 
     init_run     :     96.56s CPU     98.52s WALL (       1 calls)
     electrons    :   4086.66s CPU   4137.72s WALL (       1 calls)
     forces       :     52.61s CPU     53.07s WALL (       1 calls)
     stress       :    325.20s CPU    327.97s WALL (       1 calls)

     Called by init_run:
     wfcinit      :     95.77s CPU     97.65s WALL (       1 calls)
     potinit      :      0.14s CPU      0.16s WALL (       1 calls)
     hinit0       :      0.46s CPU      0.48s WALL (       1 calls)

     Called by electrons:
     c_bands      :   3643.73s CPU   3687.00s WALL (      12 calls)
     sum_band     :    441.37s CPU    448.87s WALL (      12 calls)
     v_of_rho     :      0.15s CPU      0.18s WALL (      12 calls)
     newd         :      0.32s CPU      0.47s WALL (      12 calls)
     PAW_pot      :      1.00s CPU      1.07s WALL (      12 calls)
     mix_rho      :      0.14s CPU      0.19s WALL (      12 calls)

     Called by c_bands:
     init_us_2    :     17.50s CPU     17.87s WALL (    9855 calls)
     cegterg      :   3577.91s CPU   3618.49s WALL (    4380 calls)

     Called by *egterg:
     cdiaghg      :    442.26s CPU    444.74s WALL (   17139 calls)
     h_psi        :   2009.32s CPU   2039.35s WALL (   17869 calls)
     s_psi        :    159.79s CPU    160.91s WALL (   17869 calls)
     g_psi        :      4.35s CPU      4.41s WALL (   13124 calls)

     Called by h_psi:
     h_psi:calbec :    293.85s CPU    295.82s WALL (   17869 calls)
     vloc_psi     :   1551.28s CPU   1577.07s WALL (   17869 calls)
     add_vuspsi   :    153.31s CPU    155.47s WALL (   17869 calls)

     General routines
     calbec       :    494.45s CPU    497.80s WALL (   24074 calls)
     fft          :      0.22s CPU      0.25s WALL (     180 calls)
     ffts         :      0.09s CPU      0.10s WALL (     206 calls)
     fftw         :   1786.10s CPU   1815.47s WALL ( 8426080 calls)
     interpolate  :      0.03s CPU      0.03s WALL (      12 calls)
 
     Parallel routines
     fft_scatt_xy :    146.24s CPU    148.58s WALL ( 8426466 calls)
     fft_scatt_yz :   1389.63s CPU   1412.85s WALL ( 8426466 calls)
 
     PWSCF        :      1h17m CPU      1h18m WALL

 
   This run was terminated on:  14:20: 7   8Mar2022            

=------------------------------------------------------------------------------=
   JOB DONE.
=------------------------------------------------------------------------------=
