
     Program PWSCF v.6.7MaX starts on 14Mar2022 at  6:21:14 

     This program is part of the open-source Quantum ESPRESSO suite
     for quantum simulation of materials; please cite
         "P. Giannozzi et al., J. Phys.:Condens. Matter 21 395502 (2009);
         "P. Giannozzi et al., J. Phys.:Condens. Matter 29 465901 (2017);
          URL http://www.quantum-espresso.org", 
     in publications or presentations arising from this work. More details at
     http://www.quantum-espresso.org/quote

     Parallel version (MPI & OpenMP), running on      72 processor cores
     Number of MPI processes:                72
     Threads/MPI process:                     1

     MPI processes distributed on     1 nodes
     R & G space division:  proc/nbgrp/npool/nimage =      72
     Reading input from ru_0018.in
Warning: card &CELL ignored
Warning: card CELL_DYNAMICS = 'BFGS', ignored
Warning: card CELL_FACTOR = 2.0, ignored
Warning: card PRESS = 0.0, ignored
Warning: card / ignored

     Current dimensions of program PWSCF are:
     Max number of different atomic species (ntypx) = 10
     Max number of k-points (npk) =  40000
     Max angular momentum in pseudopotentials (lmaxx) =  3
     file Ru.pbe-spn-kjpaw_psl.1.0.0.UPF: wavefunction(s)  4D renormalized

     Subspace diagonalization in iterative solution of the eigenvalue problem:
     one sub-group per band group will be used
     ELPA distributed-memory algorithm (size of sub-group:  8*  8 procs)

 
     Parallelization info
     --------------------
     sticks:   dense  smooth     PW     G-vecs:    dense   smooth      PW
     Min          98      65     17                 6232     3345     475
     Max          99      67     18                 6237     3351     482
     Sum        7089    4693   1281               448855   241089   34457
 


     bravais-lattice index     =            0
     lattice parameter (alat)  =      14.3940  a.u.
     unit-cell volume          =    2982.2680 (a.u.)^3
     number of atoms/cell      =           32
     number of atomic types    =            1
     number of electrons       =       512.00
     number of Kohn-Sham states=          307
     kinetic-energy cutoff     =      71.0000  Ry
     charge density cutoff     =     430.0000  Ry
     scf convergence threshold =      1.0E-08
     mixing beta               =       0.3000
     number of iterations used =           10  local-TF  mixing
     Exchange-correlation= SLA  PW   PBX  PBC
                           (   1   4   3   4   0   0   0)

     celldm(1)=  14.394024  celldm(2)=   0.000000  celldm(3)=   0.000000
     celldm(4)=   0.000000  celldm(5)=   0.000000  celldm(6)=   0.000000

     crystal axes: (cart. coord. in units of alat)
               a(1) = (   1.000000   0.000000   0.000000 )  
               a(2) = (   0.000000   1.000000   0.000000 )  
               a(3) = (   0.000000   0.000000   1.000000 )  

     reciprocal axes: (cart. coord. in units 2 pi/alat)
               b(1) = (  1.000000  0.000000  0.000000 )  
               b(2) = (  0.000000  1.000000  0.000000 )  
               b(3) = (  0.000000  0.000000  1.000000 )  


     PseudoPot. # 1 for Ru read from file:
     /rds/homes/b/bxp912/pp/Ru.pbe-spn-kjpaw_psl.1.0.0.UPF
     MD5 check sum: 0ae1f594dea09af7be8575c3a481d1ae
     Pseudo is Projector augmented-wave + core cor, Zval = 16.0
     Generated using "atomic" code by A. Dal Corso  v.5.1
     Shape of augmentation charge: PSQ
     Using radial grid of 1233 points,  6 beta functions with: 
                l(1) =   0
                l(2) =   0
                l(3) =   1
                l(4) =   1
                l(5) =   2
                l(6) =   2
     Q(r) pseudized with 0 coefficients 


     atomic species   valence    mass     pseudopotential
        Ru            16.00   101.07000     Ru( 1.00)

     No symmetry found



   Cartesian axes

     site n.     atom                  positions (alat units)
         1           Ru  tau(   1) = (   0.9997490   0.0005920   0.9997530  )
         2           Ru  tau(   2) = (   0.2503400   0.2501160   0.0003690  )
         3           Ru  tau(   3) = (   0.2501730   0.0000600   0.2502510  )
         4           Ru  tau(   4) = (   0.0000130   0.2499820   0.2501260  )
         5           Ru  tau(   5) = (   0.9996980   0.9998120   0.5001540  )
         6           Ru  tau(   6) = (   0.2499420   0.2503970   0.5000100  )
         7           Ru  tau(   7) = (   0.2500910   0.0001120   0.7500460  )
         8           Ru  tau(   8) = (   0.9995130   0.2501770   0.7500200  )
         9           Ru  tau(   9) = (   0.0003870   0.4999600   0.9996150  )
        10           Ru  tau(  10) = (   0.2498510   0.7496880   0.9997960  )
        11           Ru  tau(  11) = (   0.2496980   0.4995040   0.2502030  )
        12           Ru  tau(  12) = (   0.9997690   0.7502020   0.2497050  )
        13           Ru  tau(  13) = (   0.0000070   0.5001150   0.4998010  )
        14           Ru  tau(  14) = (   0.2502110   0.7494640   0.5007650  )
        15           Ru  tau(  15) = (   0.2497660   0.5001860   0.7499790  )
        16           Ru  tau(  16) = (   0.0000070   0.7498250   0.7504820  )
        17           Ru  tau(  17) = (   0.5001950   0.9999430   0.0001900  )
        18           Ru  tau(  18) = (   0.7503090   0.2498820   0.9997690  )
        19           Ru  tau(  19) = (   0.7501160   0.0001020   0.2503500  )
        20           Ru  tau(  20) = (   0.4999470   0.2495810   0.2501470  )
        21           Ru  tau(  21) = (   0.5005070   0.0000140   0.4996030  )
        22           Ru  tau(  22) = (   0.7500580   0.2501820   0.5002200  )
        23           Ru  tau(  23) = (   0.7496100   0.9999030   0.7499950  )
        24           Ru  tau(  24) = (   0.5002320   0.2502550   0.7496190  )
        25           Ru  tau(  25) = (   0.4996300   0.5000340   0.9998990  )
        26           Ru  tau(  26) = (   0.7495180   0.7503590   0.9996050  )
        27           Ru  tau(  27) = (   0.7500380   0.4995430   0.2504100  )
        28           Ru  tau(  28) = (   0.5000860   0.7496580   0.2498560  )
        29           Ru  tau(  29) = (   0.5000360   0.4995020   0.5001130  )
        30           Ru  tau(  30) = (   0.7497290   0.7499530   0.4997940  )
        31           Ru  tau(  31) = (   0.7496810   0.4997890   0.7496830  )
        32           Ru  tau(  32) = (   0.5000320   0.7500680   0.7499050  )

     number of k points=   365  Marzari-Vanderbilt smearing, width (Ry)=  0.0400

     Number of k-points >= 100: set verbosity='high' to print them.

     Dense  grid:   448855 G-vectors     FFT dimensions: (  96,  96,  96)

     Smooth grid:   241089 G-vectors     FFT dimensions: (  80,  80,  80)

     Estimated max dynamical RAM per process >     753.03 MB

     Estimated total dynamical RAM >      52.95 GB

     Check: negative core charge=   -0.000002

     Initial potential from superposition of free atoms

     starting charge  511.97959, renormalised to  512.00000
     Starting wfcs are  320 randomized atomic wfcs
     Checking if some PAW data can be deallocated... 

     total cpu time spent up to now is      100.8 secs

     Self-consistent Calculation

     iteration #  1     ecut=    71.00 Ry     beta= 0.30
     Davidson diagonalization with overlap
     ethr =  1.00E-02,  avg # of iterations =  3.4

     Threshold (ethr) on eigenvalues was too large:
     Diagonalizing with lowered threshold

     Davidson diagonalization with overlap
     ethr =  8.37E-05,  avg # of iterations =  5.7

     total cpu time spent up to now is      804.7 secs

     total energy              =  -13813.37549083 Ry
     estimated scf accuracy    <       0.64013601 Ry

     iteration #  2     ecut=    71.00 Ry     beta= 0.30
     Davidson diagonalization with overlap
     ethr =  1.25E-04,  avg # of iterations =  1.0

     total cpu time spent up to now is     1056.8 secs

     total energy              =  -13813.23539946 Ry
     estimated scf accuracy    <       0.30109720 Ry

     iteration #  3     ecut=    71.00 Ry     beta= 0.30
     Davidson diagonalization with overlap
     ethr =  5.88E-05,  avg # of iterations =  2.3

     total cpu time spent up to now is     1386.1 secs

     total energy              =  -13813.30148024 Ry
     estimated scf accuracy    <       0.00204951 Ry

     iteration #  4     ecut=    71.00 Ry     beta= 0.30
     Davidson diagonalization with overlap
     ethr =  4.00E-07,  avg # of iterations =  4.6

     total cpu time spent up to now is     1791.5 secs

     total energy              =  -13813.30042327 Ry
     estimated scf accuracy    <       0.00085650 Ry

     iteration #  5     ecut=    71.00 Ry     beta= 0.30
     Davidson diagonalization with overlap
     ethr =  1.67E-07,  avg # of iterations =  2.5

     total cpu time spent up to now is     2170.6 secs

     total energy              =  -13813.30060073 Ry
     estimated scf accuracy    <       0.00028085 Ry

     iteration #  6     ecut=    71.00 Ry     beta= 0.30
     Davidson diagonalization with overlap
     ethr =  5.49E-08,  avg # of iterations =  1.9

     total cpu time spent up to now is     2442.7 secs

     total energy              =  -13813.30056481 Ry
     estimated scf accuracy    <       0.00001965 Ry

     iteration #  7     ecut=    71.00 Ry     beta= 0.30
     Davidson diagonalization with overlap
     ethr =  3.84E-09,  avg # of iterations =  4.9

     total cpu time spent up to now is     2883.0 secs

     total energy              =  -13813.30057899 Ry
     estimated scf accuracy    <       0.00002009 Ry

     iteration #  8     ecut=    71.00 Ry     beta= 0.30
     Davidson diagonalization with overlap
     ethr =  3.84E-09,  avg # of iterations =  2.0

     total cpu time spent up to now is     3185.1 secs

     total energy              =  -13813.30057996 Ry
     estimated scf accuracy    <       0.00000222 Ry

     iteration #  9     ecut=    71.00 Ry     beta= 0.30
     Davidson diagonalization with overlap
     ethr =  4.34E-10,  avg # of iterations =  2.7

     total cpu time spent up to now is     3497.0 secs

     total energy              =  -13813.30058005 Ry
     estimated scf accuracy    <       0.00000051 Ry

     iteration # 10     ecut=    71.00 Ry     beta= 0.30
     Davidson diagonalization with overlap
     ethr =  9.92E-11,  avg # of iterations =  2.8

     total cpu time spent up to now is     3861.9 secs

     total energy              =  -13813.30058015 Ry
     estimated scf accuracy    <       0.00000004 Ry

     iteration # 11     ecut=    71.00 Ry     beta= 0.30
     Davidson diagonalization with overlap
     ethr =  8.29E-12,  avg # of iterations =  4.0

     total cpu time spent up to now is     4271.1 secs

     End of self-consistent calculation

     Number of k-points >= 100: set verbosity='high' to print the bands.

     the Fermi energy is    23.1542 ev

!    total energy              =  -13813.30058017 Ry

     total all-electron energy =   -289989.690919 Ry
     estimated scf accuracy    <          3.1E-10 Ry
     smearing contrib. (-TS)   =       0.02053030 Ry
     internal energy E=F+TS    =  -13813.32111047 Ry

     The total energy is F=E-TS. E is the sum of the following terms:
     one-electron contribution =    -992.03380874 Ry
     hartree contribution      =     914.97532516 Ry
     xc contribution           =    -928.12062091 Ry
     ewald contribution        =   -5218.69772459 Ry
     one-center paw contrib.   =   -7589.44428137 Ry

     convergence has been achieved in  11 iterations

     Forces acting on atoms (cartesian axes, Ry/au):

     atom    1 type  1   force =     0.00097239   -0.00169322    0.00045860
     atom    2 type  1   force =    -0.00109781   -0.00075773   -0.00059509
     atom    3 type  1   force =    -0.00081998   -0.00083661   -0.00069538
     atom    4 type  1   force =     0.00004090   -0.00043753   -0.00023155
     atom    5 type  1   force =     0.00121787   -0.00005783   -0.00057823
     atom    6 type  1   force =    -0.00002208   -0.00166044   -0.00001466
     atom    7 type  1   force =    -0.00047029   -0.00048891    0.00024225
     atom    8 type  1   force =     0.00165745   -0.00042941   -0.00005927
     atom    9 type  1   force =    -0.00121975    0.00013344    0.00138272
     atom   10 type  1   force =     0.00015051    0.00122046    0.00086460
     atom   11 type  1   force =     0.00071290    0.00188576   -0.00074647
     atom   12 type  1   force =     0.00085383   -0.00060676    0.00076558
     atom   13 type  1   force =     0.00009043    0.00015371    0.00019473
     atom   14 type  1   force =    -0.00102388    0.00182646   -0.00247607
     atom   15 type  1   force =     0.00024375   -0.00073021    0.00044483
     atom   16 type  1   force =     0.00001617    0.00079935   -0.00119245
     atom   17 type  1   force =    -0.00082421   -0.00026054   -0.00030559
     atom   18 type  1   force =    -0.00109370    0.00031990    0.00068608
     atom   19 type  1   force =    -0.00021970   -0.00080836   -0.00118127
     atom   20 type  1   force =    -0.00018933    0.00124932   -0.00072443
     atom   21 type  1   force =    -0.00187089   -0.00032132    0.00095232
     atom   22 type  1   force =     0.00030508   -0.00074618   -0.00091860
     atom   23 type  1   force =     0.00105915   -0.00019951    0.00042038
     atom   24 type  1   force =    -0.00104500   -0.00123877    0.00137023
     atom   25 type  1   force =     0.00099482    0.00021477    0.00015864
     atom   26 type  1   force =     0.00166223   -0.00103982    0.00156735
     atom   27 type  1   force =    -0.00020402    0.00117681   -0.00149484
     atom   28 type  1   force =    -0.00052642    0.00088035    0.00045472
     atom   29 type  1   force =    -0.00022420    0.00126510   -0.00059510
     atom   30 type  1   force =     0.00057808    0.00032115    0.00016814
     atom   31 type  1   force =     0.00075595    0.00101393    0.00147508
     atom   32 type  1   force =    -0.00046025   -0.00014736    0.00020276

     Total force =     0.008899     Total SCF correction =     0.000057


     Computing stress (Cartesian axis) and pressure

          total   stress  (Ry/bohr**3)                   (kbar)     P=        0.01
   0.00000011  -0.00000003   0.00000003            0.02       -0.00        0.00
  -0.00000003   0.00000009  -0.00000010           -0.00        0.01       -0.01
   0.00000003  -0.00000010   0.00000009            0.00       -0.01        0.01


     Writing output data file /scratch/bxp912/ru01_0018.save/
 
     init_run     :     97.36s CPU     99.42s WALL (       1 calls)
     electrons    :   4120.98s CPU   4170.35s WALL (       1 calls)
     forces       :     53.48s CPU     53.93s WALL (       1 calls)
     stress       :    325.57s CPU    328.44s WALL (       1 calls)

     Called by init_run:
     wfcinit      :     96.79s CPU     98.78s WALL (       1 calls)
     potinit      :      0.23s CPU      0.25s WALL (       1 calls)
     hinit0       :      0.07s CPU      0.07s WALL (       1 calls)

     Called by electrons:
     c_bands      :   3681.53s CPU   3722.44s WALL (      12 calls)
     sum_band     :    437.94s CPU    446.19s WALL (      12 calls)
     v_of_rho     :      0.26s CPU      0.28s WALL (      12 calls)
     newd         :      0.34s CPU      0.45s WALL (      12 calls)
     PAW_pot      :      0.97s CPU      1.05s WALL (      12 calls)
     mix_rho      :      0.15s CPU      0.17s WALL (      12 calls)

     Called by c_bands:
     init_us_2    :     18.34s CPU     18.75s WALL (    9855 calls)
     cegterg      :   3615.71s CPU   3653.72s WALL (    4380 calls)

     Called by *egterg:
     cdiaghg      :    458.18s CPU    460.64s WALL (   17828 calls)
     h_psi        :   2014.74s CPU   2043.66s WALL (   18558 calls)
     s_psi        :    159.18s CPU    160.27s WALL (   18558 calls)
     g_psi        :      4.01s CPU      4.06s WALL (   13813 calls)

     Called by h_psi:
     h_psi:calbec :    294.34s CPU    296.37s WALL (   18558 calls)
     vloc_psi     :   1555.88s CPU   1580.38s WALL (   18558 calls)
     add_vuspsi   :    154.45s CPU    156.74s WALL (   18558 calls)

     General routines
     calbec       :    470.21s CPU    473.32s WALL (   24763 calls)
     fft          :      0.28s CPU      0.29s WALL (     180 calls)
     ffts         :      0.10s CPU      0.11s WALL (     202 calls)
     fftw         :   1786.80s CPU   1815.20s WALL ( 8388746 calls)
     interpolate  :      0.02s CPU      0.03s WALL (      12 calls)
 
     Parallel routines
     fft_scatt_xy :    146.67s CPU    148.98s WALL ( 8389128 calls)
     fft_scatt_yz :   1391.23s CPU   1413.66s WALL ( 8389128 calls)
 
     PWSCF        :      1h17m CPU      1h19m WALL

 
   This run was terminated on:   7:40:16  14Mar2022            

=------------------------------------------------------------------------------=
   JOB DONE.
=------------------------------------------------------------------------------=
