
     Program PWSCF v.6.7MaX starts on  7Mar2022 at 18:17:46 

     This program is part of the open-source Quantum ESPRESSO suite
     for quantum simulation of materials; please cite
         "P. Giannozzi et al., J. Phys.:Condens. Matter 21 395502 (2009);
         "P. Giannozzi et al., J. Phys.:Condens. Matter 29 465901 (2017);
          URL http://www.quantum-espresso.org", 
     in publications or presentations arising from this work. More details at
     http://www.quantum-espresso.org/quote

     Parallel version (MPI & OpenMP), running on      72 processor cores
     Number of MPI processes:                72
     Threads/MPI process:                     1

     MPI processes distributed on     1 nodes
     R & G space division:  proc/nbgrp/npool/nimage =      72
     Reading input from ru_0011.in
Warning: card &CELL ignored
Warning: card CELL_DYNAMICS = 'BFGS', ignored
Warning: card CELL_FACTOR = 2.0, ignored
Warning: card PRESS = 0.0, ignored
Warning: card / ignored

     Current dimensions of program PWSCF are:
     Max number of different atomic species (ntypx) = 10
     Max number of k-points (npk) =  40000
     Max angular momentum in pseudopotentials (lmaxx) =  3
     file Ru.pbe-spn-kjpaw_psl.1.0.0.UPF: wavefunction(s)  4D renormalized

     Subspace diagonalization in iterative solution of the eigenvalue problem:
     one sub-group per band group will be used
     ELPA distributed-memory algorithm (size of sub-group:  8*  8 procs)

 
     Parallelization info
     --------------------
     sticks:   dense  smooth     PW     G-vecs:    dense   smooth      PW
     Min          98      65     17                 6232     3345     475
     Max          99      67     18                 6237     3351     482
     Sum        7089    4693   1281               448855   241089   34457
 


     bravais-lattice index     =            0
     lattice parameter (alat)  =      14.3940  a.u.
     unit-cell volume          =    2982.2680 (a.u.)^3
     number of atoms/cell      =           32
     number of atomic types    =            1
     number of electrons       =       512.00
     number of Kohn-Sham states=          307
     kinetic-energy cutoff     =      71.0000  Ry
     charge density cutoff     =     430.0000  Ry
     scf convergence threshold =      1.0E-08
     mixing beta               =       0.3000
     number of iterations used =           10  local-TF  mixing
     Exchange-correlation= SLA  PW   PBX  PBC
                           (   1   4   3   4   0   0   0)

     celldm(1)=  14.394024  celldm(2)=   0.000000  celldm(3)=   0.000000
     celldm(4)=   0.000000  celldm(5)=   0.000000  celldm(6)=   0.000000

     crystal axes: (cart. coord. in units of alat)
               a(1) = (   1.000000   0.000000   0.000000 )  
               a(2) = (   0.000000   1.000000   0.000000 )  
               a(3) = (   0.000000   0.000000   1.000000 )  

     reciprocal axes: (cart. coord. in units 2 pi/alat)
               b(1) = (  1.000000  0.000000  0.000000 )  
               b(2) = (  0.000000  1.000000  0.000000 )  
               b(3) = (  0.000000  0.000000  1.000000 )  


     PseudoPot. # 1 for Ru read from file:
     /rds/homes/b/bxp912/pp/Ru.pbe-spn-kjpaw_psl.1.0.0.UPF
     MD5 check sum: 0ae1f594dea09af7be8575c3a481d1ae
     Pseudo is Projector augmented-wave + core cor, Zval = 16.0
     Generated using "atomic" code by A. Dal Corso  v.5.1
     Shape of augmentation charge: PSQ
     Using radial grid of 1233 points,  6 beta functions with: 
                l(1) =   0
                l(2) =   0
                l(3) =   1
                l(4) =   1
                l(5) =   2
                l(6) =   2
     Q(r) pseudized with 0 coefficients 


     atomic species   valence    mass     pseudopotential
        Ru            16.00   101.07000     Ru( 1.00)

     No symmetry found



   Cartesian axes

     site n.     atom                  positions (alat units)
         1           Ru  tau(   1) = (   0.0004170   0.9992150   0.0002660  )
         2           Ru  tau(   2) = (   0.2500660   0.2498390   0.0000120  )
         3           Ru  tau(   3) = (   0.2496370   0.0005200   0.2498070  )
         4           Ru  tau(   4) = (   0.9997530   0.2495710   0.2495560  )
         5           Ru  tau(   5) = (   0.0006940   0.9990880   0.5001160  )
         6           Ru  tau(   6) = (   0.2495560   0.2500950   0.4995320  )
         7           Ru  tau(   7) = (   0.2504480   0.9998770   0.7499260  )
         8           Ru  tau(   8) = (   0.9997610   0.2496040   0.7501710  )
         9           Ru  tau(   9) = (   0.0001930   0.5004030   0.0004860  )
        10           Ru  tau(  10) = (   0.2495910   0.7501990   0.0001840  )
        11           Ru  tau(  11) = (   0.2494110   0.5001550   0.2499390  )
        12           Ru  tau(  12) = (   0.0000960   0.7500940   0.2499750  )
        13           Ru  tau(  13) = (   0.9998990   0.4999710   0.5004170  )
        14           Ru  tau(  14) = (   0.2503230   0.7494470   0.4998820  )
        15           Ru  tau(  15) = (   0.2498860   0.4999370   0.7498450  )
        16           Ru  tau(  16) = (   0.0001130   0.7494100   0.7502690  )
        17           Ru  tau(  17) = (   0.5002030   0.0001500   0.9991220  )
        18           Ru  tau(  18) = (   0.7497400   0.2497030   0.9998200  )
        19           Ru  tau(  19) = (   0.7503090   0.0003890   0.2500620  )
        20           Ru  tau(  20) = (   0.5000920   0.2498490   0.2497140  )
        21           Ru  tau(  21) = (   0.4994840   0.9998550   0.4997190  )
        22           Ru  tau(  22) = (   0.7499620   0.2500190   0.4997200  )
        23           Ru  tau(  23) = (   0.7498340   0.0003590   0.7506670  )
        24           Ru  tau(  24) = (   0.4997950   0.2505160   0.7500840  )
        25           Ru  tau(  25) = (   0.5000540   0.5002830   0.0003830  )
        26           Ru  tau(  26) = (   0.7498810   0.7508060   0.9999860  )
        27           Ru  tau(  27) = (   0.7505490   0.4997980   0.2495140  )
        28           Ru  tau(  28) = (   0.4997530   0.7498760   0.2502410  )
        29           Ru  tau(  29) = (   0.5001360   0.5002890   0.4995900  )
        30           Ru  tau(  30) = (   0.7498630   0.7499380   0.5006120  )
        31           Ru  tau(  31) = (   0.7502070   0.5003520   0.7498000  )
        32           Ru  tau(  32) = (   0.5002420   0.7501080   0.7502180  )

     number of k points=   365  Marzari-Vanderbilt smearing, width (Ry)=  0.0400

     Number of k-points >= 100: set verbosity='high' to print them.

     Dense  grid:   448855 G-vectors     FFT dimensions: (  96,  96,  96)

     Smooth grid:   241089 G-vectors     FFT dimensions: (  80,  80,  80)

     Estimated max dynamical RAM per process >     753.03 MB

     Estimated total dynamical RAM >      52.95 GB

     Check: negative core charge=   -0.000002

     Initial potential from superposition of free atoms

     starting charge  511.97959, renormalised to  512.00000
     Starting wfcs are  320 randomized atomic wfcs
     Checking if some PAW data can be deallocated... 

     total cpu time spent up to now is       96.0 secs

     Self-consistent Calculation

     iteration #  1     ecut=    71.00 Ry     beta= 0.30
     Davidson diagonalization with overlap
     ethr =  1.00E-02,  avg # of iterations =  3.4

     Threshold (ethr) on eigenvalues was too large:
     Diagonalizing with lowered threshold

     Davidson diagonalization with overlap
     ethr =  8.38E-05,  avg # of iterations =  5.7

     total cpu time spent up to now is      794.0 secs

     total energy              =  -13813.37541957 Ry
     estimated scf accuracy    <       0.64003130 Ry

     iteration #  2     ecut=    71.00 Ry     beta= 0.30
     Davidson diagonalization with overlap
     ethr =  1.25E-04,  avg # of iterations =  1.0

     total cpu time spent up to now is     1042.1 secs

     total energy              =  -13813.23523094 Ry
     estimated scf accuracy    <       0.30111621 Ry

     iteration #  3     ecut=    71.00 Ry     beta= 0.30
     Davidson diagonalization with overlap
     ethr =  5.88E-05,  avg # of iterations =  2.3

     total cpu time spent up to now is     1370.2 secs

     total energy              =  -13813.30138413 Ry
     estimated scf accuracy    <       0.00206606 Ry

     iteration #  4     ecut=    71.00 Ry     beta= 0.30
     Davidson diagonalization with overlap
     ethr =  4.04E-07,  avg # of iterations =  4.7

     total cpu time spent up to now is     1772.0 secs

     total energy              =  -13813.30033220 Ry
     estimated scf accuracy    <       0.00085686 Ry

     iteration #  5     ecut=    71.00 Ry     beta= 0.30
     Davidson diagonalization with overlap
     ethr =  1.67E-07,  avg # of iterations =  2.5

     total cpu time spent up to now is     2146.0 secs

     total energy              =  -13813.30050947 Ry
     estimated scf accuracy    <       0.00028228 Ry

     iteration #  6     ecut=    71.00 Ry     beta= 0.30
     Davidson diagonalization with overlap
     ethr =  5.51E-08,  avg # of iterations =  1.9

     total cpu time spent up to now is     2417.4 secs

     total energy              =  -13813.30047387 Ry
     estimated scf accuracy    <       0.00001958 Ry

     iteration #  7     ecut=    71.00 Ry     beta= 0.30
     Davidson diagonalization with overlap
     ethr =  3.82E-09,  avg # of iterations =  4.9

     total cpu time spent up to now is     2853.0 secs

     total energy              =  -13813.30048809 Ry
     estimated scf accuracy    <       0.00002042 Ry

     iteration #  8     ecut=    71.00 Ry     beta= 0.30
     Davidson diagonalization with overlap
     ethr =  3.82E-09,  avg # of iterations =  2.0

     total cpu time spent up to now is     3153.3 secs

     total energy              =  -13813.30048909 Ry
     estimated scf accuracy    <       0.00000223 Ry

     iteration #  9     ecut=    71.00 Ry     beta= 0.30
     Davidson diagonalization with overlap
     ethr =  4.35E-10,  avg # of iterations =  2.7

     total cpu time spent up to now is     3467.3 secs

     total energy              =  -13813.30048920 Ry
     estimated scf accuracy    <       0.00000047 Ry

     iteration # 10     ecut=    71.00 Ry     beta= 0.30
     Davidson diagonalization with overlap
     ethr =  9.27E-11,  avg # of iterations =  2.9

     total cpu time spent up to now is     3831.0 secs

     total energy              =  -13813.30048930 Ry
     estimated scf accuracy    <       0.00000004 Ry

     iteration # 11     ecut=    71.00 Ry     beta= 0.30
     Davidson diagonalization with overlap
     ethr =  7.15E-12,  avg # of iterations =  4.1

     total cpu time spent up to now is     4239.9 secs

     End of self-consistent calculation

     Number of k-points >= 100: set verbosity='high' to print the bands.

     the Fermi energy is    23.1542 ev

!    total energy              =  -13813.30048932 Ry

     total all-electron energy =   -289989.690829 Ry
     estimated scf accuracy    <          4.6E-10 Ry
     smearing contrib. (-TS)   =       0.02052662 Ry
     internal energy E=F+TS    =  -13813.32101594 Ry

     The total energy is F=E-TS. E is the sum of the following terms:
     one-electron contribution =    -992.04159203 Ry
     hartree contribution      =     914.97911365 Ry
     xc contribution           =    -928.12072786 Ry
     ewald contribution        =   -5218.69353657 Ry
     one-center paw contrib.   =   -7589.44427312 Ry

     convergence has been achieved in  11 iterations

     Forces acting on atoms (cartesian axes, Ry/au):

     atom    1 type  1   force =    -0.00135648    0.00264793   -0.00091255
     atom    2 type  1   force =    -0.00033643    0.00060047   -0.00047646
     atom    3 type  1   force =     0.00151452   -0.00145132    0.00091841
     atom    4 type  1   force =     0.00041535    0.00090669    0.00137463
     atom    5 type  1   force =    -0.00200570    0.00286036   -0.00025435
     atom    6 type  1   force =     0.00116432   -0.00027938    0.00128448
     atom    7 type  1   force =    -0.00116217    0.00066522    0.00013001
     atom    8 type  1   force =     0.00078488    0.00096357   -0.00079904
     atom    9 type  1   force =    -0.00046355   -0.00187163   -0.00140603
     atom   10 type  1   force =     0.00127223   -0.00076500   -0.00053135
     atom   11 type  1   force =     0.00192957   -0.00055001    0.00006505
     atom   12 type  1   force =    -0.00031713   -0.00086483    0.00068103
     atom   13 type  1   force =    -0.00010130   -0.00061017   -0.00063398
     atom   14 type  1   force =    -0.00092794    0.00124405    0.00052316
     atom   15 type  1   force =     0.00071472    0.00042989   -0.00013706
     atom   16 type  1   force =    -0.00043132    0.00173790   -0.00114735
     atom   17 type  1   force =    -0.00011921    0.00007313    0.00226829
     atom   18 type  1   force =     0.00026781    0.00127672    0.00035739
     atom   19 type  1   force =    -0.00133277   -0.00093323    0.00022163
     atom   20 type  1   force =    -0.00032976    0.00050083    0.00124884
     atom   21 type  1   force =     0.00183302    0.00090242    0.00074989
     atom   22 type  1   force =     0.00014674   -0.00015198    0.00088187
     atom   23 type  1   force =     0.00040721   -0.00088706   -0.00266676
     atom   24 type  1   force =     0.00058600   -0.00146048   -0.00081091
     atom   25 type  1   force =     0.00010506   -0.00099155   -0.00116400
     atom   26 type  1   force =     0.00025739   -0.00258379    0.00013621
     atom   27 type  1   force =    -0.00195192    0.00113653    0.00159707
     atom   28 type  1   force =     0.00096959    0.00056017   -0.00052730
     atom   29 type  1   force =     0.00010305   -0.00140583    0.00095584
     atom   30 type  1   force =    -0.00003458    0.00022488   -0.00179614
     atom   31 type  1   force =    -0.00091627   -0.00116368    0.00055494
     atom   32 type  1   force =    -0.00068495   -0.00076083   -0.00068544

     Total force =     0.010814     Total SCF correction =     0.000056


     Computing stress (Cartesian axis) and pressure

          total   stress  (Ry/bohr**3)                   (kbar)     P=        0.02
   0.00000014  -0.00000008  -0.00000003            0.02       -0.01       -0.00
  -0.00000008   0.00000012   0.00000004           -0.01        0.02        0.01
  -0.00000003   0.00000004   0.00000011           -0.00        0.01        0.02


     Writing output data file /scratch/bxp912/ru01_0011.save/
 
     init_run     :     93.50s CPU     95.57s WALL (       1 calls)
     electrons    :   4096.11s CPU   4144.02s WALL (       1 calls)
     forces       :     52.83s CPU     53.16s WALL (       1 calls)
     stress       :    321.63s CPU    324.43s WALL (       1 calls)

     Called by init_run:
     wfcinit      :     93.13s CPU     95.07s WALL (       1 calls)
     potinit      :      0.14s CPU      0.16s WALL (       1 calls)
     hinit0       :      0.06s CPU      0.14s WALL (       1 calls)

     Called by electrons:
     c_bands      :   3656.14s CPU   3696.85s WALL (      12 calls)
     sum_band     :    438.44s CPU    445.43s WALL (      12 calls)
     v_of_rho     :      0.18s CPU      0.19s WALL (      12 calls)
     newd         :      0.26s CPU      0.39s WALL (      12 calls)
     PAW_pot      :      0.98s CPU      1.04s WALL (      12 calls)
     mix_rho      :      0.16s CPU      0.18s WALL (      12 calls)

     Called by c_bands:
     init_us_2    :     19.84s CPU     20.22s WALL (    9855 calls)
     cegterg      :   3589.21s CPU   3627.76s WALL (    4380 calls)

     Called by *egterg:
     cdiaghg      :    456.98s CPU    459.35s WALL (   17916 calls)
     h_psi        :   2003.79s CPU   2033.01s WALL (   18646 calls)
     s_psi        :    163.87s CPU    165.03s WALL (   18646 calls)
     g_psi        :      4.39s CPU      4.46s WALL (   13901 calls)

     Called by h_psi:
     h_psi:calbec :    292.45s CPU    294.42s WALL (   18646 calls)
     vloc_psi     :   1542.96s CPU   1567.80s WALL (   18646 calls)
     add_vuspsi   :    157.64s CPU    159.95s WALL (   18646 calls)

     General routines
     calbec       :    472.70s CPU    475.88s WALL (   24851 calls)
     fft          :      0.22s CPU      0.24s WALL (     180 calls)
     ffts         :      0.12s CPU      0.12s WALL (     202 calls)
     fftw         :   1776.08s CPU   1804.40s WALL ( 8408982 calls)
     interpolate  :      0.03s CPU      0.04s WALL (      12 calls)
 
     Parallel routines
     fft_scatt_xy :    143.71s CPU    145.97s WALL ( 8409364 calls)
     fft_scatt_yz :   1384.00s CPU   1406.44s WALL ( 8409364 calls)
 
     PWSCF        :      1h17m CPU      1h18m WALL

 
   This run was terminated on:  19:36:11   7Mar2022            

=------------------------------------------------------------------------------=
   JOB DONE.
=------------------------------------------------------------------------------=
