
     Program PWSCF v.6.7MaX starts on  8Mar2022 at  0:52:38 

     This program is part of the open-source Quantum ESPRESSO suite
     for quantum simulation of materials; please cite
         "P. Giannozzi et al., J. Phys.:Condens. Matter 21 395502 (2009);
         "P. Giannozzi et al., J. Phys.:Condens. Matter 29 465901 (2017);
          URL http://www.quantum-espresso.org", 
     in publications or presentations arising from this work. More details at
     http://www.quantum-espresso.org/quote

     Parallel version (MPI & OpenMP), running on      72 processor cores
     Number of MPI processes:                72
     Threads/MPI process:                     1

     MPI processes distributed on     1 nodes
     R & G space division:  proc/nbgrp/npool/nimage =      72
     Reading input from ru_0016.in
Warning: card &CELL ignored
Warning: card CELL_DYNAMICS = 'BFGS', ignored
Warning: card CELL_FACTOR = 2.0, ignored
Warning: card PRESS = 0.0, ignored
Warning: card / ignored

     Current dimensions of program PWSCF are:
     Max number of different atomic species (ntypx) = 10
     Max number of k-points (npk) =  40000
     Max angular momentum in pseudopotentials (lmaxx) =  3
     file Ru.pbe-spn-kjpaw_psl.1.0.0.UPF: wavefunction(s)  4D renormalized

     Subspace diagonalization in iterative solution of the eigenvalue problem:
     one sub-group per band group will be used
     ELPA distributed-memory algorithm (size of sub-group:  8*  8 procs)

 
     Parallelization info
     --------------------
     sticks:   dense  smooth     PW     G-vecs:    dense   smooth      PW
     Min          98      65     17                 6232     3345     475
     Max          99      67     18                 6237     3351     482
     Sum        7089    4693   1281               448855   241089   34457
 


     bravais-lattice index     =            0
     lattice parameter (alat)  =      14.3940  a.u.
     unit-cell volume          =    2982.2680 (a.u.)^3
     number of atoms/cell      =           32
     number of atomic types    =            1
     number of electrons       =       512.00
     number of Kohn-Sham states=          307
     kinetic-energy cutoff     =      71.0000  Ry
     charge density cutoff     =     430.0000  Ry
     scf convergence threshold =      1.0E-08
     mixing beta               =       0.3000
     number of iterations used =           10  local-TF  mixing
     Exchange-correlation= SLA  PW   PBX  PBC
                           (   1   4   3   4   0   0   0)

     celldm(1)=  14.394024  celldm(2)=   0.000000  celldm(3)=   0.000000
     celldm(4)=   0.000000  celldm(5)=   0.000000  celldm(6)=   0.000000

     crystal axes: (cart. coord. in units of alat)
               a(1) = (   1.000000   0.000000   0.000000 )  
               a(2) = (   0.000000   1.000000   0.000000 )  
               a(3) = (   0.000000   0.000000   1.000000 )  

     reciprocal axes: (cart. coord. in units 2 pi/alat)
               b(1) = (  1.000000  0.000000  0.000000 )  
               b(2) = (  0.000000  1.000000  0.000000 )  
               b(3) = (  0.000000  0.000000  1.000000 )  


     PseudoPot. # 1 for Ru read from file:
     /rds/homes/b/bxp912/pp/Ru.pbe-spn-kjpaw_psl.1.0.0.UPF
     MD5 check sum: 0ae1f594dea09af7be8575c3a481d1ae
     Pseudo is Projector augmented-wave + core cor, Zval = 16.0
     Generated using "atomic" code by A. Dal Corso  v.5.1
     Shape of augmentation charge: PSQ
     Using radial grid of 1233 points,  6 beta functions with: 
                l(1) =   0
                l(2) =   0
                l(3) =   1
                l(4) =   1
                l(5) =   2
                l(6) =   2
     Q(r) pseudized with 0 coefficients 


     atomic species   valence    mass     pseudopotential
        Ru            16.00   101.07000     Ru( 1.00)

     No symmetry found



   Cartesian axes

     site n.     atom                  positions (alat units)
         1           Ru  tau(   1) = (   0.9996570   0.9996590   0.9998410  )
         2           Ru  tau(   2) = (   0.2496390   0.2507390   0.9998190  )
         3           Ru  tau(   3) = (   0.2498560   0.0001000   0.2496610  )
         4           Ru  tau(   4) = (   0.9999210   0.2502900   0.2499380  )
         5           Ru  tau(   5) = (   0.9993560   0.0002460   0.4998580  )
         6           Ru  tau(   6) = (   0.2497230   0.2499040   0.4997700  )
         7           Ru  tau(   7) = (   0.2503130   0.0002320   0.7491480  )
         8           Ru  tau(   8) = (   0.9994750   0.2502130   0.7507160  )
         9           Ru  tau(   9) = (   0.9998370   0.4999250   0.9994280  )
        10           Ru  tau(  10) = (   0.2501260   0.7495890   0.9999030  )
        11           Ru  tau(  11) = (   0.2499560   0.4997870   0.2503380  )
        12           Ru  tau(  12) = (   0.0002210   0.7498870   0.2501720  )
        13           Ru  tau(  13) = (   0.9999850   0.4998910   0.5003380  )
        14           Ru  tau(  14) = (   0.2501960   0.7505760   0.4997110  )
        15           Ru  tau(  15) = (   0.2500730   0.5003300   0.7500190  )
        16           Ru  tau(  16) = (   0.9995930   0.7505060   0.7505560  )
        17           Ru  tau(  17) = (   0.5002640   0.9996050   0.9994690  )
        18           Ru  tau(  18) = (   0.7502420   0.2499070   0.0001940  )
        19           Ru  tau(  19) = (   0.7499520   0.9996050   0.2501550  )
        20           Ru  tau(  20) = (   0.4997970   0.2502950   0.2505350  )
        21           Ru  tau(  21) = (   0.4999610   0.9997630   0.5001300  )
        22           Ru  tau(  22) = (   0.7498850   0.2495920   0.4998030  )
        23           Ru  tau(  23) = (   0.7493750   0.0000990   0.7500570  )
        24           Ru  tau(  24) = (   0.5000970   0.2507180   0.7500900  )
        25           Ru  tau(  25) = (   0.5004290   0.4995310   0.0005030  )
        26           Ru  tau(  26) = (   0.7501910   0.7499920   0.9998140  )
        27           Ru  tau(  27) = (   0.7498940   0.4999160   0.2498130  )
        28           Ru  tau(  28) = (   0.4999370   0.7497100   0.2500920  )
        29           Ru  tau(  29) = (   0.5003010   0.4997100   0.5005490  )
        30           Ru  tau(  30) = (   0.7503140   0.7507190   0.4998870  )
        31           Ru  tau(  31) = (   0.7500730   0.4998870   0.7498910  )
        32           Ru  tau(  32) = (   0.5001850   0.7498230   0.7504240  )

     number of k points=   365  Marzari-Vanderbilt smearing, width (Ry)=  0.0400

     Number of k-points >= 100: set verbosity='high' to print them.

     Dense  grid:   448855 G-vectors     FFT dimensions: (  96,  96,  96)

     Smooth grid:   241089 G-vectors     FFT dimensions: (  80,  80,  80)

     Estimated max dynamical RAM per process >     753.03 MB

     Estimated total dynamical RAM >      52.95 GB

     Check: negative core charge=   -0.000002

     Initial potential from superposition of free atoms

     starting charge  511.97959, renormalised to  512.00000
     Starting wfcs are  320 randomized atomic wfcs
     Checking if some PAW data can be deallocated... 

     total cpu time spent up to now is       97.9 secs

     Self-consistent Calculation

     iteration #  1     ecut=    71.00 Ry     beta= 0.30
     Davidson diagonalization with overlap
     ethr =  1.00E-02,  avg # of iterations =  3.4

     Threshold (ethr) on eigenvalues was too large:
     Diagonalizing with lowered threshold

     Davidson diagonalization with overlap
     ethr =  8.37E-05,  avg # of iterations =  5.7

     total cpu time spent up to now is      796.9 secs

     total energy              =  -13813.37544792 Ry
     estimated scf accuracy    <       0.64009615 Ry

     iteration #  2     ecut=    71.00 Ry     beta= 0.30
     Davidson diagonalization with overlap
     ethr =  1.25E-04,  avg # of iterations =  1.0

     total cpu time spent up to now is     1045.1 secs

     total energy              =  -13813.23535511 Ry
     estimated scf accuracy    <       0.30109390 Ry

     iteration #  3     ecut=    71.00 Ry     beta= 0.30
     Davidson diagonalization with overlap
     ethr =  5.88E-05,  avg # of iterations =  2.3

     total cpu time spent up to now is     1371.6 secs

     total energy              =  -13813.30143298 Ry
     estimated scf accuracy    <       0.00204711 Ry

     iteration #  4     ecut=    71.00 Ry     beta= 0.30
     Davidson diagonalization with overlap
     ethr =  4.00E-07,  avg # of iterations =  4.8

     total cpu time spent up to now is     1776.3 secs

     total energy              =  -13813.30036787 Ry
     estimated scf accuracy    <       0.00085775 Ry

     iteration #  5     ecut=    71.00 Ry     beta= 0.30
     Davidson diagonalization with overlap
     ethr =  1.68E-07,  avg # of iterations =  2.5

     total cpu time spent up to now is     2152.6 secs

     total energy              =  -13813.30054673 Ry
     estimated scf accuracy    <       0.00028816 Ry

     iteration #  6     ecut=    71.00 Ry     beta= 0.30
     Davidson diagonalization with overlap
     ethr =  5.63E-08,  avg # of iterations =  1.8

     total cpu time spent up to now is     2423.3 secs

     total energy              =  -13813.30051101 Ry
     estimated scf accuracy    <       0.00001981 Ry

     iteration #  7     ecut=    71.00 Ry     beta= 0.30
     Davidson diagonalization with overlap
     ethr =  3.87E-09,  avg # of iterations =  4.9

     total cpu time spent up to now is     2860.4 secs

     total energy              =  -13813.30052559 Ry
     estimated scf accuracy    <       0.00002135 Ry

     iteration #  8     ecut=    71.00 Ry     beta= 0.30
     Davidson diagonalization with overlap
     ethr =  3.87E-09,  avg # of iterations =  2.0

     total cpu time spent up to now is     3161.7 secs

     total energy              =  -13813.30052672 Ry
     estimated scf accuracy    <       0.00000230 Ry

     iteration #  9     ecut=    71.00 Ry     beta= 0.30
     Davidson diagonalization with overlap
     ethr =  4.49E-10,  avg # of iterations =  2.7

     total cpu time spent up to now is     3467.8 secs

     total energy              =  -13813.30052678 Ry
     estimated scf accuracy    <       0.00000053 Ry

     iteration # 10     ecut=    71.00 Ry     beta= 0.30
     Davidson diagonalization with overlap
     ethr =  1.04E-10,  avg # of iterations =  3.0

     total cpu time spent up to now is     3833.0 secs

     total energy              =  -13813.30052689 Ry
     estimated scf accuracy    <       0.00000004 Ry

     iteration # 11     ecut=    71.00 Ry     beta= 0.30
     Davidson diagonalization with overlap
     ethr =  6.92E-12,  avg # of iterations =  4.1

     total cpu time spent up to now is     4242.8 secs

     End of self-consistent calculation

     Number of k-points >= 100: set verbosity='high' to print the bands.

     the Fermi energy is    23.1542 ev

!    total energy              =  -13813.30052692 Ry

     total all-electron energy =   -289989.690866 Ry
     estimated scf accuracy    <          3.1E-10 Ry
     smearing contrib. (-TS)   =       0.02053312 Ry
     internal energy E=F+TS    =  -13813.32106004 Ry

     The total energy is F=E-TS. E is the sum of the following terms:
     one-electron contribution =    -992.03590521 Ry
     hartree contribution      =     914.97644771 Ry
     xc contribution           =    -928.12072582 Ry
     ewald contribution        =   -5218.69659124 Ry
     one-center paw contrib.   =   -7589.44428547 Ry

     convergence has been achieved in  11 iterations

     Forces acting on atoms (cartesian axes, Ry/au):

     atom    1 type  1   force =     0.00145939    0.00057951    0.00056247
     atom    2 type  1   force =     0.00107854   -0.00195312    0.00022689
     atom    3 type  1   force =     0.00007172   -0.00020407    0.00077549
     atom    4 type  1   force =     0.00028975   -0.00051808    0.00060608
     atom    5 type  1   force =     0.00216163   -0.00072405   -0.00032685
     atom    6 type  1   force =     0.00082052    0.00058918    0.00073939
     atom    7 type  1   force =    -0.00104329   -0.00078775    0.00287260
     atom    8 type  1   force =     0.00164423   -0.00083190   -0.00172362
     atom    9 type  1   force =     0.00090173    0.00030684    0.00195646
     atom   10 type  1   force =    -0.00005803    0.00143319    0.00015671
     atom   11 type  1   force =     0.00005973    0.00049380   -0.00117131
     atom   12 type  1   force =    -0.00043872    0.00049889    0.00022641
     atom   13 type  1   force =     0.00035687    0.00010551   -0.00087298
     atom   14 type  1   force =    -0.00054199   -0.00128055    0.00051280
     atom   15 type  1   force =    -0.00056302   -0.00067112   -0.00034107
     atom   16 type  1   force =     0.00138986   -0.00050327   -0.00165964
     atom   17 type  1   force =    -0.00170719    0.00096735    0.00185677
     atom   18 type  1   force =    -0.00105944    0.00032335   -0.00047152
     atom   19 type  1   force =     0.00005070    0.00072905   -0.00091089
     atom   20 type  1   force =     0.00019426   -0.00126295   -0.00098960
     atom   21 type  1   force =    -0.00045615    0.00021716   -0.00042759
     atom   22 type  1   force =     0.00018057    0.00169402    0.00025995
     atom   23 type  1   force =     0.00174206   -0.00014127   -0.00031872
     atom   24 type  1   force =    -0.00096751   -0.00171561   -0.00008777
     atom   25 type  1   force =    -0.00152152    0.00077037   -0.00098040
     atom   26 type  1   force =    -0.00061630    0.00031213    0.00042525
     atom   27 type  1   force =     0.00033121    0.00025029    0.00094870
     atom   28 type  1   force =    -0.00025674    0.00161013    0.00009718
     atom   29 type  1   force =    -0.00147606    0.00092122   -0.00206241
     atom   30 type  1   force =    -0.00094422   -0.00220511    0.00032464
     atom   31 type  1   force =    -0.00008527    0.00021616    0.00064223
     atom   32 type  1   force =    -0.00099735    0.00078068   -0.00084566

     Total force =     0.009879     Total SCF correction =     0.000053


     Computing stress (Cartesian axis) and pressure

          total   stress  (Ry/bohr**3)                   (kbar)     P=        0.03
   0.00000016  -0.00000002  -0.00000006            0.02       -0.00       -0.01
  -0.00000002   0.00000017   0.00000006           -0.00        0.02        0.01
  -0.00000006   0.00000006   0.00000019           -0.01        0.01        0.03


     Writing output data file /scratch/bxp912/ru01_0016.save/
 
     init_run     :     95.32s CPU     97.64s WALL (       1 calls)
     electrons    :   4093.43s CPU   4144.84s WALL (       1 calls)
     forces       :     53.28s CPU     53.82s WALL (       1 calls)
     stress       :    320.32s CPU    323.37s WALL (       1 calls)

     Called by init_run:
     wfcinit      :     94.97s CPU     97.22s WALL (       1 calls)
     potinit      :      0.12s CPU      0.14s WALL (       1 calls)
     hinit0       :      0.07s CPU      0.08s WALL (       1 calls)

     Called by electrons:
     c_bands      :   3650.74s CPU   3693.35s WALL (      12 calls)
     sum_band     :    441.21s CPU    449.73s WALL (      12 calls)
     v_of_rho     :      0.16s CPU      0.17s WALL (      12 calls)
     newd         :      0.26s CPU      0.42s WALL (      12 calls)
     PAW_pot      :      0.97s CPU      1.05s WALL (      12 calls)
     mix_rho      :      0.15s CPU      0.17s WALL (      12 calls)

     Called by c_bands:
     init_us_2    :     20.83s CPU     21.31s WALL (    9855 calls)
     cegterg      :   3585.24s CPU   3624.87s WALL (    4380 calls)

     Called by *egterg:
     cdiaghg      :    456.99s CPU    459.59s WALL (   17952 calls)
     h_psi        :   2007.83s CPU   2037.46s WALL (   18682 calls)
     s_psi        :    163.72s CPU    164.92s WALL (   18682 calls)
     g_psi        :      4.41s CPU      4.48s WALL (   13937 calls)

     Called by h_psi:
     h_psi:calbec :    291.03s CPU    293.01s WALL (   18682 calls)
     vloc_psi     :   1548.68s CPU   1573.87s WALL (   18682 calls)
     add_vuspsi   :    157.94s CPU    160.32s WALL (   18682 calls)

     General routines
     calbec       :    462.93s CPU    465.99s WALL (   24887 calls)
     fft          :      0.22s CPU      0.24s WALL (     180 calls)
     ffts         :      0.10s CPU      0.11s WALL (     202 calls)
     fftw         :   1782.42s CPU   1811.26s WALL ( 8397720 calls)
     interpolate  :      0.02s CPU      0.03s WALL (      12 calls)
 
     Parallel routines
     fft_scatt_xy :    145.30s CPU    147.65s WALL ( 8398102 calls)
     fft_scatt_yz :   1387.74s CPU   1410.58s WALL ( 8398102 calls)
 
     PWSCF        :      1h17m CPU      1h18m WALL

 
   This run was terminated on:   2:11:13   8Mar2022            

=------------------------------------------------------------------------------=
   JOB DONE.
=------------------------------------------------------------------------------=
