
     Program PWSCF v.6.7MaX starts on 30Nov2021 at  4: 3:43 

     This program is part of the open-source Quantum ESPRESSO suite
     for quantum simulation of materials; please cite
         "P. Giannozzi et al., J. Phys.:Condens. Matter 21 395502 (2009);
         "P. Giannozzi et al., J. Phys.:Condens. Matter 29 465901 (2017);
          URL http://www.quantum-espresso.org", 
     in publications or presentations arising from this work. More details at
     http://www.quantum-espresso.org/quote

     Parallel version (MPI & OpenMP), running on      72 processor cores
     Number of MPI processes:                72
     Threads/MPI process:                     1

     MPI processes distributed on     1 nodes
     R & G space division:  proc/nbgrp/npool/nimage =      72
     Reading input from sc_17.in
Warning: card &CELL ignored
Warning: card CELL_DYNAMICS = 'BFGS', ignored
Warning: card CELL_FACTOR = 2.0, ignored
Warning: card PRESS = 0.0, ignored
Warning: card / ignored

     Current dimensions of program PWSCF are:
     Max number of different atomic species (ntypx) = 10
     Max number of k-points (npk) =  40000
     Max angular momentum in pseudopotentials (lmaxx) =  3
     file Pd.pbe-spn-kjpaw_psl.1.0.0.UPF: wavefunction(s)  4S 5S 4D renormalized

     Subspace diagonalization in iterative solution of the eigenvalue problem:
     one sub-group per band group will be used
     ELPA distributed-memory algorithm (size of sub-group:  8*  8 procs)

     Found symmetry operation: I + (  0.0000  0.0000  0.5000)
     This is a supercell, fractional translations are disabled
     Message from routine setup:
     using ibrav=0 with symmetry is DISCOURAGED, use correct ibrav instead
 
     Parallelization info
     --------------------
     sticks:   dense  smooth     PW     G-vecs:    dense   smooth      PW
     Min         126      83     22                 9136     4901     684
     Max         127      84     23                 9145     4908     691
     Sum        9141    6025   1617               658239   353079   49509
 


     bravais-lattice index     =            0
     lattice parameter (alat)  =       9.0720  a.u.
     unit-cell volume          =    4373.5092 (a.u.)^3
     number of atoms/cell      =            8
     number of atomic types    =            1
     number of electrons       =       144.00
     number of Kohn-Sham states=           86
     kinetic-energy cutoff     =      71.0000  Ry
     charge density cutoff     =     430.0000  Ry
     scf convergence threshold =      1.0E-06
     mixing beta               =       0.1000
     number of iterations used =           10  TF        mixing
     Exchange-correlation= SLA  PW   PBX  PBC
                           (   1   4   3   4   0   0   0)

     celldm(1)=   9.072000  celldm(2)=   0.000000  celldm(3)=   0.000000
     celldm(4)=   0.000000  celldm(5)=   0.000000  celldm(6)=   0.000000

     crystal axes: (cart. coord. in units of alat)
               a(1) = (   1.802632   0.000000   0.000000 )  
               a(2) = (   0.000000   1.802632   0.000000 )  
               a(3) = (   0.000000   0.000000   1.802632 )  

     reciprocal axes: (cart. coord. in units 2 pi/alat)
               b(1) = (  0.554745  0.000000  0.000000 )  
               b(2) = (  0.000000  0.554745  0.000000 )  
               b(3) = (  0.000000  0.000000  0.554745 )  


     PseudoPot. # 1 for Pd read from file:
     /rds/homes/b/bxp912/pp/Pd.pbe-spn-kjpaw_psl.1.0.0.UPF
     MD5 check sum: 790f2ebce206edfd9790dcb9844eca51
     Pseudo is Projector augmented-wave + core cor, Zval = 18.0
     Generated using &quot;atomic&quot; code by A. Dal Corso  v.6.3
     Shape of augmentation charge: PSQ
     Using radial grid of 1235 points,  6 beta functions with: 
                l(1) =   0
                l(2) =   0
                l(3) =   1
                l(4) =   1
                l(5) =   2
                l(6) =   2
     Q(r) pseudized with 0 coefficients 


     atomic species   valence    mass     pseudopotential
        Pd            18.00   106.42000     Pd( 1.00)

     48 Sym. Ops., with inversion, found



   Cartesian axes

     site n.     atom                  positions (alat units)
         1           Pd  tau(   1) = (   0.0000000   0.0000000   0.0000000  )
         2           Pd  tau(   2) = (   0.0000000   0.0000000   0.9013158  )
         3           Pd  tau(   3) = (   0.0000000   0.9013158   0.0000000  )
         4           Pd  tau(   4) = (   0.0000000   0.9013158   0.9013158  )
         5           Pd  tau(   5) = (   0.9013158   0.0000000   0.0000000  )
         6           Pd  tau(   6) = (   0.9013158   0.0000000   0.9013158  )
         7           Pd  tau(   7) = (   0.9013158   0.9013158   0.0000000  )
         8           Pd  tau(   8) = (   0.9013158   0.9013158   0.9013158  )

     number of k points=    35  Marzari-Vanderbilt smearing, width (Ry)=  0.0400
                       cart. coord. in units 2pi/alat
        k(    1) = (   0.0308191   0.0308191   0.0308191), wk =   0.0219479
        k(    2) = (   0.0308191   0.0308191   0.0924574), wk =   0.0658436
        k(    3) = (   0.0308191   0.0308191   0.1540957), wk =   0.0658436
        k(    4) = (   0.0308191   0.0308191   0.2157340), wk =   0.0658436
        k(    5) = (   0.0308191   0.0308191  -0.2773723), wk =   0.0329218
        k(    6) = (   0.0308191   0.0924574   0.0924574), wk =   0.0658436
        k(    7) = (   0.0308191   0.0924574   0.1540957), wk =   0.1316872
        k(    8) = (   0.0308191   0.0924574   0.2157340), wk =   0.1316872
        k(    9) = (   0.0308191   0.0924574  -0.2773723), wk =   0.0658436
        k(   10) = (   0.0308191   0.1540957   0.1540957), wk =   0.0658436
        k(   11) = (   0.0308191   0.1540957   0.2157340), wk =   0.1316872
        k(   12) = (   0.0308191   0.1540957  -0.2773723), wk =   0.0658436
        k(   13) = (   0.0308191   0.2157340   0.2157340), wk =   0.0658436
        k(   14) = (   0.0308191   0.2157340  -0.2773723), wk =   0.0658436
        k(   15) = (   0.0308191  -0.2773723  -0.2773723), wk =   0.0164609
        k(   16) = (   0.0924574   0.0924574   0.0924574), wk =   0.0219479
        k(   17) = (   0.0924574   0.0924574   0.1540957), wk =   0.0658436
        k(   18) = (   0.0924574   0.0924574   0.2157340), wk =   0.0658436
        k(   19) = (   0.0924574   0.0924574  -0.2773723), wk =   0.0329218
        k(   20) = (   0.0924574   0.1540957   0.1540957), wk =   0.0658436
        k(   21) = (   0.0924574   0.1540957   0.2157340), wk =   0.1316872
        k(   22) = (   0.0924574   0.1540957  -0.2773723), wk =   0.0658436
        k(   23) = (   0.0924574   0.2157340   0.2157340), wk =   0.0658436
        k(   24) = (   0.0924574   0.2157340  -0.2773723), wk =   0.0658436
        k(   25) = (   0.0924574  -0.2773723  -0.2773723), wk =   0.0164609
        k(   26) = (   0.1540957   0.1540957   0.1540957), wk =   0.0219479
        k(   27) = (   0.1540957   0.1540957   0.2157340), wk =   0.0658436
        k(   28) = (   0.1540957   0.1540957  -0.2773723), wk =   0.0329218
        k(   29) = (   0.1540957   0.2157340   0.2157340), wk =   0.0658436
        k(   30) = (   0.1540957   0.2157340  -0.2773723), wk =   0.0658436
        k(   31) = (   0.1540957  -0.2773723  -0.2773723), wk =   0.0164609
        k(   32) = (   0.2157340   0.2157340   0.2157340), wk =   0.0219479
        k(   33) = (   0.2157340   0.2157340  -0.2773723), wk =   0.0329218
        k(   34) = (   0.2157340  -0.2773723  -0.2773723), wk =   0.0164609
        k(   35) = (  -0.2773723  -0.2773723  -0.2773723), wk =   0.0027435

     Dense  grid:   658239 G-vectors     FFT dimensions: ( 108, 108, 108)

     Smooth grid:   353079 G-vectors     FFT dimensions: (  90,  90,  90)

     Estimated max dynamical RAM per process >      67.03 MB

     Estimated total dynamical RAM >       4.71 GB

     Initial potential from superposition of free atoms

     starting charge  143.99694, renormalised to  144.00000
     Starting wfcs are   80 randomized atomic wfcs +    6 random wfcs
     Checking if some PAW data can be deallocated... 

     total cpu time spent up to now is        5.7 secs

     Self-consistent Calculation

     iteration #  1     ecut=    71.00 Ry     beta= 0.10
     Davidson diagonalization with overlap
     ethr =  1.00E-02,  avg # of iterations =  5.1

     total cpu time spent up to now is       14.2 secs

     total energy              =   -4095.34100142 Ry
     estimated scf accuracy    <       6.09108811 Ry

     iteration #  2     ecut=    71.00 Ry     beta= 0.10
     Davidson diagonalization with overlap
     ethr =  4.23E-03,  avg # of iterations =  1.0

     total cpu time spent up to now is       20.3 secs

     total energy              =   -4093.86964765 Ry
     estimated scf accuracy    <       4.55599987 Ry

     iteration #  3     ecut=    71.00 Ry     beta= 0.10
     Davidson diagonalization with overlap
     ethr =  3.16E-03,  avg # of iterations =  2.0

     total cpu time spent up to now is       29.6 secs

     total energy              =   -4093.98943753 Ry
     estimated scf accuracy    <       2.62194690 Ry

     iteration #  4     ecut=    71.00 Ry     beta= 0.10
     Davidson diagonalization with overlap
     ethr =  1.82E-03,  avg # of iterations =  1.3

     total cpu time spent up to now is       36.2 secs

     total energy              =   -4094.12655114 Ry
     estimated scf accuracy    <       1.41734625 Ry

     iteration #  5     ecut=    71.00 Ry     beta= 0.10
     Davidson diagonalization with overlap
     ethr =  9.84E-04,  avg # of iterations =  1.5

     total cpu time spent up to now is       44.0 secs

     total energy              =   -4094.07521680 Ry
     estimated scf accuracy    <       0.36724169 Ry

     iteration #  6     ecut=    71.00 Ry     beta= 0.10
     Davidson diagonalization with overlap
     ethr =  2.55E-04,  avg # of iterations =  2.9

     total cpu time spent up to now is       54.4 secs

     total energy              =   -4094.33253899 Ry
     estimated scf accuracy    <       1.41309667 Ry

     iteration #  7     ecut=    71.00 Ry     beta= 0.10
     Davidson diagonalization with overlap
     ethr =  2.55E-04,  avg # of iterations =  2.0

     total cpu time spent up to now is       63.0 secs

     total energy              =   -4094.31173984 Ry
     estimated scf accuracy    <       4.62601090 Ry

     iteration #  8     ecut=    71.00 Ry     beta= 0.10
     Davidson diagonalization with overlap
     ethr =  2.55E-04,  avg # of iterations =  1.0

     total cpu time spent up to now is       70.1 secs

     total energy              =   -4094.32956629 Ry
     estimated scf accuracy    <       1.92397085 Ry

     iteration #  9     ecut=    71.00 Ry     beta= 0.10
     Davidson diagonalization with overlap
     ethr =  2.55E-04,  avg # of iterations =  1.0

     total cpu time spent up to now is       76.9 secs

     total energy              =   -4094.34667179 Ry
     estimated scf accuracy    <       1.54929862 Ry

     iteration # 10     ecut=    71.00 Ry     beta= 0.10
     Davidson diagonalization with overlap
     ethr =  2.55E-04,  avg # of iterations =  1.0

     total cpu time spent up to now is       84.5 secs

     total energy              =   -4094.31135489 Ry
     estimated scf accuracy    <       1.86082806 Ry

     iteration # 11     ecut=    71.00 Ry     beta= 0.10
     Davidson diagonalization with overlap
     ethr =  2.55E-04,  avg # of iterations =  1.1

     total cpu time spent up to now is       91.0 secs

     total energy              =   -4094.27240872 Ry
     estimated scf accuracy    <       1.95917476 Ry

     iteration # 12     ecut=    71.00 Ry     beta= 0.10
     Davidson diagonalization with overlap
     ethr =  2.55E-04,  avg # of iterations =  1.5

     total cpu time spent up to now is       98.2 secs

     total energy              =   -4094.00062000 Ry
     estimated scf accuracy    <       1.47501026 Ry

     iteration # 13     ecut=    71.00 Ry     beta= 0.10
     Davidson diagonalization with overlap
     ethr =  2.55E-04,  avg # of iterations =  2.1

     total cpu time spent up to now is      106.3 secs

     total energy              =   -4094.05215378 Ry
     estimated scf accuracy    <       0.44864460 Ry

     iteration # 14     ecut=    71.00 Ry     beta= 0.10
     Davidson diagonalization with overlap
     ethr =  2.55E-04,  avg # of iterations =  1.0

     total cpu time spent up to now is      112.9 secs

     total energy              =   -4094.05618253 Ry
     estimated scf accuracy    <       0.21580093 Ry

     iteration # 15     ecut=    71.00 Ry     beta= 0.10
     Davidson diagonalization with overlap
     ethr =  1.50E-04,  avg # of iterations =  1.2

     total cpu time spent up to now is      119.7 secs

     total energy              =   -4094.04517852 Ry
     estimated scf accuracy    <       0.14198525 Ry

     iteration # 16     ecut=    71.00 Ry     beta= 0.10
     Davidson diagonalization with overlap
     ethr =  9.86E-05,  avg # of iterations =  2.0

     total cpu time spent up to now is      127.5 secs

     total energy              =   -4094.03065042 Ry
     estimated scf accuracy    <       0.05356168 Ry

     iteration # 17     ecut=    71.00 Ry     beta= 0.10
     Davidson diagonalization with overlap
     ethr =  3.72E-05,  avg # of iterations =  2.5

     total cpu time spent up to now is      136.4 secs

     total energy              =   -4094.04030001 Ry
     estimated scf accuracy    <       0.17973209 Ry

     iteration # 18     ecut=    71.00 Ry     beta= 0.10
     Davidson diagonalization with overlap
     ethr =  3.72E-05,  avg # of iterations =  2.1

     total cpu time spent up to now is      144.3 secs

     total energy              =   -4094.05241819 Ry
     estimated scf accuracy    <       0.02537704 Ry

     iteration # 19     ecut=    71.00 Ry     beta= 0.10
     Davidson diagonalization with overlap
     ethr =  1.76E-05,  avg # of iterations =  1.0

     total cpu time spent up to now is      151.2 secs

     total energy              =   -4094.05312934 Ry
     estimated scf accuracy    <       0.01197105 Ry

     iteration # 20     ecut=    71.00 Ry     beta= 0.10
     Davidson diagonalization with overlap
     ethr =  8.31E-06,  avg # of iterations =  1.2

     total cpu time spent up to now is      157.5 secs

     total energy              =   -4094.05321458 Ry
     estimated scf accuracy    <       0.00698809 Ry

     iteration # 21     ecut=    71.00 Ry     beta= 0.10
     Davidson diagonalization with overlap
     ethr =  4.85E-06,  avg # of iterations =  1.1

     total cpu time spent up to now is      164.6 secs

     total energy              =   -4094.05314929 Ry
     estimated scf accuracy    <       0.00297066 Ry

     iteration # 22     ecut=    71.00 Ry     beta= 0.10
     Davidson diagonalization with overlap
     c_bands:  1 eigenvalues not converged
     c_bands:  1 eigenvalues not converged
     ethr =  2.06E-06,  avg # of iterations =  2.7

     total cpu time spent up to now is      171.2 secs

     total energy              =   -4094.05334845 Ry
     estimated scf accuracy    <       0.00601600 Ry

     iteration # 23     ecut=    71.00 Ry     beta= 0.10
     Davidson diagonalization with overlap
     c_bands:  1 eigenvalues not converged
     ethr =  2.06E-06,  avg # of iterations =  1.5

     total cpu time spent up to now is      177.5 secs

     total energy              =   -4094.05304241 Ry
     estimated scf accuracy    <       0.00152389 Ry

     iteration # 24     ecut=    71.00 Ry     beta= 0.10
     Davidson diagonalization with overlap
     ethr =  1.06E-06,  avg # of iterations =  2.0

     total cpu time spent up to now is      185.1 secs

     total energy              =   -4094.05331149 Ry
     estimated scf accuracy    <       0.00010598 Ry

     iteration # 25     ecut=    71.00 Ry     beta= 0.10
     Davidson diagonalization with overlap
     ethr =  7.36E-08,  avg # of iterations =  2.0

     total cpu time spent up to now is      192.5 secs

     total energy              =   -4094.05332497 Ry
     estimated scf accuracy    <       0.00000445 Ry

     iteration # 26     ecut=    71.00 Ry     beta= 0.10
     Davidson diagonalization with overlap
     ethr =  3.09E-09,  avg # of iterations =  2.0

     total cpu time spent up to now is      200.0 secs

     total energy              =   -4094.05332859 Ry
     estimated scf accuracy    <       0.00000183 Ry

     iteration # 27     ecut=    71.00 Ry     beta= 0.10
     Davidson diagonalization with overlap
     ethr =  1.27E-09,  avg # of iterations =  3.0

     total cpu time spent up to now is      208.0 secs

     total energy              =   -4094.05333235 Ry
     estimated scf accuracy    <       0.00000136 Ry

     iteration # 28     ecut=    71.00 Ry     beta= 0.10
     Davidson diagonalization with overlap
     ethr =  9.47E-10,  avg # of iterations =  2.6

     total cpu time spent up to now is      215.7 secs

     total energy              =   -4094.05333355 Ry
     estimated scf accuracy    <       0.00000187 Ry

     iteration # 29     ecut=    71.00 Ry     beta= 0.10
     Davidson diagonalization with overlap
     c_bands:  1 eigenvalues not converged
     ethr =  9.47E-10,  avg # of iterations =  2.5

     total cpu time spent up to now is      223.0 secs

     End of self-consistent calculation

          k = 0.0308 0.0308 0.0308 ( 44062 PWs)   bands (ev):

   -82.1993 -82.1992 -82.1992 -82.1992 -82.1992 -82.1992 -82.1992 -82.1991
   -48.0211 -48.0210 -48.0210 -48.0210 -48.0210 -48.0210 -48.0210 -48.0209
   -48.0209 -48.0209 -48.0208 -48.0208 -48.0204 -48.0204 -48.0204 -48.0204
   -48.0204 -48.0204 -48.0203 -48.0203 -48.0203 -48.0202 -48.0202 -48.0202
    -0.9294  -0.8311  -0.8311  -0.8028  -0.8028  -0.8028  -0.7766  -0.7766
    -0.7766  -0.7600  -0.7600  -0.7599  -0.7529  -0.7529  -0.7528  -0.7374
    -0.7365  -0.7365  -0.5988  -0.5988  -0.5988  -0.5980  -0.5980  -0.5979
    -0.5833  -0.5833  -0.5833  -0.5832  -0.5832  -0.5831  -0.5016  -0.5013
    -0.5013  -0.4929  -0.4929  -0.4929  -0.4115  -0.4114  -0.4114  -0.4053
    -0.4053   0.6335   0.6336   0.6336   1.8469   1.8469   1.8469   2.3753
     2.3753   2.3753   3.0873   3.6275   3.6438   3.6443

          k = 0.0308 0.0308 0.0925 ( 44112 PWs)   bands (ev):

   -82.1993 -82.1992 -82.1992 -82.1992 -82.1992 -82.1992 -82.1992 -82.1991
   -48.0210 -48.0210 -48.0210 -48.0210 -48.0210 -48.0210 -48.0210 -48.0210
   -48.0209 -48.0209 -48.0208 -48.0208 -48.0205 -48.0205 -48.0204 -48.0204
   -48.0204 -48.0204 -48.0204 -48.0203 -48.0203 -48.0203 -48.0202 -48.0202
    -0.8869  -0.8294  -0.8142  -0.8045  -0.7954  -0.7953  -0.7743  -0.7671
    -0.7671  -0.7654  -0.7552  -0.7552  -0.7399  -0.7399  -0.7394  -0.7315
    -0.7284  -0.7279  -0.6107  -0.6107  -0.5974  -0.5973  -0.5933  -0.5932
    -0.5931  -0.5923  -0.5842  -0.5841  -0.5779  -0.5779  -0.5074  -0.5074
    -0.5009  -0.4985  -0.4985  -0.4935  -0.4288  -0.4288  -0.4255  -0.4110
    -0.4056   0.4316   0.6656   0.6656   1.6670   1.6670   1.8831   2.4296
     2.4296   2.6783   2.9063   3.5122   3.5124   3.6967

          k = 0.0308 0.0308 0.1541 ( 44150 PWs)   bands (ev):

   -82.1993 -82.1992 -82.1992 -82.1992 -82.1992 -82.1992 -82.1992 -82.1991
   -48.0210 -48.0210 -48.0210 -48.0210 -48.0210 -48.0210 -48.0210 -48.0209
   -48.0209 -48.0209 -48.0209 -48.0208 -48.0206 -48.0206 -48.0205 -48.0205
   -48.0205 -48.0204 -48.0204 -48.0204 -48.0203 -48.0203 -48.0202 -48.0202
    -0.8442  -0.8262  -0.8077  -0.7873  -0.7873  -0.7757  -0.7698  -0.7596
    -0.7595  -0.7488  -0.7488  -0.7439  -0.7394  -0.7121  -0.7116  -0.6972
    -0.6972  -0.6915  -0.6330  -0.6330  -0.6119  -0.6117  -0.5957  -0.5956
    -0.5859  -0.5858  -0.5825  -0.5816  -0.5679  -0.5679  -0.5186  -0.5183
    -0.5089  -0.5089  -0.4999  -0.4944  -0.4639  -0.4631  -0.4630  -0.4103
    -0.4063   0.1517   0.7325   0.7325   1.4220   1.4221   1.9571   2.5354
     2.5354   2.6620   3.1598   3.3151   3.3151   3.7906

          k = 0.0308 0.0308 0.2157 ( 44144 PWs)   bands (ev):

   -82.1993 -82.1992 -82.1992 -82.1992 -82.1992 -82.1992 -82.1992 -82.1991
   -48.0210 -48.0210 -48.0210 -48.0210 -48.0210 -48.0210 -48.0209 -48.0209
   -48.0209 -48.0208 -48.0208 -48.0207 -48.0206 -48.0206 -48.0206 -48.0205
   -48.0205 -48.0205 -48.0204 -48.0204 -48.0203 -48.0203 -48.0202 -48.0202
    -0.8231  -0.8219  -0.8121  -0.7896  -0.7798  -0.7798  -0.7655  -0.7655
    -0.7637  -0.7499  -0.7235  -0.7235  -0.6896  -0.6892  -0.6622  -0.6622
    -0.6398  -0.6380  -0.6380  -0.6361  -0.6341  -0.5934  -0.5933  -0.5903
    -0.5882  -0.5881  -0.5682  -0.5671  -0.5545  -0.5545  -0.5336  -0.5302
    -0.5228  -0.5228  -0.5162  -0.5124  -0.5124  -0.4986  -0.4957  -0.4094
    -0.4072  -0.1289   0.8388   0.8388   1.1867   1.1867   2.0712   2.4271
     2.6873   2.6873   3.0926   3.0926   3.7414   3.9420

          k = 0.0308 0.0308-0.2774 ( 44190 PWs)   bands (ev):

   -82.1993 -82.1992 -82.1992 -82.1992 -82.1992 -82.1992 -82.1992 -82.1991
   -48.0210 -48.0210 -48.0210 -48.0210 -48.0210 -48.0210 -48.0209 -48.0209
   -48.0208 -48.0208 -48.0208 -48.0208 -48.0208 -48.0206 -48.0206 -48.0206
   -48.0205 -48.0205 -48.0205 -48.0204 -48.0203 -48.0203 -48.0202 -48.0202
    -0.8170  -0.8170  -0.8057  -0.8056  -0.7725  -0.7725  -0.7724  -0.7724
    -0.7568  -0.7568  -0.6935  -0.6935  -0.6934  -0.6934  -0.6635  -0.6634
    -0.6630  -0.6630  -0.5908  -0.5908  -0.5908  -0.5907  -0.5765  -0.5765
    -0.5738  -0.5737  -0.5737  -0.5737  -0.5523  -0.5523  -0.5504  -0.5504
    -0.5383  -0.5383  -0.5383  -0.5383  -0.4972  -0.4972  -0.4083  -0.4083
    -0.3786  -0.3786   0.9896   0.9896   0.9898   0.9898   2.2277   2.2279
     2.8769   2.8769   2.8772   2.8772   4.1253   4.3894

          k = 0.0308 0.0925 0.0925 ( 44147 PWs)   bands (ev):

   -82.1993 -82.1992 -82.1992 -82.1992 -82.1992 -82.1992 -82.1992 -82.1991
   -48.0210 -48.0210 -48.0210 -48.0210 -48.0210 -48.0210 -48.0210 -48.0209
   -48.0209 -48.0209 -48.0208 -48.0208 -48.0206 -48.0205 -48.0205 -48.0205
   -48.0205 -48.0204 -48.0204 -48.0204 -48.0203 -48.0203 -48.0203 -48.0202
    -0.8478  -0.8116  -0.8105  -0.7973  -0.7972  -0.7834  -0.7648  -0.7648
    -0.7580  -0.7574  -0.7453  -0.7452  -0.7339  -0.7339  -0.7332  -0.7281
    -0.7251  -0.7198  -0.6128  -0.6062  -0.6048  -0.6048  -0.5943  -0.5943
    -0.5917  -0.5917  -0.5878  -0.5877  -0.5794  -0.5782  -0.5130  -0.5074
    -0.5063  -0.5042  -0.4990  -0.4990  -0.4448  -0.4351  -0.4282  -0.4282
    -0.4162   0.4656   0.4656   0.6984   1.4895   1.7044   1.7044   2.4837
     2.7308   2.7308   2.7311   3.5646   3.5647   3.8543

          k = 0.0308 0.0925 0.1541 ( 44173 PWs)   bands (ev):

   -82.1993 -82.1992 -82.1992 -82.1992 -82.1992 -82.1992 -82.1992 -82.1991
   -48.0211 -48.0210 -48.0210 -48.0210 -48.0210 -48.0210 -48.0209 -48.0209
   -48.0209 -48.0209 -48.0208 -48.0208 -48.0206 -48.0206 -48.0205 -48.0205
   -48.0205 -48.0205 -48.0204 -48.0204 -48.0204 -48.0203 -48.0203 -48.0202
    -0.8286  -0.8052  -0.8008  -0.7895  -0.7702  -0.7619  -0.7605  -0.7551
    -0.7467  -0.7402  -0.7384  -0.7358  -0.7173  -0.7135  -0.7039  -0.7027
    -0.6941  -0.6888  -0.6326  -0.6265  -0.6129  -0.6066  -0.6058  -0.5961
    -0.5939  -0.5901  -0.5811  -0.5806  -0.5775  -0.5687  -0.5227  -0.5178
    -0.5149  -0.5095  -0.5057  -0.5000  -0.4765  -0.4693  -0.4618  -0.4271
    -0.4207   0.1872   0.5359   0.7664   1.2441   1.4600   1.7803   2.4905
     2.5892   2.8335   3.2109   3.3675   3.6033   3.6669

          k = 0.0308 0.0925 0.2157 ( 44198 PWs)   bands (ev):

   -82.1993 -82.1992 -82.1992 -82.1992 -82.1992 -82.1992 -82.1992 -82.1991
   -48.0211 -48.0210 -48.0210 -48.0210 -48.0210 -48.0210 -48.0209 -48.0209
   -48.0209 -48.0208 -48.0208 -48.0207 -48.0207 -48.0206 -48.0206 -48.0205
   -48.0205 -48.0205 -48.0205 -48.0204 -48.0204 -48.0203 -48.0203 -48.0202
    -0.8194  -0.8059  -0.7952  -0.7822  -0.7681  -0.7679  -0.7602  -0.7547
    -0.7445  -0.7415  -0.7216  -0.7156  -0.6911  -0.6821  -0.6612  -0.6586
    -0.6433  -0.6408  -0.6369  -0.6338  -0.6276  -0.6043  -0.5986  -0.5878
    -0.5828  -0.5809  -0.5796  -0.5667  -0.5643  -0.5553  -0.5338  -0.5290
    -0.5235  -0.5227  -0.5201  -0.5155  -0.5095  -0.5040  -0.5014  -0.4257
    -0.4226  -0.0924   0.6470   0.8742   1.0053   1.2243   1.8967   2.2562
     2.7406   2.9817   3.1452   3.3818   3.7918   3.8138

          k = 0.0308 0.0925-0.2774 ( 44200 PWs)   bands (ev):

   -82.1993 -82.1992 -82.1992 -82.1992 -82.1992 -82.1992 -82.1992 -82.1991
   -48.0210 -48.0210 -48.0210 -48.0210 -48.0210 -48.0210 -48.0209 -48.0209
   -48.0208 -48.0208 -48.0208 -48.0208 -48.0207 -48.0206 -48.0206 -48.0206
   -48.0205 -48.0205 -48.0205 -48.0204 -48.0204 -48.0203 -48.0203 -48.0202
    -0.8121  -0.8120  -0.7822  -0.7821  -0.7749  -0.7748  -0.7519  -0.7519
    -0.7481  -0.7480  -0.6920  -0.6919  -0.6865  -0.6865  -0.6648  -0.6648
    -0.6568  -0.6567  -0.6015  -0.6014  -0.5854  -0.5853  -0.5810  -0.5810
    -0.5793  -0.5793  -0.5742  -0.5742  -0.5649  -0.5649  -0.5502  -0.5501
    -0.5427  -0.5427  -0.5391  -0.5391  -0.5030  -0.5030  -0.4242  -0.4242
    -0.3406  -0.3406   0.8032   0.8033   1.0263   1.0265   2.0554   2.0557
     2.9298   2.9301   3.1681   3.1683   3.9969   4.4388

          k = 0.0308 0.1541 0.1541 ( 44182 PWs)   bands (ev):

   -82.1993 -82.1992 -82.1992 -82.1992 -82.1992 -82.1992 -82.1992 -82.1991
   -48.0211 -48.0210 -48.0210 -48.0210 -48.0209 -48.0209 -48.0209 -48.0209
   -48.0209 -48.0209 -48.0208 -48.0208 -48.0206 -48.0206 -48.0206 -48.0205
   -48.0205 -48.0205 -48.0204 -48.0204 -48.0204 -48.0204 -48.0203 -48.0202
    -0.8216  -0.7938  -0.7937  -0.7734  -0.7664  -0.7457  -0.7427  -0.7427
    -0.7245  -0.7235  -0.7126  -0.7126  -0.7122  -0.6990  -0.6989  -0.6889
    -0.6661  -0.6460  -0.6365  -0.6217  -0.6151  -0.6151  -0.6149  -0.6149
    -0.5949  -0.5949  -0.5795  -0.5795  -0.5717  -0.5690  -0.5260  -0.5255
    -0.5165  -0.5155  -0.5106  -0.5106  -0.5036  -0.4886  -0.4597  -0.4597
    -0.4390   0.2608   0.2608   0.8365   0.9951   1.5370   1.5370   2.2519
     2.6940   3.3112   3.3112   3.4698   3.4698   4.0246

          k = 0.0308 0.1541 0.2157 ( 44221 PWs)   bands (ev):

   -82.1993 -82.1992 -82.1992 -82.1992 -82.1992 -82.1992 -82.1992 -82.1991
   -48.0211 -48.0211 -48.0210 -48.0210 -48.0210 -48.0209 -48.0209 -48.0209
   -48.0208 -48.0208 -48.0208 -48.0207 -48.0207 -48.0206 -48.0206 -48.0206
   -48.0205 -48.0205 -48.0205 -48.0204 -48.0204 -48.0204 -48.0203 -48.0202
    -0.8143  -0.7996  -0.7867  -0.7724  -0.7546  -0.7374  -0.7268  -0.7259
    -0.7252  -0.7182  -0.7058  -0.7004  -0.6934  -0.6682  -0.6603  -0.6598
    -0.6482  -0.6394  -0.6381  -0.6238  -0.6234  -0.6179  -0.6163  -0.6002
    -0.5813  -0.5809  -0.5774  -0.5727  -0.5652  -0.5570  -0.5434  -0.5400
    -0.5325  -0.5307  -0.5247  -0.5156  -0.5121  -0.5051  -0.4570  -0.4530
    -0.4488  -0.0163   0.3769   0.7497   0.9469   1.3010   1.6549   2.0175
     2.8447   3.2479   3.4567   3.6174   3.8528   3.8909

          k = 0.0308 0.1541-0.2774 ( 44192 PWs)   bands (ev):

   -82.1993 -82.1992 -82.1992 -82.1992 -82.1992 -82.1992 -82.1992 -82.1991
   -48.0211 -48.0211 -48.0210 -48.0209 -48.0209 -48.0209 -48.0209 -48.0208
   -48.0208 -48.0208 -48.0207 -48.0207 -48.0207 -48.0206 -48.0206 -48.0206
   -48.0206 -48.0205 -48.0205 -48.0204 -48.0204 -48.0204 -48.0203 -48.0202
    -0.8067  -0.8067  -0.7794  -0.7794  -0.7394  -0.7394  -0.7315  -0.7314
    -0.7146  -0.7146  -0.6893  -0.6893  -0.6733  -0.6733  -0.6674  -0.6674
    -0.6445  -0.6445  -0.6210  -0.6210  -0.5958  -0.5958  -0.5859  -0.5858
    -0.5853  -0.5853  -0.5786  -0.5786  -0.5750  -0.5750  -0.5488  -0.5488
    -0.5464  -0.5464  -0.5405  -0.5405  -0.5138  -0.5137  -0.4537  -0.4537
    -0.2620  -0.2620   0.5399   0.5400   1.1014   1.1016   1.8154   1.8156
     3.0331   3.0334   3.6408   3.6410   3.8012   3.8012

          k = 0.0308 0.2157 0.2157 ( 44178 PWs)   bands (ev):

   -82.1993 -82.1992 -82.1992 -82.1992 -82.1992 -82.1992 -82.1992 -82.1991
   -48.0211 -48.0211 -48.0210 -48.0209 -48.0209 -48.0208 -48.0208 -48.0208
   -48.0208 -48.0208 -48.0207 -48.0207 -48.0207 -48.0206 -48.0206 -48.0206
   -48.0206 -48.0205 -48.0205 -48.0205 -48.0204 -48.0204 -48.0203 -48.0202
    -0.8075  -0.7929  -0.7928  -0.7785  -0.7186  -0.7137  -0.7137  -0.7101
    -0.6921  -0.6909  -0.6793  -0.6729  -0.6729  -0.6641  -0.6560  -0.6559
    -0.6493  -0.6427  -0.6426  -0.6426  -0.6253  -0.6252  -0.6041  -0.6023
    -0.6022  -0.5926  -0.5766  -0.5633  -0.5633  -0.5607  -0.5560  -0.5559
    -0.5515  -0.5327  -0.5280  -0.5263  -0.5263  -0.4993  -0.4992  -0.4748
    -0.3249   0.1050   0.1050   0.4954   1.0603   1.4188   1.4188   1.7823
     2.9944   3.3958   3.3958   3.7922   4.0352   4.0352

          k = 0.0308 0.2157-0.2774 ( 44182 PWs)   bands (ev):

   -82.1993 -82.1992 -82.1992 -82.1992 -82.1992 -82.1992 -82.1992 -82.1991
   -48.0211 -48.0211 -48.0210 -48.0209 -48.0209 -48.0209 -48.0208 -48.0208
   -48.0208 -48.0207 -48.0207 -48.0207 -48.0207 -48.0206 -48.0206 -48.0206
   -48.0206 -48.0206 -48.0205 -48.0205 -48.0204 -48.0204 -48.0203 -48.0202
    -0.8001  -0.8000  -0.7856  -0.7856  -0.7094  -0.7093  -0.6921  -0.6921
    -0.6867  -0.6866  -0.6701  -0.6701  -0.6688  -0.6688  -0.6549  -0.6549
    -0.6455  -0.6454  -0.6281  -0.6281  -0.6187  -0.6187  -0.6088  -0.6088
    -0.5992  -0.5992  -0.5912  -0.5912  -0.5611  -0.5611  -0.5472  -0.5471
    -0.5422  -0.5422  -0.5412  -0.5412  -0.5281  -0.5280  -0.4906  -0.4906
    -0.1348  -0.1348   0.2761   0.2762   1.2175   1.2177   1.5795   1.5797
     3.1819   3.1821   3.5810   3.5811   4.2187   4.2189

          k = 0.0308-0.2774-0.2774 ( 44208 PWs)   bands (ev):

   -82.1993 -82.1992 -82.1992 -82.1992 -82.1992 -82.1992 -82.1992 -82.1991
   -48.0211 -48.0211 -48.0210 -48.0209 -48.0208 -48.0208 -48.0208 -48.0208
   -48.0208 -48.0208 -48.0207 -48.0207 -48.0207 -48.0207 -48.0207 -48.0206
   -48.0206 -48.0206 -48.0206 -48.0206 -48.0204 -48.0204 -48.0203 -48.0203
    -0.7928  -0.7928  -0.7928  -0.7927  -0.6896  -0.6896  -0.6896  -0.6896
    -0.6670  -0.6670  -0.6669  -0.6669  -0.6509  -0.6509  -0.6509  -0.6509
    -0.6326  -0.6325  -0.6325  -0.6325  -0.6265  -0.6264  -0.6264  -0.6264
    -0.6089  -0.6089  -0.6089  -0.6089  -0.5472  -0.5472  -0.5472  -0.5472
    -0.5422  -0.5421  -0.5421  -0.5421  -0.5230  -0.5230  -0.5230  -0.5229
     0.0460   0.0460   0.0460   0.0461   1.3770   1.3772   1.3772   1.3774
     3.3683   3.3684   3.3684   3.3686   4.8634   4.8635

          k = 0.0925 0.0925 0.0925 ( 44140 PWs)   bands (ev):

   -82.1993 -82.1992 -82.1992 -82.1992 -82.1992 -82.1992 -82.1992 -82.1991
   -48.0210 -48.0210 -48.0210 -48.0210 -48.0210 -48.0210 -48.0209 -48.0209
   -48.0209 -48.0208 -48.0208 -48.0208 -48.0205 -48.0205 -48.0205 -48.0205
   -48.0205 -48.0205 -48.0204 -48.0204 -48.0203 -48.0203 -48.0203 -48.0203
    -0.8099  -0.8099  -0.7901  -0.7852  -0.7851  -0.7851  -0.7557  -0.7557
    -0.7557  -0.7363  -0.7363  -0.7363  -0.7307  -0.7307  -0.7306  -0.7271
    -0.7197  -0.7197  -0.6071  -0.6070  -0.6070  -0.6003  -0.6003  -0.6003
    -0.5893  -0.5893  -0.5893  -0.5882  -0.5882  -0.5881  -0.5125  -0.5125
    -0.5122  -0.5048  -0.5048  -0.5048  -0.4441  -0.4440  -0.4440  -0.4356
    -0.4356   0.5001   0.5002   0.5002   1.5279   1.5279   1.5279   2.5602
     2.7832   2.7832   2.7832   3.9026   3.9041   3.9043

          k = 0.0925 0.0925 0.1541 ( 44176 PWs)   bands (ev):

   -82.1993 -82.1992 -82.1992 -82.1992 -82.1992 -82.1992 -82.1992 -82.1991
   -48.0210 -48.0210 -48.0210 -48.0210 -48.0210 -48.0210 -48.0209 -48.0209
   -48.0209 -48.0208 -48.0208 -48.0208 -48.0206 -48.0206 -48.0205 -48.0205
   -48.0205 -48.0205 -48.0204 -48.0204 -48.0204 -48.0203 -48.0203 -48.0203
    -0.8068  -0.7978  -0.7884  -0.7722  -0.7721  -0.7515  -0.7409  -0.7408
    -0.7408  -0.7381  -0.7381  -0.7280  -0.7070  -0.7038  -0.6967  -0.6947
    -0.6946  -0.6895  -0.6261  -0.6261  -0.6075  -0.6064  -0.6007  -0.6007
    -0.5964  -0.5906  -0.5906  -0.5892  -0.5784  -0.5784  -0.5240  -0.5191
    -0.5156  -0.5156  -0.5108  -0.5059  -0.4753  -0.4752  -0.4726  -0.4427
    -0.4366   0.2234   0.5716   0.5716   1.2832   1.2832   1.6057   2.3221
     2.8856   2.8856   3.2619   3.6547   3.6548   4.0026

          k = 0.0925 0.0925 0.2157 ( 44190 PWs)   bands (ev):

   -82.1993 -82.1992 -82.1992 -82.1992 -82.1992 -82.1992 -82.1992 -82.1991
   -48.0210 -48.0210 -48.0210 -48.0210 -48.0210 -48.0210 -48.0209 -48.0209
   -48.0208 -48.0208 -48.0208 -48.0207 -48.0207 -48.0206 -48.0206 -48.0205
   -48.0205 -48.0205 -48.0205 -48.0204 -48.0204 -48.0204 -48.0203 -48.0203
    -0.8025  -0.7928  -0.7845  -0.7625  -0.7624  -0.7545  -0.7470  -0.7469
    -0.7459  -0.7332  -0.7138  -0.7138  -0.6854  -0.6820  -0.6570  -0.6570
    -0.6471  -0.6375  -0.6375  -0.6302  -0.6280  -0.5985  -0.5985  -0.5931
    -0.5930  -0.5826  -0.5767  -0.5741  -0.5654  -0.5654  -0.5395  -0.5298
    -0.5298  -0.5233  -0.5198  -0.5198  -0.5123  -0.5074  -0.4844  -0.4411
    -0.4379  -0.0550   0.6840   0.6840   1.0443   1.0443   1.7245   2.0878
     3.0336   3.0336   3.4333   3.4333   3.8421   4.1444

          k = 0.0925 0.0925-0.2774 ( 44166 PWs)   bands (ev):

   -82.1993 -82.1992 -82.1992 -82.1992 -82.1992 -82.1992 -82.1992 -82.1991
   -48.0210 -48.0210 -48.0210 -48.0210 -48.0210 -48.0209 -48.0209 -48.0208
   -48.0208 -48.0207 -48.0207 -48.0207 -48.0207 -48.0206 -48.0206 -48.0206
   -48.0205 -48.0205 -48.0205 -48.0205 -48.0204 -48.0204 -48.0203 -48.0203
    -0.7977  -0.7977  -0.7696  -0.7696  -0.7543  -0.7543  -0.7542  -0.7542
    -0.7395  -0.7395  -0.6851  -0.6851  -0.6851  -0.6851  -0.6600  -0.6600
    -0.6565  -0.6565  -0.5959  -0.5958  -0.5958  -0.5958  -0.5818  -0.5818
    -0.5809  -0.5809  -0.5808  -0.5808  -0.5691  -0.5691  -0.5569  -0.5569
    -0.5444  -0.5444  -0.5443  -0.5443  -0.5092  -0.5092  -0.4395  -0.4394
    -0.3020  -0.3020   0.8414   0.8414   0.8415   0.8416   1.8855   1.8857
     3.2198   3.2198   3.2200   3.2200   4.2461   4.3234

          k = 0.0925 0.1541 0.1541 ( 44185 PWs)   bands (ev):

   -82.1993 -82.1992 -82.1992 -82.1992 -82.1992 -82.1992 -82.1992 -82.1991
   -48.0210 -48.0210 -48.0210 -48.0210 -48.0209 -48.0209 -48.0209 -48.0209
   -48.0209 -48.0208 -48.0208 -48.0208 -48.0206 -48.0206 -48.0205 -48.0205
   -48.0205 -48.0205 -48.0205 -48.0204 -48.0204 -48.0204 -48.0204 -48.0203
    -0.7994  -0.7759  -0.7759  -0.7718  -0.7475  -0.7453  -0.7343  -0.7343
    -0.7216  -0.7172  -0.7052  -0.7051  -0.7043  -0.7016  -0.7016  -0.6900
    -0.6728  -0.6300  -0.6220  -0.6153  -0.6148  -0.6147  -0.6091  -0.6091
    -0.5959  -0.5959  -0.5897  -0.5897  -0.5815  -0.5789  -0.5295  -0.5268
    -0.5220  -0.5168  -0.5168  -0.5047  -0.5020  -0.4893  -0.4732  -0.4731
    -0.4567   0.2981   0.2981   0.6451   1.0351   1.3622   1.3622   2.0852
     2.9877   3.3621   3.3621   3.7554   3.7555   4.1867

          k = 0.0925 0.1541 0.2157 ( 44201 PWs)   bands (ev):

   -82.1993 -82.1992 -82.1992 -82.1992 -82.1992 -82.1992 -82.1992 -82.1991
   -48.0210 -48.0210 -48.0210 -48.0209 -48.0209 -48.0209 -48.0209 -48.0209
   -48.0208 -48.0208 -48.0208 -48.0207 -48.0207 -48.0206 -48.0206 -48.0206
   -48.0205 -48.0205 -48.0205 -48.0205 -48.0204 -48.0204 -48.0204 -48.0203
    -0.7933  -0.7810  -0.7667  -0.7516  -0.7515  -0.7291  -0.7289  -0.7188
    -0.7181  -0.7106  -0.7081  -0.6987  -0.6863  -0.6694  -0.6570  -0.6547
    -0.6522  -0.6370  -0.6316  -0.6289  -0.6175  -0.6172  -0.6118  -0.6003
    -0.5876  -0.5827  -0.5824  -0.5795  -0.5749  -0.5677  -0.5414  -0.5411
    -0.5400  -0.5324  -0.5313  -0.5228  -0.5185  -0.5157  -0.4707  -0.4643
    -0.4136   0.0224   0.4156   0.7598   0.7899   1.1233   1.4828   1.8501
     3.1352   3.5074   3.5340   3.9006   3.9034   3.9411

          k = 0.0925 0.1541-0.2774 ( 44196 PWs)   bands (ev):

   -82.1993 -82.1992 -82.1992 -82.1992 -82.1992 -82.1992 -82.1992 -82.1991
   -48.0210 -48.0210 -48.0210 -48.0209 -48.0209 -48.0209 -48.0209 -48.0208
   -48.0208 -48.0208 -48.0207 -48.0207 -48.0207 -48.0206 -48.0206 -48.0206
   -48.0206 -48.0206 -48.0205 -48.0205 -48.0205 -48.0204 -48.0204 -48.0203
    -0.7871  -0.7870  -0.7588  -0.7587  -0.7345  -0.7344  -0.7234  -0.7234
    -0.7171  -0.7170  -0.6825  -0.6825  -0.6719  -0.6719  -0.6613  -0.6613
    -0.6456  -0.6455  -0.6148  -0.6147  -0.5956  -0.5956  -0.5877  -0.5877
    -0.5858  -0.5858  -0.5848  -0.5847  -0.5834  -0.5834  -0.5580  -0.5580
    -0.5507  -0.5507  -0.5469  -0.5469  -0.5206  -0.5206  -0.4679  -0.4678
    -0.2220  -0.2220   0.5797   0.5798   0.9193   0.9194   1.6459   1.6461
     3.3209   3.3211   3.6914   3.6916   4.0830   4.0830

          k = 0.0925 0.2157 0.2157 ( 44182 PWs)   bands (ev):

   -82.1993 -82.1992 -82.1992 -82.1992 -82.1992 -82.1992 -82.1992 -82.1991
   -48.0210 -48.0210 -48.0210 -48.0209 -48.0209 -48.0208 -48.0208 -48.0208
   -48.0208 -48.0208 -48.0207 -48.0207 -48.0207 -48.0206 -48.0206 -48.0206
   -48.0206 -48.0205 -48.0205 -48.0205 -48.0205 -48.0204 -48.0204 -48.0203
    -0.7864  -0.7726  -0.7725  -0.7576  -0.7172  -0.7062  -0.7062  -0.7029
    -0.6944  -0.6837  -0.6778  -0.6700  -0.6700  -0.6597  -0.6596  -0.6583
    -0.6505  -0.6352  -0.6347  -0.6347  -0.6246  -0.6246  -0.6103  -0.6034
    -0.6033  -0.5918  -0.5799  -0.5730  -0.5730  -0.5703  -0.5600  -0.5566
    -0.5539  -0.5426  -0.5349  -0.5333  -0.5333  -0.5107  -0.5107  -0.4897
    -0.2832   0.1450   0.1450   0.5363   0.8773   1.2442   1.2442   1.6136
     3.2820   3.6796   3.6796   4.0732   4.0853   4.0854

          k = 0.0925 0.2157-0.2774 ( 44190 PWs)   bands (ev):

   -82.1993 -82.1992 -82.1992 -82.1992 -82.1992 -82.1992 -82.1992 -82.1991
   -48.0210 -48.0210 -48.0210 -48.0209 -48.0208 -48.0208 -48.0208 -48.0208
   -48.0208 -48.0207 -48.0207 -48.0207 -48.0207 -48.0207 -48.0207 -48.0206
   -48.0206 -48.0206 -48.0205 -48.0205 -48.0204 -48.0204 -48.0204 -48.0203
    -0.7793  -0.7793  -0.7649  -0.7648  -0.7020  -0.7020  -0.6902  -0.6902
    -0.6802  -0.6802  -0.6716  -0.6716  -0.6639  -0.6639  -0.6536  -0.6536
    -0.6377  -0.6376  -0.6293  -0.6292  -0.6181  -0.6181  -0.6082  -0.6082
    -0.6001  -0.6001  -0.5936  -0.5936  -0.5705  -0.5705  -0.5565  -0.5564
    -0.5495  -0.5495  -0.5493  -0.5493  -0.5354  -0.5354  -0.5035  -0.5035
    -0.0936  -0.0936   0.3169   0.3170   1.0390   1.0391   1.4082   1.4083
     3.4671   3.4673   3.8630   3.8631   4.2688   4.2690

          k = 0.0925-0.2774-0.2774 ( 44196 PWs)   bands (ev):

   -82.1993 -82.1992 -82.1992 -82.1992 -82.1992 -82.1992 -82.1992 -82.1991
   -48.0210 -48.0210 -48.0210 -48.0209 -48.0208 -48.0208 -48.0208 -48.0208
   -48.0207 -48.0207 -48.0207 -48.0207 -48.0207 -48.0207 -48.0206 -48.0206
   -48.0206 -48.0206 -48.0206 -48.0206 -48.0204 -48.0204 -48.0204 -48.0203
    -0.7719  -0.7719  -0.7719  -0.7718  -0.6829  -0.6829  -0.6829  -0.6829
    -0.6616  -0.6616  -0.6615  -0.6615  -0.6501  -0.6500  -0.6500  -0.6500
    -0.6315  -0.6315  -0.6314  -0.6314  -0.6261  -0.6261  -0.6261  -0.6261
    -0.6104  -0.6104  -0.6104  -0.6104  -0.5568  -0.5568  -0.5568  -0.5568
    -0.5494  -0.5494  -0.5494  -0.5494  -0.5340  -0.5340  -0.5340  -0.5340
     0.0874   0.0875   0.0875   0.0875   1.2024   1.2025   1.2025   1.2027
     3.6514   3.6515   3.6515   3.6517   4.9130   4.9160

          k = 0.1541 0.1541 0.1541 ( 44203 PWs)   bands (ev):

   -82.1993 -82.1992 -82.1992 -82.1992 -82.1992 -82.1992 -82.1992 -82.1991
   -48.0210 -48.0210 -48.0210 -48.0209 -48.0209 -48.0209 -48.0209 -48.0209
   -48.0209 -48.0208 -48.0208 -48.0208 -48.0206 -48.0206 -48.0206 -48.0205
   -48.0205 -48.0205 -48.0205 -48.0205 -48.0204 -48.0204 -48.0204 -48.0203
    -0.7689  -0.7689  -0.7510  -0.7509  -0.7509  -0.7181  -0.7181  -0.7181
    -0.7064  -0.7064  -0.7063  -0.7061  -0.6893  -0.6893  -0.6845  -0.6845
    -0.6844  -0.6191  -0.6190  -0.6190  -0.6034  -0.6034  -0.6033  -0.5992
    -0.5992  -0.5992  -0.5967  -0.5967  -0.5966  -0.5892  -0.5342  -0.5342
    -0.5283  -0.5283  -0.5283  -0.4996  -0.4996  -0.4996  -0.4906  -0.4906
    -0.4561   0.3748   0.3749   0.3749   1.1158   1.1158   1.1158   1.8483
     3.4620   3.4620   3.4620   4.2811   4.2824   4.2827

          k = 0.1541 0.1541 0.2157 ( 44174 PWs)   bands (ev):

   -82.1993 -82.1992 -82.1992 -82.1992 -82.1992 -82.1992 -82.1992 -82.1991
   -48.0209 -48.0209 -48.0209 -48.0209 -48.0209 -48.0209 -48.0209 -48.0208
   -48.0208 -48.0208 -48.0208 -48.0207 -48.0207 -48.0206 -48.0206 -48.0206
   -48.0206 -48.0205 -48.0205 -48.0205 -48.0205 -48.0204 -48.0204 -48.0204
    -0.7648  -0.7553  -0.7416  -0.7328  -0.7328  -0.7134  -0.7131  -0.7131
    -0.7040  -0.7000  -0.6956  -0.6956  -0.6751  -0.6686  -0.6574  -0.6500
    -0.6500  -0.6345  -0.6345  -0.6197  -0.6195  -0.6054  -0.6054  -0.6053
    -0.6007  -0.6006  -0.5873  -0.5847  -0.5846  -0.5815  -0.5506  -0.5433
    -0.5433  -0.5377  -0.5366  -0.5365  -0.5350  -0.5304  -0.4970  -0.4924
    -0.3316   0.1021   0.4946   0.4946   0.8713   0.8713   1.2388   1.6115
     3.6070   3.6070   4.0026   4.0026   4.0399   4.4233

          k = 0.1541 0.1541-0.2774 ( 44170 PWs)   bands (ev):

   -82.1993 -82.1992 -82.1992 -82.1992 -82.1992 -82.1992 -82.1992 -82.1991
   -48.0209 -48.0209 -48.0209 -48.0209 -48.0209 -48.0209 -48.0208 -48.0208
   -48.0208 -48.0207 -48.0207 -48.0207 -48.0207 -48.0206 -48.0206 -48.0206
   -48.0206 -48.0206 -48.0205 -48.0205 -48.0205 -48.0204 -48.0204 -48.0203
    -0.7602  -0.7601  -0.7215  -0.7215  -0.7215  -0.7214  -0.7190  -0.7190
    -0.7083  -0.7082  -0.6694  -0.6694  -0.6694  -0.6694  -0.6528  -0.6528
    -0.6445  -0.6445  -0.6038  -0.6037  -0.6037  -0.6037  -0.5947  -0.5947
    -0.5946  -0.5946  -0.5921  -0.5921  -0.5912  -0.5912  -0.5690  -0.5690
    -0.5570  -0.5570  -0.5570  -0.5570  -0.5329  -0.5329  -0.4946  -0.4946
    -0.1395  -0.1395   0.6604   0.6604   0.6605   0.6606   1.4047   1.4049
     3.7908   3.7908   3.7909   3.7909   4.5054   4.5056

          k = 0.1541 0.2157 0.2157 ( 44160 PWs)   bands (ev):

   -82.1993 -82.1992 -82.1992 -82.1992 -82.1992 -82.1992 -82.1992 -82.1991
   -48.0209 -48.0209 -48.0209 -48.0209 -48.0208 -48.0208 -48.0208 -48.0208
   -48.0208 -48.0208 -48.0207 -48.0207 -48.0207 -48.0206 -48.0206 -48.0206
   -48.0206 -48.0205 -48.0205 -48.0205 -48.0205 -48.0205 -48.0204 -48.0204
    -0.7509  -0.7379  -0.7379  -0.7195  -0.7147  -0.6982  -0.6918  -0.6918
    -0.6898  -0.6751  -0.6701  -0.6646  -0.6645  -0.6630  -0.6629  -0.6522
    -0.6477  -0.6244  -0.6244  -0.6231  -0.6223  -0.6223  -0.6219  -0.6055
    -0.6054  -0.5921  -0.5905  -0.5895  -0.5895  -0.5876  -0.5630  -0.5579
    -0.5579  -0.5562  -0.5479  -0.5460  -0.5460  -0.5330  -0.5330  -0.5187
    -0.1977   0.2269   0.2269   0.6168   0.6191   0.9954   0.9954   1.3722
     3.7517   4.1465   4.1466   4.1840   4.1840   4.6115

          k = 0.1541 0.2157-0.2774 ( 44216 PWs)   bands (ev):

   -82.1993 -82.1992 -82.1992 -82.1992 -82.1992 -82.1992 -82.1992 -82.1991
   -48.0209 -48.0209 -48.0209 -48.0209 -48.0209 -48.0208 -48.0208 -48.0208
   -48.0208 -48.0208 -48.0208 -48.0207 -48.0207 -48.0207 -48.0207 -48.0206
   -48.0206 -48.0206 -48.0206 -48.0206 -48.0205 -48.0205 -48.0205 -48.0204
    -0.7439  -0.7438  -0.7275  -0.7274  -0.6882  -0.6882  -0.6859  -0.6859
    -0.6769  -0.6769  -0.6665  -0.6665  -0.6529  -0.6529  -0.6514  -0.6514
    -0.6311  -0.6311  -0.6246  -0.6245  -0.6174  -0.6173  -0.6081  -0.6081
    -0.6018  -0.6018  -0.6001  -0.6001  -0.5873  -0.5872  -0.5717  -0.5717
    -0.5635  -0.5635  -0.5623  -0.5623  -0.5487  -0.5487  -0.5285  -0.5284
    -0.0093  -0.0092   0.3999   0.4000   0.7842   0.7843   1.1631   1.1633
     3.9350   3.9352   4.3285   4.3286   4.3673   4.3674

          k = 0.1541-0.2774-0.2774 ( 44188 PWs)   bands (ev):

   -82.1993 -82.1992 -82.1992 -82.1992 -82.1992 -82.1992 -82.1992 -82.1991
   -48.0209 -48.0209 -48.0209 -48.0208 -48.0208 -48.0208 -48.0208 -48.0208
   -48.0208 -48.0208 -48.0207 -48.0207 -48.0207 -48.0207 -48.0207 -48.0206
   -48.0206 -48.0206 -48.0206 -48.0206 -48.0205 -48.0205 -48.0205 -48.0204
    -0.7347  -0.7347  -0.7347  -0.7346  -0.6703  -0.6702  -0.6702  -0.6702
    -0.6530  -0.6530  -0.6530  -0.6530  -0.6486  -0.6485  -0.6485  -0.6485
    -0.6299  -0.6299  -0.6299  -0.6299  -0.6238  -0.6237  -0.6237  -0.6237
    -0.6136  -0.6136  -0.6136  -0.6136  -0.5733  -0.5733  -0.5732  -0.5732
    -0.5628  -0.5628  -0.5628  -0.5628  -0.5554  -0.5554  -0.5554  -0.5553
     0.1718   0.1719   0.1719   0.1719   0.9524   0.9526   0.9526   0.9527
     4.1178   4.1179   4.1179   4.1180   5.0140   5.0191

          k = 0.2157 0.2157 0.2157 ( 44237 PWs)   bands (ev):

   -82.1993 -82.1992 -82.1992 -82.1992 -82.1992 -82.1992 -82.1992 -82.1991
   -48.0209 -48.0209 -48.0208 -48.0208 -48.0208 -48.0208 -48.0208 -48.0208
   -48.0208 -48.0207 -48.0207 -48.0207 -48.0207 -48.0207 -48.0207 -48.0207
   -48.0207 -48.0206 -48.0206 -48.0206 -48.0205 -48.0205 -48.0205 -48.0205
    -0.7111  -0.7111  -0.7025  -0.7025  -0.7025  -0.6751  -0.6743  -0.6743
    -0.6742  -0.6690  -0.6690  -0.6689  -0.6515  -0.6515  -0.6472  -0.6472
    -0.6471  -0.6295  -0.6295  -0.6295  -0.6086  -0.6086  -0.6086  -0.6080
    -0.6079  -0.6079  -0.6045  -0.6045  -0.6044  -0.5987  -0.5653  -0.5653
    -0.5630  -0.5629  -0.5629  -0.5623  -0.5623  -0.5623  -0.5597  -0.5597
    -0.0635   0.3536   0.3536   0.3536   0.7455   0.7455   0.7455   1.1293
     4.3277   4.3277   4.3278   4.7487   4.7507   4.7532

          k = 0.2157 0.2157-0.2774 ( 44210 PWs)   bands (ev):

   -82.1993 -82.1992 -82.1992 -82.1992 -82.1992 -82.1992 -82.1992 -82.1991
   -48.0209 -48.0209 -48.0209 -48.0209 -48.0208 -48.0208 -48.0208 -48.0208
   -48.0208 -48.0207 -48.0207 -48.0207 -48.0207 -48.0207 -48.0206 -48.0206
   -48.0206 -48.0206 -48.0206 -48.0206 -48.0206 -48.0205 -48.0205 -48.0205
    -0.7070  -0.7069  -0.6819  -0.6818  -0.6818  -0.6818  -0.6750  -0.6750
    -0.6700  -0.6700  -0.6494  -0.6494  -0.6494  -0.6493  -0.6425  -0.6425
    -0.6301  -0.6300  -0.6181  -0.6180  -0.6180  -0.6180  -0.6136  -0.6135
    -0.6063  -0.6063  -0.6063  -0.6063  -0.6051  -0.6051  -0.5849  -0.5848
    -0.5769  -0.5769  -0.5769  -0.5769  -0.5657  -0.5657  -0.5615  -0.5615
     0.1218   0.1219   0.5273   0.5273   0.5274   0.5274   0.9164   0.9165
     4.5107   4.5107   4.5108   4.5108   4.8773   4.8788

          k = 0.2157-0.2774-0.2774 ( 44212 PWs)   bands (ev):

   -82.1993 -82.1992 -82.1992 -82.1992 -82.1992 -82.1992 -82.1992 -82.1991
   -48.0209 -48.0209 -48.0208 -48.0208 -48.0208 -48.0208 -48.0208 -48.0208
   -48.0208 -48.0207 -48.0207 -48.0207 -48.0207 -48.0207 -48.0206 -48.0206
   -48.0206 -48.0206 -48.0206 -48.0206 -48.0205 -48.0205 -48.0205 -48.0204
    -0.6890  -0.6890  -0.6890  -0.6890  -0.6535  -0.6535  -0.6535  -0.6535
    -0.6468  -0.6468  -0.6468  -0.6468  -0.6468  -0.6467  -0.6467  -0.6467
    -0.6297  -0.6297  -0.6297  -0.6297  -0.6208  -0.6208  -0.6208  -0.6208
    -0.6152  -0.6151  -0.6151  -0.6151  -0.5912  -0.5912  -0.5911  -0.5911
    -0.5833  -0.5833  -0.5833  -0.5832  -0.5803  -0.5803  -0.5803  -0.5803
     0.3018   0.3019   0.3019   0.3020   0.7003   0.7004   0.7004   0.7005
     4.6932   4.6932   4.6932   4.6933   5.1607   5.1643

          k =-0.2774-0.2774-0.2774 ( 44216 PWs)   bands (ev):

   -82.1993 -82.1992 -82.1992 -82.1992 -82.1992 -82.1992 -82.1992 -82.1991
   -48.0208 -48.0208 -48.0208 -48.0208 -48.0208 -48.0208 -48.0208 -48.0208
   -48.0208 -48.0207 -48.0207 -48.0207 -48.0207 -48.0207 -48.0207 -48.0207
   -48.0207 -48.0206 -48.0206 -48.0206 -48.0206 -48.0206 -48.0206 -48.0205
    -0.6456  -0.6456  -0.6456  -0.6456  -0.6456  -0.6456  -0.6456  -0.6456
    -0.6455  -0.6455  -0.6455  -0.6455  -0.6455  -0.6455  -0.6455  -0.6455
    -0.6372  -0.6372  -0.6371  -0.6371  -0.6371  -0.6371  -0.6371  -0.6371
    -0.5992  -0.5992  -0.5991  -0.5991  -0.5991  -0.5991  -0.5991  -0.5991
    -0.5991  -0.5991  -0.5991  -0.5991  -0.5991  -0.5991  -0.5991  -0.5991
     0.4790   0.4791   0.4791   0.4791   0.4792   0.4792   0.4792   0.4793
     5.3442   5.3456   5.3462   5.3462   5.3464   5.3464

     the Fermi energy is    -0.1445 ev

!    total energy              =   -4094.05333540 Ry

     total all-electron energy =    -80734.266762 Ry
     estimated scf accuracy    <       0.00000032 Ry
     smearing contrib. (-TS)   =       0.19066429 Ry
     internal energy E=F+TS    =   -4094.24399969 Ry

     The total energy is F=E-TS. E is the sum of the following terms:
     one-electron contribution =   -1837.72375869 Ry
     hartree contribution      =     930.57429811 Ry
     xc contribution           =    -246.03230121 Ry
     ewald contribution        =    -899.41442519 Ry
     one-center paw contrib.   =   -2041.64781271 Ry

     convergence has been achieved in  29 iterations

     Forces acting on atoms (cartesian axes, Ry/au):

     atom    1 type  1   force =     0.00000000    0.00000000    0.00000000
     atom    2 type  1   force =     0.00000000    0.00000000    0.00000000
     atom    3 type  1   force =     0.00000000    0.00000000    0.00000000
     atom    4 type  1   force =     0.00000000    0.00000000    0.00000000
     atom    5 type  1   force =     0.00000000    0.00000000    0.00000000
     atom    6 type  1   force =     0.00000000    0.00000000    0.00000000
     atom    7 type  1   force =     0.00000000    0.00000000    0.00000000
     atom    8 type  1   force =     0.00000000    0.00000000    0.00000000

     Total force =     0.000000     Total SCF correction =     0.000000


     Computing stress (Cartesian axis) and pressure

          total   stress  (Ry/bohr**3)                   (kbar)     P=      -21.72
  -0.00014766   0.00000000   0.00000000          -21.72        0.00        0.00
   0.00000000  -0.00014766   0.00000000            0.00      -21.72        0.00
   0.00000000   0.00000000  -0.00014766            0.00        0.00      -21.72


     Writing output data file /scratch/YUajZfZDtjwSfTIn.save/
 
     init_run     :      2.93s CPU      3.10s WALL (       1 calls)
     electrons    :    213.59s CPU    217.56s WALL (       1 calls)
     forces       :      0.79s CPU      0.83s WALL (       1 calls)
     stress       :      2.35s CPU      2.39s WALL (       1 calls)

     Called by init_run:
     wfcinit      :      2.22s CPU      2.29s WALL (       1 calls)
     potinit      :      0.11s CPU      0.13s WALL (       1 calls)
     hinit0       :      0.07s CPU      0.07s WALL (       1 calls)

     Called by electrons:
     c_bands      :    176.49s CPU    179.14s WALL (      29 calls)
     sum_band     :     33.15s CPU     33.95s WALL (      29 calls)
     v_of_rho     :      0.94s CPU      0.97s WALL (      30 calls)
     newd         :      0.89s CPU      1.19s WALL (      30 calls)
     PAW_pot      :      1.53s CPU      1.68s WALL (      30 calls)
     mix_rho      :      0.31s CPU      0.33s WALL (      29 calls)

     Called by c_bands:
     init_us_2    :      1.23s CPU      1.30s WALL (    2135 calls)
     cegterg      :    171.15s CPU    173.68s WALL (    1015 calls)

     Called by *egterg:
     cdiaghg      :     13.97s CPU     14.08s WALL (    2907 calls)
     h_psi        :    122.27s CPU    124.40s WALL (    2942 calls)
     s_psi        :      2.55s CPU      2.58s WALL (    2942 calls)
     g_psi        :      0.25s CPU      0.26s WALL (    1892 calls)

     Called by h_psi:
     h_psi:calbec :      5.96s CPU      6.02s WALL (    2942 calls)
     vloc_psi     :    112.77s CPU    114.80s WALL (    2942 calls)
     add_vuspsi   :      2.91s CPU      2.93s WALL (    2942 calls)

     General routines
     calbec       :      9.53s CPU      9.64s WALL (    4132 calls)
     fft          :      1.05s CPU      1.07s WALL (     413 calls)
     ffts         :      0.04s CPU      0.04s WALL (      59 calls)
     fftw         :    135.10s CPU    137.39s WALL (  467174 calls)
     interpolate  :      0.08s CPU      0.08s WALL (      30 calls)
 
     Parallel routines
     fft_scatt_xy :     11.58s CPU     11.74s WALL (  467646 calls)
     fft_scatt_yz :    101.29s CPU    103.15s WALL (  467646 calls)
 
     PWSCF        :   3m44.34s CPU   3m49.39s WALL

 
   This run was terminated on:   4: 7:33  30Nov2021            

=------------------------------------------------------------------------------=
   JOB DONE.
=------------------------------------------------------------------------------=
