
     Program PWSCF v.6.7MaX starts on 30Nov2021 at  3:54:11 

     This program is part of the open-source Quantum ESPRESSO suite
     for quantum simulation of materials; please cite
         "P. Giannozzi et al., J. Phys.:Condens. Matter 21 395502 (2009);
         "P. Giannozzi et al., J. Phys.:Condens. Matter 29 465901 (2017);
          URL http://www.quantum-espresso.org", 
     in publications or presentations arising from this work. More details at
     http://www.quantum-espresso.org/quote

     Parallel version (MPI & OpenMP), running on      72 processor cores
     Number of MPI processes:                72
     Threads/MPI process:                     1

     MPI processes distributed on     1 nodes
     R & G space division:  proc/nbgrp/npool/nimage =      72
     Reading input from sc_14.in
Warning: card &CELL ignored
Warning: card CELL_DYNAMICS = 'BFGS', ignored
Warning: card CELL_FACTOR = 2.0, ignored
Warning: card PRESS = 0.0, ignored
Warning: card / ignored

     Current dimensions of program PWSCF are:
     Max number of different atomic species (ntypx) = 10
     Max number of k-points (npk) =  40000
     Max angular momentum in pseudopotentials (lmaxx) =  3
     file Pd.pbe-spn-kjpaw_psl.1.0.0.UPF: wavefunction(s)  4S 5S 4D renormalized

     Subspace diagonalization in iterative solution of the eigenvalue problem:
     one sub-group per band group will be used
     ELPA distributed-memory algorithm (size of sub-group:  8*  8 procs)

     Found symmetry operation: I + (  0.0000  0.0000  0.5000)
     This is a supercell, fractional translations are disabled
     Message from routine setup:
     using ibrav=0 with symmetry is DISCOURAGED, use correct ibrav instead
 
     Parallelization info
     --------------------
     sticks:   dense  smooth     PW     G-vecs:    dense   smooth      PW
     Min         100      66     18                 6454     3463     492
     Max         101      68     19                 6461     3467     497
     Sum        7253    4809   1305               464917   249447   35513
 


     bravais-lattice index     =            0
     lattice parameter (alat)  =       9.0720  a.u.
     unit-cell volume          =    3088.5017 (a.u.)^3
     number of atoms/cell      =            8
     number of atomic types    =            1
     number of electrons       =       144.00
     number of Kohn-Sham states=           86
     kinetic-energy cutoff     =      71.0000  Ry
     charge density cutoff     =     430.0000  Ry
     scf convergence threshold =      1.0E-06
     mixing beta               =       0.1000
     number of iterations used =           10  TF        mixing
     Exchange-correlation= SLA  PW   PBX  PBC
                           (   1   4   3   4   0   0   0)

     celldm(1)=   9.072000  celldm(2)=   0.000000  celldm(3)=   0.000000
     celldm(4)=   0.000000  celldm(5)=   0.000000  celldm(6)=   0.000000

     crystal axes: (cart. coord. in units of alat)
               a(1) = (   1.605263   0.000000   0.000000 )  
               a(2) = (   0.000000   1.605263   0.000000 )  
               a(3) = (   0.000000   0.000000   1.605263 )  

     reciprocal axes: (cart. coord. in units 2 pi/alat)
               b(1) = (  0.622951  0.000000  0.000000 )  
               b(2) = (  0.000000  0.622951  0.000000 )  
               b(3) = (  0.000000  0.000000  0.622951 )  


     PseudoPot. # 1 for Pd read from file:
     /rds/homes/b/bxp912/pp/Pd.pbe-spn-kjpaw_psl.1.0.0.UPF
     MD5 check sum: 790f2ebce206edfd9790dcb9844eca51
     Pseudo is Projector augmented-wave + core cor, Zval = 18.0
     Generated using &quot;atomic&quot; code by A. Dal Corso  v.6.3
     Shape of augmentation charge: PSQ
     Using radial grid of 1235 points,  6 beta functions with: 
                l(1) =   0
                l(2) =   0
                l(3) =   1
                l(4) =   1
                l(5) =   2
                l(6) =   2
     Q(r) pseudized with 0 coefficients 


     atomic species   valence    mass     pseudopotential
        Pd            18.00   106.42000     Pd( 1.00)

     48 Sym. Ops., with inversion, found



   Cartesian axes

     site n.     atom                  positions (alat units)
         1           Pd  tau(   1) = (   0.0000000   0.0000000   0.0000000  )
         2           Pd  tau(   2) = (   0.0000000   0.0000000   0.8026316  )
         3           Pd  tau(   3) = (   0.0000000   0.8026316   0.0000000  )
         4           Pd  tau(   4) = (   0.0000000   0.8026316   0.8026316  )
         5           Pd  tau(   5) = (   0.8026316   0.0000000   0.0000000  )
         6           Pd  tau(   6) = (   0.8026316   0.0000000   0.8026316  )
         7           Pd  tau(   7) = (   0.8026316   0.8026316   0.0000000  )
         8           Pd  tau(   8) = (   0.8026316   0.8026316   0.8026316  )

     number of k points=    35  Marzari-Vanderbilt smearing, width (Ry)=  0.0400
                       cart. coord. in units 2pi/alat
        k(    1) = (   0.0346084   0.0346084   0.0346084), wk =   0.0219479
        k(    2) = (   0.0346084   0.0346084   0.1038251), wk =   0.0658436
        k(    3) = (   0.0346084   0.0346084   0.1730419), wk =   0.0658436
        k(    4) = (   0.0346084   0.0346084   0.2422587), wk =   0.0658436
        k(    5) = (   0.0346084   0.0346084  -0.3114754), wk =   0.0329218
        k(    6) = (   0.0346084   0.1038251   0.1038251), wk =   0.0658436
        k(    7) = (   0.0346084   0.1038251   0.1730419), wk =   0.1316872
        k(    8) = (   0.0346084   0.1038251   0.2422587), wk =   0.1316872
        k(    9) = (   0.0346084   0.1038251  -0.3114754), wk =   0.0658436
        k(   10) = (   0.0346084   0.1730419   0.1730419), wk =   0.0658436
        k(   11) = (   0.0346084   0.1730419   0.2422587), wk =   0.1316872
        k(   12) = (   0.0346084   0.1730419  -0.3114754), wk =   0.0658436
        k(   13) = (   0.0346084   0.2422587   0.2422587), wk =   0.0658436
        k(   14) = (   0.0346084   0.2422587  -0.3114754), wk =   0.0658436
        k(   15) = (   0.0346084  -0.3114754  -0.3114754), wk =   0.0164609
        k(   16) = (   0.1038251   0.1038251   0.1038251), wk =   0.0219479
        k(   17) = (   0.1038251   0.1038251   0.1730419), wk =   0.0658436
        k(   18) = (   0.1038251   0.1038251   0.2422587), wk =   0.0658436
        k(   19) = (   0.1038251   0.1038251  -0.3114754), wk =   0.0329218
        k(   20) = (   0.1038251   0.1730419   0.1730419), wk =   0.0658436
        k(   21) = (   0.1038251   0.1730419   0.2422587), wk =   0.1316872
        k(   22) = (   0.1038251   0.1730419  -0.3114754), wk =   0.0658436
        k(   23) = (   0.1038251   0.2422587   0.2422587), wk =   0.0658436
        k(   24) = (   0.1038251   0.2422587  -0.3114754), wk =   0.0658436
        k(   25) = (   0.1038251  -0.3114754  -0.3114754), wk =   0.0164609
        k(   26) = (   0.1730419   0.1730419   0.1730419), wk =   0.0219479
        k(   27) = (   0.1730419   0.1730419   0.2422587), wk =   0.0658436
        k(   28) = (   0.1730419   0.1730419  -0.3114754), wk =   0.0329218
        k(   29) = (   0.1730419   0.2422587   0.2422587), wk =   0.0658436
        k(   30) = (   0.1730419   0.2422587  -0.3114754), wk =   0.0658436
        k(   31) = (   0.1730419  -0.3114754  -0.3114754), wk =   0.0164609
        k(   32) = (   0.2422587   0.2422587   0.2422587), wk =   0.0219479
        k(   33) = (   0.2422587   0.2422587  -0.3114754), wk =   0.0329218
        k(   34) = (   0.2422587  -0.3114754  -0.3114754), wk =   0.0164609
        k(   35) = (  -0.3114754  -0.3114754  -0.3114754), wk =   0.0027435

     Dense  grid:   464917 G-vectors     FFT dimensions: ( 100, 100, 100)

     Smooth grid:   249447 G-vectors     FFT dimensions: (  80,  80,  80)

     Estimated max dynamical RAM per process >      48.09 MB

     Estimated total dynamical RAM >       3.38 GB

     Initial potential from superposition of free atoms

     starting charge  143.99694, renormalised to  144.00000
     Starting wfcs are   80 randomized atomic wfcs +    6 random wfcs
     Checking if some PAW data can be deallocated... 

     total cpu time spent up to now is        5.0 secs

     Self-consistent Calculation

     iteration #  1     ecut=    71.00 Ry     beta= 0.10
     Davidson diagonalization with overlap
     ethr =  1.00E-02,  avg # of iterations =  4.4

     total cpu time spent up to now is       11.4 secs

     total energy              =   -4095.31541440 Ry
     estimated scf accuracy    <       5.61283085 Ry

     iteration #  2     ecut=    71.00 Ry     beta= 0.10
     Davidson diagonalization with overlap
     ethr =  3.90E-03,  avg # of iterations =  1.0

     total cpu time spent up to now is       16.5 secs

     total energy              =   -4093.82424848 Ry
     estimated scf accuracy    <       4.12922663 Ry

     iteration #  3     ecut=    71.00 Ry     beta= 0.10
     Davidson diagonalization with overlap
     ethr =  2.87E-03,  avg # of iterations =  2.0

     total cpu time spent up to now is       23.4 secs

     total energy              =   -4094.38391191 Ry
     estimated scf accuracy    <       1.40444032 Ry

     iteration #  4     ecut=    71.00 Ry     beta= 0.10
     Davidson diagonalization with overlap
     ethr =  9.75E-04,  avg # of iterations =  1.1

     total cpu time spent up to now is       28.3 secs

     total energy              =   -4094.36827934 Ry
     estimated scf accuracy    <       0.40603954 Ry

     iteration #  5     ecut=    71.00 Ry     beta= 0.10
     Davidson diagonalization with overlap
     ethr =  2.82E-04,  avg # of iterations =  2.1

     total cpu time spent up to now is       34.2 secs

     total energy              =   -4094.36281734 Ry
     estimated scf accuracy    <       0.14850635 Ry

     iteration #  6     ecut=    71.00 Ry     beta= 0.10
     Davidson diagonalization with overlap
     ethr =  1.03E-04,  avg # of iterations =  2.1

     total cpu time spent up to now is       41.9 secs

     total energy              =   -4094.52490157 Ry
     estimated scf accuracy    <       1.70362965 Ry

     iteration #  7     ecut=    71.00 Ry     beta= 0.10
     Davidson diagonalization with overlap
     ethr =  1.03E-04,  avg # of iterations =  1.2

     total cpu time spent up to now is       47.1 secs

     total energy              =   -4094.44671618 Ry
     estimated scf accuracy    <       1.27990297 Ry

     iteration #  8     ecut=    71.00 Ry     beta= 0.10
     Davidson diagonalization with overlap
     ethr =  1.03E-04,  avg # of iterations =  1.0

     total cpu time spent up to now is       52.2 secs

     total energy              =   -4094.45065547 Ry
     estimated scf accuracy    <       0.81963085 Ry

     iteration #  9     ecut=    71.00 Ry     beta= 0.10
     Davidson diagonalization with overlap
     ethr =  1.03E-04,  avg # of iterations =  1.0

     total cpu time spent up to now is       58.6 secs

     total energy              =   -4094.36922692 Ry
     estimated scf accuracy    <       1.24545417 Ry

     iteration # 10     ecut=    71.00 Ry     beta= 0.10
     Davidson diagonalization with overlap
     ethr =  1.03E-04,  avg # of iterations =  1.0

     total cpu time spent up to now is       63.9 secs

     total energy              =   -4094.36093090 Ry
     estimated scf accuracy    <       0.37506372 Ry

     iteration # 11     ecut=    71.00 Ry     beta= 0.10
     Davidson diagonalization with overlap
     ethr =  1.03E-04,  avg # of iterations =  1.0

     total cpu time spent up to now is       69.6 secs

     total energy              =   -4094.35267596 Ry
     estimated scf accuracy    <       0.26225125 Ry

     iteration # 12     ecut=    71.00 Ry     beta= 0.10
     Davidson diagonalization with overlap
     ethr =  1.03E-04,  avg # of iterations =  1.0

     total cpu time spent up to now is       76.1 secs

     total energy              =   -4094.32492291 Ry
     estimated scf accuracy    <       0.15707328 Ry

     iteration # 13     ecut=    71.00 Ry     beta= 0.10
     Davidson diagonalization with overlap
     ethr =  1.03E-04,  avg # of iterations =  1.0

     total cpu time spent up to now is       82.3 secs

     total energy              =   -4094.32947111 Ry
     estimated scf accuracy    <       0.02705810 Ry

     iteration # 14     ecut=    71.00 Ry     beta= 0.10
     Davidson diagonalization with overlap
     ethr =  1.88E-05,  avg # of iterations =  3.0

     total cpu time spent up to now is       88.9 secs

     total energy              =   -4094.33033551 Ry
     estimated scf accuracy    <       0.00432430 Ry

     iteration # 15     ecut=    71.00 Ry     beta= 0.10
     Davidson diagonalization with overlap
     ethr =  3.00E-06,  avg # of iterations =  4.3

     total cpu time spent up to now is       95.2 secs

     total energy              =   -4094.33007405 Ry
     estimated scf accuracy    <       0.00596864 Ry

     iteration # 16     ecut=    71.00 Ry     beta= 0.10
     Davidson diagonalization with overlap
     ethr =  3.00E-06,  avg # of iterations =  1.9

     total cpu time spent up to now is      101.1 secs

     total energy              =   -4094.32998293 Ry
     estimated scf accuracy    <       0.00426654 Ry

     iteration # 17     ecut=    71.00 Ry     beta= 0.10
     Davidson diagonalization with overlap
     ethr =  2.96E-06,  avg # of iterations =  1.0

     total cpu time spent up to now is      106.9 secs

     total energy              =   -4094.33017890 Ry
     estimated scf accuracy    <       0.00084320 Ry

     iteration # 18     ecut=    71.00 Ry     beta= 0.10
     Davidson diagonalization with overlap
     ethr =  5.86E-07,  avg # of iterations =  1.0

     total cpu time spent up to now is      112.7 secs

     total energy              =   -4094.33018790 Ry
     estimated scf accuracy    <       0.00055151 Ry

     iteration # 19     ecut=    71.00 Ry     beta= 0.10
     Davidson diagonalization with overlap
     ethr =  3.83E-07,  avg # of iterations =  1.3

     total cpu time spent up to now is      118.6 secs

     total energy              =   -4094.33020375 Ry
     estimated scf accuracy    <       0.00009033 Ry

     iteration # 20     ecut=    71.00 Ry     beta= 0.10
     Davidson diagonalization with overlap
     ethr =  6.27E-08,  avg # of iterations =  1.9

     total cpu time spent up to now is      124.6 secs

     total energy              =   -4094.33020457 Ry
     estimated scf accuracy    <       0.00009308 Ry

     iteration # 21     ecut=    71.00 Ry     beta= 0.10
     Davidson diagonalization with overlap
     ethr =  6.27E-08,  avg # of iterations =  1.0

     total cpu time spent up to now is      129.9 secs

     End of self-consistent calculation

          k = 0.0346 0.0346 0.0346 ( 31271 PWs)   bands (ev):

   -80.8867 -80.8865 -80.8864 -80.8864 -80.8864 -80.8864 -80.8863 -80.8862
   -46.6833 -46.6833 -46.6833 -46.6831 -46.6831 -46.6831 -46.6830 -46.6830
   -46.6830 -46.6828 -46.6828 -46.6828 -46.6803 -46.6803 -46.6803 -46.6801
   -46.6801 -46.6801 -46.6800 -46.6800 -46.6800 -46.6799 -46.6799 -46.6799
     0.0517   0.4442   0.4442   0.5019   0.5019   0.5020   0.5192   0.5192
     0.5192   0.5307   0.5308   0.5308   0.5871   0.5872   0.5872   0.6063
     0.6084   0.6084   0.8836   0.8836   0.8836   0.8859   0.8860   0.8860
     0.9156   0.9156   0.9157   0.9159   0.9160   0.9160   1.0727   1.0732
     1.0732   1.0897   1.0897   1.0897   1.2331   1.2331   1.2332   1.2454
     1.2454   2.5295   2.5295   2.5295   3.8135   3.8135   3.8135   4.3350
     4.3351   4.3351   5.5079   5.5080   5.6094   5.6097

          k = 0.0346 0.0346 0.1038 ( 31244 PWs)   bands (ev):

   -80.8867 -80.8865 -80.8864 -80.8864 -80.8864 -80.8863 -80.8863 -80.8862
   -46.6833 -46.6833 -46.6831 -46.6831 -46.6831 -46.6830 -46.6830 -46.6829
   -46.6828 -46.6828 -46.6828 -46.6827 -46.6804 -46.6802 -46.6802 -46.6802
   -46.6801 -46.6801 -46.6801 -46.6800 -46.6800 -46.6800 -46.6799 -46.6799
     0.1135   0.4476   0.4675   0.4984   0.5121   0.5121   0.5181   0.5245
     0.5374   0.5374   0.5709   0.5709   0.5825   0.5825   0.6019   0.6240
     0.6250   0.6254   0.8572   0.8572   0.8870   0.8871   0.8943   0.8947
     0.8950   0.8968   0.9139   0.9140   0.9259   0.9259   1.0612   1.0614
     1.0740   1.0788   1.0788   1.0887   1.1968   1.1969   1.2049   1.2339
     1.2447   2.1228   2.5670   2.5671   3.8908   3.8908   3.9544   3.9544
     4.3479   4.3818   5.3695   5.3699   5.6785   5.8565

          k = 0.0346 0.0346 0.1730 ( 31204 PWs)   bands (ev):

   -80.8867 -80.8865 -80.8864 -80.8864 -80.8864 -80.8864 -80.8863 -80.8862
   -46.6833 -46.6833 -46.6831 -46.6831 -46.6830 -46.6830 -46.6829 -46.6828
   -46.6828 -46.6825 -46.6824 -46.6823 -46.6807 -46.6806 -46.6805 -46.6803
   -46.6802 -46.6802 -46.6801 -46.6801 -46.6800 -46.6800 -46.6799 -46.6799
     0.2218   0.4541   0.4918   0.4936   0.5226   0.5226   0.5274   0.5344
     0.5722   0.5722   0.5742   0.5742   0.5918   0.6549   0.6550   0.6556
     0.6567   0.6980   0.8087   0.8087   0.8563   0.8566   0.8905   0.8905
     0.9104   0.9105   0.9144   0.9173   0.9449   0.9449   1.0395   1.0396
     1.0586   1.0586   1.0759   1.0868   1.1254   1.1255   1.1290   1.2354
     1.2434   1.6684   2.6454   2.6454   3.5528   3.5528   4.0398   4.0398
     4.4769   5.0578   5.1038   5.1038   5.4462   5.7316

          k = 0.0346 0.0346 0.2423 ( 31220 PWs)   bands (ev):

   -80.8866 -80.8865 -80.8864 -80.8864 -80.8864 -80.8864 -80.8863 -80.8862
   -46.6833 -46.6833 -46.6831 -46.6831 -46.6830 -46.6830 -46.6829 -46.6829
   -46.6823 -46.6820 -46.6819 -46.6818 -46.6812 -46.6810 -46.6809 -46.6808
   -46.6802 -46.6802 -46.6801 -46.6801 -46.6800 -46.6800 -46.6799 -46.6799
     0.3329   0.4578   0.4629   0.4829   0.5348   0.5349   0.5477   0.5619
     0.5619   0.5783   0.6224   0.6224   0.6638   0.6996   0.7006   0.7453
     0.7453   0.7718   0.7719   0.7939   0.8068   0.8094   0.8951   0.8952
     0.9057   0.9058   0.9406   0.9453   0.9701   0.9701   1.0102   1.0115
     1.0236   1.0237   1.0268   1.0317   1.0317   1.0785   1.0842   1.2373
     1.2415   1.2590   2.7720   2.7720   3.2165   3.2165   4.2507   4.2507
     4.6243   4.8035   4.8035   5.1024   5.8526   5.9410

          k = 0.0346 0.0346-0.3115 ( 31228 PWs)   bands (ev):

   -80.8866 -80.8865 -80.8864 -80.8864 -80.8864 -80.8864 -80.8863 -80.8862
   -46.6833 -46.6833 -46.6831 -46.6831 -46.6830 -46.6829 -46.6829 -46.6829
   -46.6818 -46.6818 -46.6816 -46.6815 -46.6814 -46.6814 -46.6813 -46.6813
   -46.6802 -46.6802 -46.6801 -46.6800 -46.6800 -46.6800 -46.6800 -46.6800
     0.4081   0.4082   0.4729   0.4729   0.5484   0.5484   0.5484   0.5485
     0.5630   0.5630   0.6824   0.6824   0.6824   0.6824   0.7515   0.7515
     0.7525   0.7525   0.8983   0.8983   0.8983   0.8984   0.9004   0.9004
     0.9005   0.9005   0.9015   0.9016   0.9116   0.9116   0.9775   0.9775
     0.9891   0.9891   1.0017   1.0017   1.0017   1.0017   1.0814   1.0814
     1.2395   1.2395   2.9582   2.9583   2.9583   2.9583   4.5107   4.5107
     4.5110   4.5110   4.8303   4.8303   6.1991   6.1992

          k = 0.0346 0.1038 0.1038 ( 31262 PWs)   bands (ev):

   -80.8867 -80.8865 -80.8864 -80.8864 -80.8864 -80.8864 -80.8863 -80.8862
   -46.6833 -46.6831 -46.6831 -46.6831 -46.6830 -46.6829 -46.6829 -46.6829
   -46.6828 -46.6828 -46.6827 -46.6826 -46.6804 -46.6804 -46.6803 -46.6803
   -46.6802 -46.6802 -46.6802 -46.6801 -46.6800 -46.6800 -46.6800 -46.6799
     0.1760   0.4622   0.4784   0.5073   0.5074   0.5364   0.5425   0.5425
     0.5549   0.5596   0.5597   0.5779   0.5958   0.6125   0.6206   0.6207
     0.6252   0.6407   0.8505   0.8682   0.8682   0.8693   0.8927   0.8927
     0.8978   0.8978   0.9053   0.9053   0.9228   0.9253   1.0498   1.0611
     1.0637   1.0676   1.0778   1.0778   1.1644   1.1859   1.1983   1.1984
     1.2233   2.1669   2.1670   2.6055   3.6064   3.9676   4.0049   4.0049
     4.4184   4.4184   5.4442   5.4443   5.4934   5.7048

          k = 0.0346 0.1038 0.1730 ( 31205 PWs)   bands (ev):

   -80.8866 -80.8865 -80.8864 -80.8864 -80.8864 -80.8864 -80.8863 -80.8862
   -46.6833 -46.6831 -46.6831 -46.6830 -46.6829 -46.6829 -46.6828 -46.6828
   -46.6827 -46.6825 -46.6824 -46.6823 -46.6808 -46.6806 -46.6805 -46.6804
   -46.6803 -46.6803 -46.6802 -46.6802 -46.6801 -46.6800 -46.6800 -46.6799
     0.2834   0.4737   0.4972   0.5172   0.5328   0.5396   0.5521   0.5566
     0.5685   0.5774   0.5893   0.6068   0.6117   0.6439   0.6530   0.6681
     0.6715   0.6927   0.8085   0.8210   0.8540   0.8677   0.8679   0.8882
     0.8889   0.9011   0.9182   0.9205   0.9246   0.9433   1.0288   1.0406
     1.0468   1.0574   1.0645   1.0758   1.0996   1.1186   1.1287   1.2009
     1.2144   1.7151   2.2566   2.6858   3.2116   3.6036   4.1069   4.1158
     4.5560   5.0981   5.1259   5.1779   5.5691   5.5893

          k = 0.0346 0.1038 0.2423 ( 31208 PWs)   bands (ev):

   -80.8866 -80.8865 -80.8864 -80.8864 -80.8864 -80.8864 -80.8863 -80.8862
   -46.6833 -46.6831 -46.6831 -46.6830 -46.6829 -46.6829 -46.6828 -46.6827
   -46.6823 -46.6821 -46.6819 -46.6818 -46.6812 -46.6811 -46.6809 -46.6808
   -46.6804 -46.6803 -46.6802 -46.6802 -46.6801 -46.6800 -46.6800 -46.6799
     0.3832   0.4781   0.4846   0.5166   0.5294   0.5567   0.5649   0.5715
     0.5942   0.5997   0.6265   0.6370   0.6738   0.6967   0.7141   0.7404
     0.7474   0.7785   0.7787   0.7859   0.8048   0.8234   0.8721   0.8837
     0.9057   0.9115   0.9160   0.9458   0.9477   0.9682   1.0032   1.0057
     1.0126   1.0195   1.0196   1.0304   1.0321   1.0672   1.0730   1.2039
     1.2105   1.3081   2.3969   2.8151   2.8683   3.2656   4.2628   4.3258
     4.7539   4.7549   4.8775   5.2843   5.7959   5.9200

          k = 0.0346 0.1038-0.3115 ( 31214 PWs)   bands (ev):

   -80.8866 -80.8865 -80.8864 -80.8864 -80.8864 -80.8864 -80.8863 -80.8862
   -46.6833 -46.6831 -46.6831 -46.6830 -46.6829 -46.6829 -46.6828 -46.6827
   -46.6818 -46.6818 -46.6816 -46.6815 -46.6814 -46.6814 -46.6813 -46.6813
   -46.6804 -46.6803 -46.6802 -46.6801 -46.6801 -46.6801 -46.6800 -46.6800
     0.4428   0.4429   0.4982   0.4982   0.5431   0.5431   0.5796   0.5796
     0.5859   0.5859   0.6855   0.6855   0.6942   0.6943   0.7488   0.7488
     0.7642   0.7642   0.8778   0.8778   0.8847   0.8847   0.8868   0.8868
     0.8985   0.8985   0.9067   0.9067   0.9109   0.9109   0.9771   0.9771
     0.9918   0.9918   1.0002   1.0002   1.0216   1.0216   1.0704   1.0704
     1.2072   1.2072   2.5974   2.5975   3.0046   3.0046   4.4771   4.4772
     4.5851   4.5853   5.0018   5.0020   6.0517   6.0518

          k = 0.0346 0.1730 0.1730 ( 31201 PWs)   bands (ev):

   -80.8866 -80.8865 -80.8864 -80.8864 -80.8864 -80.8864 -80.8863 -80.8862
   -46.6833 -46.6831 -46.6830 -46.6829 -46.6828 -46.6828 -46.6826 -46.6826
   -46.6825 -46.6824 -46.6823 -46.6823 -46.6808 -46.6807 -46.6806 -46.6806
   -46.6805 -46.6805 -46.6803 -46.6803 -46.6802 -46.6800 -46.6800 -46.6799
     0.3767   0.5064   0.5065   0.5368   0.5457   0.5594   0.5861   0.5861
     0.6039   0.6207   0.6249   0.6249   0.6263   0.6566   0.6830   0.6831
     0.7005   0.7090   0.7973   0.8380   0.8421   0.8421   0.8495   0.8495
     0.8884   0.8885   0.9213   0.9213   0.9370   0.9428   1.0105   1.0252
     1.0402   1.0458   1.0469   1.0553   1.0553   1.0812   1.1338   1.1339
     1.1773   1.8092   1.8092   2.7698   2.8101   3.7064   3.7064   4.2626
     4.7061   5.2590   5.2590   5.3217   5.3218   6.5657

          k = 0.0346 0.1730 0.2423 ( 31208 PWs)   bands (ev):

   -80.8866 -80.8865 -80.8864 -80.8864 -80.8864 -80.8864 -80.8863 -80.8862
   -46.6832 -46.6831 -46.6830 -46.6829 -46.6827 -46.6826 -46.6825 -46.6824
   -46.6823 -46.6821 -46.6819 -46.6819 -46.6812 -46.6810 -46.6809 -46.6808
   -46.6807 -46.6806 -46.6804 -46.6804 -46.6802 -46.6801 -46.6800 -46.6799
     0.4362   0.4903   0.5189   0.5470   0.5587   0.5979   0.6020   0.6231
     0.6339   0.6351   0.6649   0.6702   0.6923   0.7018   0.7273   0.7405
     0.7494   0.7757   0.7942   0.7961   0.7997   0.8326   0.8436   0.8452
     0.8645   0.9123   0.9256   0.9350   0.9487   0.9602   0.9733   0.9966
     0.9978   0.9999   1.0158   1.0280   1.0426   1.0464   1.0523   1.1400
     1.1573   1.4031   1.9562   2.4528   2.9044   3.3656   3.8640   4.3613
     4.4712   5.0210   5.4515   5.5270   5.9594   6.0520

          k = 0.0346 0.1730-0.3115 ( 31176 PWs)   bands (ev):

   -80.8866 -80.8865 -80.8864 -80.8864 -80.8864 -80.8864 -80.8863 -80.8862
   -46.6832 -46.6831 -46.6829 -46.6829 -46.6827 -46.6826 -46.6824 -46.6824
   -46.6818 -46.6817 -46.6816 -46.6815 -46.6814 -46.6814 -46.6813 -46.6813
   -46.6808 -46.6806 -46.6804 -46.6804 -46.6802 -46.6800 -46.6800 -46.6800
     0.4681   0.4681   0.5330   0.5330   0.5790   0.5790   0.6110   0.6110
     0.6547   0.6547   0.6908   0.6908   0.7168   0.7168   0.7434   0.7434
     0.7867   0.7867   0.8374   0.8374   0.8566   0.8567   0.8633   0.8633
     0.8951   0.8951   0.8952   0.8952   0.9305   0.9305   0.9788   0.9788
     0.9797   0.9797   0.9975   0.9975   1.0481   1.0482   1.0928   1.0928
     1.1472   1.1473   2.1674   2.1675   3.0996   3.0996   4.0807   4.0807
     4.7293   4.7295   5.6928   5.6930   5.7818   5.7819

          k = 0.0346 0.2423 0.2423 ( 31150 PWs)   bands (ev):

   -80.8866 -80.8864 -80.8864 -80.8864 -80.8864 -80.8864 -80.8863 -80.8863
   -46.6832 -46.6830 -46.6830 -46.6829 -46.6822 -46.6822 -46.6821 -46.6821
   -46.6819 -46.6819 -46.6819 -46.6818 -46.6813 -46.6812 -46.6811 -46.6810
   -46.6809 -46.6809 -46.6808 -46.6808 -46.6802 -46.6800 -46.6800 -46.6799
     0.4645   0.5039   0.5040   0.5340   0.6435   0.6435   0.6436   0.6509
     0.6990   0.7005   0.7038   0.7076   0.7077   0.7387   0.7618   0.7619
     0.7748   0.7769   0.7933   0.7933   0.7959   0.8136   0.8137   0.8349
     0.8703   0.8704   0.9057   0.9526   0.9526   0.9527   0.9576   0.9679
     0.9737   1.0066   1.0218   1.0247   1.0247   1.0427   1.0549   1.0549
     1.1044   1.5528   1.5528   2.0771   3.0459   3.5202   3.5202   4.0152
     4.6782   5.2259   5.2260   5.7705   6.2428   6.2428

          k = 0.0346 0.2423-0.3115 ( 31172 PWs)   bands (ev):

   -80.8866 -80.8864 -80.8864 -80.8864 -80.8864 -80.8864 -80.8863 -80.8863
   -46.6832 -46.6830 -46.6830 -46.6829 -46.6822 -46.6821 -46.6819 -46.6819
   -46.6818 -46.6817 -46.6816 -46.6815 -46.6814 -46.6814 -46.6814 -46.6813
   -46.6812 -46.6811 -46.6809 -46.6808 -46.6802 -46.6800 -46.6800 -46.6800
     0.4857   0.4857   0.5191   0.5191   0.6525   0.6525   0.6824   0.6824
     0.6957   0.6957   0.7387   0.7387   0.7405   0.7405   0.7478   0.7478
     0.7883   0.7883   0.8168   0.8168   0.8219   0.8219   0.8255   0.8255
     0.8718   0.8718   0.8798   0.8798   0.9569   0.9570   0.9790   0.9790
     0.9833   0.9833   0.9941   0.9941   1.0211   1.0211   1.0725   1.0725
     1.2267   1.2268   1.7742   1.7743   3.2483   3.2483   3.7349   3.7350
     4.9350   4.9352   5.4809   5.4810   6.4773   6.4775

          k = 0.0346-0.3115-0.3115 ( 31184 PWs)   bands (ev):

   -80.8866 -80.8864 -80.8864 -80.8864 -80.8864 -80.8864 -80.8864 -80.8863
   -46.6832 -46.6830 -46.6830 -46.6830 -46.6818 -46.6818 -46.6817 -46.6817
   -46.6817 -46.6816 -46.6815 -46.6815 -46.6814 -46.6814 -46.6814 -46.6814
   -46.6814 -46.6814 -46.6813 -46.6813 -46.6802 -46.6800 -46.6800 -46.6800
     0.5028   0.5028   0.5029   0.5029   0.6885   0.6885   0.6886   0.6886
     0.7468   0.7468   0.7468   0.7469   0.7668   0.7668   0.7669   0.7669
     0.7848   0.7848   0.7849   0.7849   0.8210   0.8210   0.8211   0.8211
     0.8516   0.8516   0.8516   0.8516   0.9829   0.9829   0.9830   0.9830
     0.9946   0.9946   0.9946   0.9946   1.0089   1.0089   1.0089   1.0089
     1.4538   1.4539   1.4539   1.4540   3.4577   3.4578   3.4578   3.4579
     5.1906   5.1907   5.1907   5.1910   7.2332   7.2333

          k = 0.1038 0.1038 0.1038 ( 31166 PWs)   bands (ev):

   -80.8867 -80.8865 -80.8864 -80.8864 -80.8864 -80.8864 -80.8863 -80.8862
   -46.6831 -46.6831 -46.6831 -46.6829 -46.6829 -46.6829 -46.6828 -46.6828
   -46.6828 -46.6826 -46.6826 -46.6826 -46.6804 -46.6804 -46.6804 -46.6802
   -46.6802 -46.6802 -46.6802 -46.6802 -46.6801 -46.6800 -46.6800 -46.6800
     0.2404   0.4818   0.4818   0.5327   0.5327   0.5328   0.5599   0.5599
     0.5599   0.5836   0.5836   0.5836   0.6158   0.6158   0.6158   0.6232
     0.6413   0.6413   0.8612   0.8612   0.8613   0.8806   0.8807   0.8807
     0.9020   0.9020   0.9020   0.9045   0.9045   0.9045   1.0498   1.0515
     1.0515   1.0665   1.0665   1.0665   1.1663   1.1663   1.1664   1.1848
     1.1848   2.2117   2.2117   2.2118   3.6599   3.6599   3.6599   4.4889
     4.4889   4.4889   5.1602   5.7800   5.7800   6.1782

          k = 0.1038 0.1038 0.1730 ( 31201 PWs)   bands (ev):

   -80.8866 -80.8865 -80.8864 -80.8864 -80.8864 -80.8864 -80.8863 -80.8862
   -46.6831 -46.6831 -46.6829 -46.6829 -46.6828 -46.6828 -46.6828 -46.6827
   -46.6826 -46.6825 -46.6824 -46.6823 -46.6807 -46.6806 -46.6805 -46.6804
   -46.6804 -46.6803 -46.6803 -46.6802 -46.6802 -46.6802 -46.6800 -46.6800
     0.3495   0.4882   0.5260   0.5379   0.5519   0.5520   0.5608   0.5691
     0.5932   0.5932   0.6070   0.6070   0.6211   0.6562   0.6562   0.6650
     0.6720   0.6873   0.8207   0.8208   0.8643   0.8667   0.8788   0.8789
     0.8802   0.8993   0.8993   0.9021   0.9228   0.9228   1.0288   1.0315
     1.0455   1.0455   1.0532   1.0643   1.1029   1.1030   1.1121   1.1695
     1.1829   1.7625   2.3028   2.3028   3.2656   3.2657   3.7670   4.6264
     4.6264   4.7755   5.1939   5.6409   5.6411   6.3049

          k = 0.1038 0.1038 0.2423 ( 31220 PWs)   bands (ev):

   -80.8866 -80.8865 -80.8864 -80.8864 -80.8864 -80.8864 -80.8863 -80.8862
   -46.6831 -46.6831 -46.6829 -46.6829 -46.6828 -46.6828 -46.6827 -46.6827
   -46.6823 -46.6821 -46.6819 -46.6819 -46.6813 -46.6810 -46.6809 -46.6808
   -46.6804 -46.6804 -46.6803 -46.6803 -46.6802 -46.6801 -46.6801 -46.6801
     0.4396   0.4968   0.5169   0.5297   0.5663   0.5664   0.5815   0.5944
     0.5945   0.6096   0.6409   0.6409   0.6851   0.7069   0.7147   0.7448
     0.7448   0.7776   0.7826   0.7826   0.8180   0.8226   0.8831   0.8832
     0.8943   0.8943   0.9002   0.9311   0.9451   0.9451   0.9985   1.0129
     1.0136   1.0145   1.0145   1.0179   1.0179   1.0563   1.0611   1.1731
     1.1801   1.3571   2.4453   2.4453   2.9213   2.9213   3.9294   4.4324
     4.8242   4.8242   5.3550   5.3550   5.9873   6.1338

          k = 0.1038 0.1038-0.3115 ( 31170 PWs)   bands (ev):

   -80.8866 -80.8865 -80.8864 -80.8864 -80.8864 -80.8864 -80.8863 -80.8862
   -46.6830 -46.6830 -46.6829 -46.6829 -46.6828 -46.6828 -46.6828 -46.6827
   -46.6818 -46.6817 -46.6816 -46.6815 -46.6814 -46.6814 -46.6813 -46.6813
   -46.6804 -46.6804 -46.6802 -46.6802 -46.6801 -46.6801 -46.6801 -46.6801
     0.4913   0.4914   0.5068   0.5068   0.5806   0.5806   0.5807   0.5807
     0.5956   0.5956   0.6973   0.6973   0.6973   0.6973   0.7566   0.7566
     0.7652   0.7652   0.8758   0.8758   0.8864   0.8864   0.8864   0.8864
     0.8898   0.8898   0.8898   0.8898   0.9022   0.9022   0.9646   0.9646
     0.9892   0.9892   0.9892   0.9892   1.0487   1.0487   1.0716   1.0716
     1.1768   1.1768   2.6482   2.6483   2.6483   2.6483   4.1500   4.1501
     5.0722   5.0722   5.0724   5.0724   6.3909   6.3909

          k = 0.1038 0.1730 0.1730 ( 31192 PWs)   bands (ev):

   -80.8866 -80.8865 -80.8864 -80.8864 -80.8864 -80.8864 -80.8863 -80.8862
   -46.6830 -46.6829 -46.6828 -46.6827 -46.6827 -46.6827 -46.6825 -46.6825
   -46.6824 -46.6824 -46.6824 -46.6823 -46.6808 -46.6807 -46.6806 -46.6806
   -46.6805 -46.6805 -46.6804 -46.6804 -46.6804 -46.6803 -46.6802 -46.6800
     0.4461   0.5429   0.5429   0.5471   0.5489   0.5970   0.5999   0.6020
     0.6020   0.6250   0.6358   0.6358   0.6394   0.6718   0.6776   0.6776
     0.6954   0.6984   0.8098   0.8412   0.8412   0.8504   0.8610   0.8611
     0.8863   0.8864   0.8999   0.8999   0.9163   0.9215   1.0115   1.0235
     1.0329   1.0340   1.0430   1.0430   1.0513   1.0798   1.1081   1.1082
     1.1429   1.8580   1.8580   2.3968   2.8655   3.3741   3.3741   4.3930
     4.7637   5.3271   5.3271   5.7809   5.7811   6.1511

          k = 0.1038 0.1730 0.2423 ( 31206 PWs)   bands (ev):

   -80.8866 -80.8865 -80.8864 -80.8864 -80.8864 -80.8864 -80.8863 -80.8862
   -46.6830 -46.6829 -46.6828 -46.6827 -46.6827 -46.6826 -46.6824 -46.6824
   -46.6823 -46.6821 -46.6820 -46.6819 -46.6812 -46.6810 -46.6809 -46.6808
   -46.6807 -46.6806 -46.6804 -46.6804 -46.6804 -46.6802 -46.6802 -46.6801
     0.4895   0.5298   0.5565   0.5646   0.5848   0.6111   0.6133   0.6303
     0.6372   0.6479   0.6648   0.6685   0.7056   0.7163   0.7330   0.7384
     0.7518   0.7671   0.7937   0.7959   0.8153   0.8428   0.8450   0.8554
     0.8621   0.9039   0.9097   0.9135   0.9282   0.9378   0.9812   0.9891
     0.9955   0.9966   1.0149   1.0192   1.0240   1.0393   1.0413   1.1139
     1.1274   1.4535   2.0074   2.5081   2.5435   3.0281   3.5386   4.0478
     4.9614   5.4929   5.5196   5.9817   6.0292   6.1194

          k = 0.1038 0.1730-0.3115 ( 31174 PWs)   bands (ev):

   -80.8866 -80.8864 -80.8864 -80.8864 -80.8864 -80.8864 -80.8863 -80.8863
   -46.6830 -46.6829 -46.6828 -46.6827 -46.6827 -46.6826 -46.6824 -46.6824
   -46.6818 -46.6817 -46.6816 -46.6815 -46.6814 -46.6814 -46.6813 -46.6813
   -46.6807 -46.6806 -46.6804 -46.6804 -46.6804 -46.6802 -46.6801 -46.6801
     0.5125   0.5125   0.5707   0.5707   0.5861   0.5862   0.6259   0.6259
     0.6493   0.6493   0.7025   0.7025   0.7197   0.7197   0.7541   0.7541
     0.7850   0.7850   0.8494   0.8494   0.8545   0.8545   0.8641   0.8641
     0.8858   0.8858   0.8920   0.8920   0.9094   0.9094   0.9599   0.9599
     0.9730   0.9730   0.9846   0.9846   1.0334   1.0334   1.1201   1.1201
     1.1418   1.1419   2.2211   2.2212   2.7512   2.7513   3.7621   3.7622
     5.2095   5.2096   5.7613   5.7615   6.2325   6.2326

          k = 0.1038 0.2423 0.2423 ( 31183 PWs)   bands (ev):

   -80.8866 -80.8864 -80.8864 -80.8864 -80.8864 -80.8864 -80.8864 -80.8863
   -46.6830 -46.6829 -46.6828 -46.6828 -46.6822 -46.6822 -46.6821 -46.6821
   -46.6820 -46.6819 -46.6819 -46.6819 -46.6812 -46.6812 -46.6810 -46.6810
   -46.6809 -46.6809 -46.6808 -46.6808 -46.6804 -46.6802 -46.6802 -46.6801
     0.5090   0.5427   0.5428   0.5719   0.6464   0.6572   0.6572   0.6637
     0.6952   0.7070   0.7126   0.7130   0.7131   0.7466   0.7535   0.7535
     0.7746   0.7850   0.8092   0.8092   0.8106   0.8142   0.8142   0.8259
     0.8680   0.8680   0.9011   0.9316   0.9316   0.9368   0.9513   0.9578
     0.9697   0.9832   1.0080   1.0106   1.0106   1.0344   1.0345   1.0765
     1.0866   1.6059   1.6060   2.1332   2.6960   3.1909   3.1909   3.7003
     5.1590   5.6913   5.6914   6.2250   6.3104   6.3104

          k = 0.1038 0.2423-0.3115 ( 31194 PWs)   bands (ev):

   -80.8866 -80.8864 -80.8864 -80.8864 -80.8864 -80.8864 -80.8864 -80.8863
   -46.6830 -46.6829 -46.6828 -46.6828 -46.6822 -46.6821 -46.6819 -46.6819
   -46.6818 -46.6817 -46.6816 -46.6815 -46.6814 -46.6814 -46.6814 -46.6813
   -46.6812 -46.6810 -46.6809 -46.6808 -46.6804 -46.6802 -46.6802 -46.6801
     0.5265   0.5265   0.5573   0.5574   0.6657   0.6657   0.6865   0.6865
     0.7071   0.7071   0.7334   0.7334   0.7497   0.7497   0.7504   0.7504
     0.8041   0.8041   0.8146   0.8146   0.8227   0.8227   0.8266   0.8266
     0.8704   0.8704   0.8739   0.8739   0.9365   0.9365   0.9620   0.9620
     0.9670   0.9670   0.9794   0.9794   1.0057   1.0057   1.0489   1.0489
     1.2810   1.2811   1.8297   1.8298   2.9096   2.9097   3.4138   3.4138
     5.4072   5.4074   5.9402   5.9404   6.5457   6.5459

          k = 0.1038-0.3115-0.3115 ( 31204 PWs)   bands (ev):

   -80.8866 -80.8864 -80.8864 -80.8864 -80.8864 -80.8864 -80.8864 -80.8863
   -46.6830 -46.6828 -46.6828 -46.6828 -46.6818 -46.6818 -46.6817 -46.6817
   -46.6817 -46.6816 -46.6815 -46.6815 -46.6814 -46.6814 -46.6814 -46.6814
   -46.6814 -46.6814 -46.6813 -46.6813 -46.6804 -46.6802 -46.6802 -46.6802
     0.5420   0.5420   0.5421   0.5421   0.7000   0.7000   0.7001   0.7001
     0.7560   0.7560   0.7560   0.7561   0.7686   0.7686   0.7686   0.7686
     0.7869   0.7869   0.7869   0.7869   0.8226   0.8226   0.8226   0.8226
     0.8482   0.8482   0.8482   0.8482   0.9611   0.9611   0.9612   0.9612
     0.9801   0.9801   0.9802   0.9802   0.9901   0.9901   0.9901   0.9901
     1.5101   1.5101   1.5101   1.5103   3.1288   3.1289   3.1289   3.1290
     5.6557   5.6557   5.6557   5.6560   7.3046   7.3049

          k = 0.1730 0.1730 0.1730 ( 31222 PWs)   bands (ev):

   -80.8866 -80.8865 -80.8864 -80.8864 -80.8864 -80.8864 -80.8864 -80.8862
   -46.6827 -46.6827 -46.6827 -46.6826 -46.6826 -46.6825 -46.6825 -46.6824
   -46.6824 -46.6824 -46.6824 -46.6824 -46.6808 -46.6807 -46.6807 -46.6806
   -46.6806 -46.6806 -46.6805 -46.6805 -46.6805 -46.6804 -46.6804 -46.6804
     0.5551   0.5551   0.5904   0.5926   0.5926   0.5927   0.6324   0.6324
     0.6324   0.6584   0.6678   0.6678   0.6678   0.6729   0.6729   0.6729
     0.7007   0.7007   0.8292   0.8292   0.8292   0.8736   0.8736   0.8736
     0.8795   0.8795   0.8795   0.8845   0.8846   0.8846   1.0088   1.0088
     1.0204   1.0204   1.0204   1.0334   1.0572   1.0572   1.0573   1.0771
     1.0771   1.9569   1.9569   1.9569   2.9767   2.9767   2.9767   4.0120
     5.4604   5.4604   5.4604   6.2947   6.2948   6.2948

          k = 0.1730 0.1730 0.2423 ( 31186 PWs)   bands (ev):

   -80.8866 -80.8864 -80.8864 -80.8864 -80.8864 -80.8864 -80.8864 -80.8863
   -46.6827 -46.6827 -46.6825 -46.6825 -46.6825 -46.6824 -46.6824 -46.6824
   -46.6822 -46.6821 -46.6820 -46.6819 -46.6812 -46.6810 -46.6809 -46.6808
   -46.6807 -46.6807 -46.6806 -46.6806 -46.6805 -46.6805 -46.6804 -46.6804
     0.5635   0.5834   0.5863   0.6215   0.6216   0.6429   0.6453   0.6546
     0.6546   0.6625   0.6752   0.6752   0.7265   0.7409   0.7457   0.7457
     0.7513   0.7562   0.7986   0.7987   0.8381   0.8389   0.8478   0.8679
     0.8680   0.8763   0.8764   0.9041   0.9041   0.9049   0.9767   0.9866
     0.9877   0.9878   0.9912   0.9912   1.0045   1.0157   1.0632   1.0678
     1.0733   1.5543   2.1109   2.1110   2.6190   2.6190   3.1449   3.6634
     5.6532   5.6532   6.1654   6.1654   6.2516   6.5004

          k = 0.1730 0.1730-0.3115 ( 31210 PWs)   bands (ev):

   -80.8866 -80.8864 -80.8864 -80.8864 -80.8864 -80.8864 -80.8864 -80.8863
   -46.6827 -46.6827 -46.6826 -46.6826 -46.6825 -46.6825 -46.6824 -46.6824
   -46.6818 -46.6817 -46.6816 -46.6815 -46.6814 -46.6814 -46.6814 -46.6813
   -46.6807 -46.6807 -46.6806 -46.6806 -46.6805 -46.6805 -46.6804 -46.6804
     0.5732   0.5733   0.6154   0.6155   0.6395   0.6395   0.6396   0.6396
     0.6539   0.6539   0.7246   0.7246   0.7246   0.7246   0.7679   0.7679
     0.7884   0.7884   0.8447   0.8447   0.8626   0.8626   0.8626   0.8627
     0.8740   0.8740   0.8740   0.8740   0.8844   0.8845   0.9406   0.9406
     0.9635   0.9635   0.9635   0.9635   1.0095   1.0095   1.0686   1.0686
     1.2335   1.2336   2.3292   2.3292   2.3293   2.3293   3.3730   3.3731
     5.8955   5.8955   5.8957   5.8957   6.7565   7.1506

          k = 0.1730 0.2423 0.2423 ( 31187 PWs)   bands (ev):

   -80.8866 -80.8864 -80.8864 -80.8864 -80.8864 -80.8864 -80.8864 -80.8863
   -46.6827 -46.6825 -46.6825 -46.6824 -46.6822 -46.6822 -46.6821 -46.6821
   -46.6820 -46.6820 -46.6820 -46.6819 -46.6812 -46.6812 -46.6810 -46.6810
   -46.6809 -46.6809 -46.6808 -46.6808 -46.6807 -46.6806 -46.6805 -46.6805
     0.5829   0.6100   0.6100   0.6417   0.6518   0.6834   0.6834   0.6867
     0.6870   0.7127   0.7257   0.7258   0.7385   0.7426   0.7427   0.7583
     0.7716   0.8014   0.8102   0.8128   0.8128   0.8333   0.8333   0.8368
     0.8636   0.8636   0.8856   0.8984   0.8985   0.9009   0.9463   0.9487
     0.9619   0.9624   0.9822   0.9853   0.9853   0.9944   0.9945   1.0221
     1.1673   1.7127   1.7127   2.2458   2.2710   2.7874   2.7875   3.3107
     5.8463   6.3618   6.3619   6.4429   6.4430   6.8100

          k = 0.1730 0.2423-0.3115 ( 31208 PWs)   bands (ev):

   -80.8866 -80.8864 -80.8864 -80.8864 -80.8864 -80.8864 -80.8864 -80.8863
   -46.6827 -46.6825 -46.6824 -46.6824 -46.6822 -46.6821 -46.6820 -46.6820
   -46.6818 -46.6817 -46.6816 -46.6815 -46.6814 -46.6814 -46.6814 -46.6814
   -46.6812 -46.6811 -46.6809 -46.6809 -46.6807 -46.6806 -46.6805 -46.6805
     0.5968   0.5968   0.6268   0.6268   0.6904   0.6905   0.6956   0.6956
     0.7234   0.7234   0.7288   0.7288   0.7546   0.7546   0.7687   0.7688
     0.8116   0.8116   0.8217   0.8217   0.8280   0.8280   0.8297   0.8297
     0.8600   0.8600   0.8680   0.8680   0.9017   0.9017   0.9325   0.9325
     0.9460   0.9460   0.9539   0.9539   0.9794   0.9794   1.0032   1.0032
     1.3868   1.3869   1.9410   1.9411   2.4947   2.4948   3.0171   3.0172
     6.0895   6.0897   6.6084   6.6085   6.6796   6.6798

          k = 0.1730-0.3115-0.3115 ( 31180 PWs)   bands (ev):

   -80.8866 -80.8864 -80.8864 -80.8864 -80.8864 -80.8864 -80.8864 -80.8863
   -46.6827 -46.6825 -46.6824 -46.6824 -46.6817 -46.6817 -46.6817 -46.6817
   -46.6817 -46.6816 -46.6815 -46.6815 -46.6814 -46.6814 -46.6814 -46.6814
   -46.6814 -46.6814 -46.6813 -46.6813 -46.6807 -46.6806 -46.6805 -46.6805
     0.6123   0.6123   0.6124   0.6124   0.7215   0.7215   0.7216   0.7216
     0.7694   0.7694   0.7695   0.7695   0.7717   0.7717   0.7718   0.7718
     0.7895   0.7895   0.7895   0.7895   0.8297   0.8297   0.8298   0.8298
     0.8410   0.8410   0.8410   0.8410   0.9273   0.9273   0.9273   0.9273
     0.9535   0.9535   0.9536   0.9536   0.9538   0.9539   0.9539   0.9539
     1.6218   1.6218   1.6218   1.6220   2.7227   2.7228   2.7228   2.7229
     6.3338   6.3339   6.3339   6.3341   7.4447   7.4456

          k = 0.2423 0.2423 0.2423 ( 31222 PWs)   bands (ev):

   -80.8866 -80.8864 -80.8864 -80.8864 -80.8864 -80.8864 -80.8864 -80.8863
   -46.6822 -46.6822 -46.6822 -46.6821 -46.6821 -46.6821 -46.6820 -46.6820
   -46.6820 -46.6820 -46.6820 -46.6820 -46.6813 -46.6812 -46.6812 -46.6811
   -46.6810 -46.6810 -46.6810 -46.6809 -46.6809 -46.6809 -46.6809 -46.6809
     0.6593   0.6593   0.6776   0.6776   0.6777   0.7117   0.7191   0.7191
     0.7191   0.7297   0.7298   0.7298   0.7549   0.7549   0.7549   0.7739
     0.7739   0.8026   0.8026   0.8026   0.8138   0.8545   0.8545   0.8545
     0.8610   0.8610   0.8610   0.8710   0.8710   0.8710   0.9419   0.9419
     0.9419   0.9456   0.9456   0.9480   0.9480   0.9534   0.9535   0.9535
     1.3153   1.8782   1.8782   1.8783   2.4170   2.4170   2.4170   2.9511
     6.6349   6.6349   6.6349   7.0135   7.0135   7.0135

          k = 0.2423 0.2423-0.3115 ( 31172 PWs)   bands (ev):

   -80.8866 -80.8864 -80.8864 -80.8864 -80.8864 -80.8864 -80.8864 -80.8863
   -46.6822 -46.6822 -46.6821 -46.6821 -46.6820 -46.6820 -46.6820 -46.6820
   -46.6817 -46.6817 -46.6816 -46.6815 -46.6814 -46.6814 -46.6814 -46.6813
   -46.6812 -46.6811 -46.6811 -46.6810 -46.6809 -46.6809 -46.6809 -46.6809
     0.6681   0.6681   0.7122   0.7122   0.7123   0.7123   0.7185   0.7185
     0.7222   0.7222   0.7574   0.7574   0.7574   0.7574   0.7852   0.7853
     0.8119   0.8119   0.8146   0.8146   0.8275   0.8275   0.8275   0.8275
     0.8643   0.8643   0.8646   0.8646   0.8646   0.8646   0.9094   0.9094
     0.9247   0.9247   0.9247   0.9247   0.9428   0.9428   0.9464   0.9464
     1.5534   1.5535   2.1114   2.1114   2.1115   2.1115   2.6511   2.6512
     6.8733   6.8734   6.8735   6.8735   7.2688   7.2688

          k = 0.2423-0.3115-0.3115 ( 31156 PWs)   bands (ev):

   -80.8866 -80.8864 -80.8864 -80.8864 -80.8864 -80.8864 -80.8864 -80.8863
   -46.6822 -46.6821 -46.6820 -46.6820 -46.6817 -46.6817 -46.6816 -46.6816
   -46.6816 -46.6816 -46.6815 -46.6815 -46.6814 -46.6814 -46.6814 -46.6814
   -46.6814 -46.6814 -46.6814 -46.6814 -46.6811 -46.6810 -46.6809 -46.6809
     0.6983   0.6983   0.6984   0.6984   0.7493   0.7493   0.7493   0.7493
     0.7755   0.7755   0.7756   0.7756   0.7778   0.7778   0.7778   0.7778
     0.7884   0.7884   0.7884   0.7884   0.8251   0.8251   0.8251   0.8251
     0.8496   0.8496   0.8497   0.8497   0.8948   0.8948   0.8949   0.8949
     0.9077   0.9077   0.9077   0.9077   0.9190   0.9190   0.9190   0.9190
     1.7938   1.7938   1.7938   1.7940   2.3469   2.3470   2.3470   2.3471
     7.1147   7.1148   7.1148   7.1150   7.6469   7.6473

          k =-0.3115-0.3115-0.3115 ( 31144 PWs)   bands (ev):

   -80.8866 -80.8864 -80.8864 -80.8864 -80.8864 -80.8864 -80.8864 -80.8863
   -46.6817 -46.6817 -46.6817 -46.6817 -46.6817 -46.6816 -46.6816 -46.6816
   -46.6815 -46.6815 -46.6815 -46.6815 -46.6815 -46.6815 -46.6815 -46.6814
   -46.6814 -46.6814 -46.6814 -46.6814 -46.6814 -46.6814 -46.6814 -46.6814
     0.7752   0.7752   0.7752   0.7753   0.7753   0.7753   0.7753   0.7754
     0.7785   0.7785   0.7785   0.7785   0.7785   0.7785   0.7785   0.7785
     0.7785   0.7785   0.7785   0.7785   0.7785   0.7786   0.7786   0.7786
     0.8820   0.8820   0.8820   0.8820   0.8820   0.8820   0.8820   0.8820
     0.8820   0.8820   0.8820   0.8820   0.8820   0.8820   0.8821   0.8821
     2.0343   2.0343   2.0343   2.0343   2.0344   2.0344   2.0344   2.0346
     7.9014   7.9015   7.9015   7.9016   7.9018   7.9022

     the Fermi energy is     1.3445 ev

!    total energy              =   -4094.33021850 Ry

     total all-electron energy =    -80734.543645 Ry
     estimated scf accuracy    <       0.00000090 Ry
     smearing contrib. (-TS)   =       0.21816038 Ry
     internal energy E=F+TS    =   -4094.54837888 Ry

     The total energy is F=E-TS. E is the sum of the following terms:
     one-electron contribution =   -1632.15820053 Ry
     hartree contribution      =     834.83759838 Ry
     xc contribution           =    -245.55750592 Ry
     ewald contribution        =   -1009.99816600 Ry
     one-center paw contrib.   =   -2041.67210481 Ry

     convergence has been achieved in  21 iterations

     Forces acting on atoms (cartesian axes, Ry/au):

     atom    1 type  1   force =     0.00000000    0.00000000    0.00000000
     atom    2 type  1   force =     0.00000000    0.00000000    0.00000000
     atom    3 type  1   force =     0.00000000    0.00000000    0.00000000
     atom    4 type  1   force =     0.00000000    0.00000000    0.00000000
     atom    5 type  1   force =     0.00000000    0.00000000    0.00000000
     atom    6 type  1   force =     0.00000000    0.00000000    0.00000000
     atom    7 type  1   force =     0.00000000    0.00000000    0.00000000
     atom    8 type  1   force =     0.00000000    0.00000000    0.00000000

     Total force =     0.000000     Total SCF correction =     0.000000


     Computing stress (Cartesian axis) and pressure

          total   stress  (Ry/bohr**3)                   (kbar)     P=      -54.23
  -0.00036866   0.00000000   0.00000000          -54.23        0.00        0.00
   0.00000000  -0.00036866   0.00000000            0.00      -54.23        0.00
   0.00000000   0.00000000  -0.00036866            0.00        0.00      -54.23


     Writing output data file /scratch/UxrwvpNtguqtWlDn.save/
 
     init_run     :      2.25s CPU      2.37s WALL (       1 calls)
     electrons    :    122.13s CPU    124.92s WALL (       1 calls)
     forces       :      0.53s CPU      0.55s WALL (       1 calls)
     stress       :      1.24s CPU      1.27s WALL (       1 calls)

     Called by init_run:
     wfcinit      :      1.78s CPU      1.83s WALL (       1 calls)
     potinit      :      0.09s CPU      0.12s WALL (       1 calls)
     hinit0       :      0.06s CPU      0.07s WALL (       1 calls)

     Called by electrons:
     c_bands      :    100.82s CPU    102.64s WALL (      21 calls)
     sum_band     :     18.98s CPU     19.59s WALL (      21 calls)
     v_of_rho     :      0.31s CPU      0.33s WALL (      22 calls)
     newd         :      0.39s CPU      0.59s WALL (      22 calls)
     PAW_pot      :      1.22s CPU      1.35s WALL (      22 calls)
     mix_rho      :      0.27s CPU      0.28s WALL (      21 calls)

     Called by c_bands:
     init_us_2    :      0.54s CPU      0.57s WALL (    1575 calls)
     cegterg      :     97.93s CPU     99.65s WALL (     735 calls)

     Called by *egterg:
     cdiaghg      :      9.58s CPU      9.69s WALL (    1972 calls)
     h_psi        :     72.68s CPU     74.10s WALL (    2007 calls)
     s_psi        :      1.30s CPU      1.32s WALL (    2007 calls)
     g_psi        :      0.11s CPU      0.11s WALL (    1237 calls)

     Called by h_psi:
     h_psi:calbec :      3.57s CPU      3.63s WALL (    2007 calls)
     vloc_psi     :     67.33s CPU     68.67s WALL (    2007 calls)
     add_vuspsi   :      1.50s CPU      1.51s WALL (    2007 calls)

     General routines
     calbec       :      5.59s CPU      5.67s WALL (    2917 calls)
     fft          :      0.30s CPU      0.31s WALL (     309 calls)
     ffts         :      0.02s CPU      0.03s WALL (      43 calls)
     fftw         :     80.55s CPU     82.19s WALL (  332512 calls)
     interpolate  :      0.04s CPU      0.04s WALL (      22 calls)
 
     Parallel routines
     fft_scatt_xy :      5.80s CPU      5.89s WALL (  332864 calls)
     fft_scatt_yz :     65.02s CPU     66.44s WALL (  332864 calls)
 
     PWSCF        :   2m10.17s CPU   2m13.94s WALL

 
   This run was terminated on:   3:56:25  30Nov2021            

=------------------------------------------------------------------------------=
   JOB DONE.
=------------------------------------------------------------------------------=
