
     Program PWSCF v.6.7MaX starts on 30Nov2021 at  3:37:55 

     This program is part of the open-source Quantum ESPRESSO suite
     for quantum simulation of materials; please cite
         "P. Giannozzi et al., J. Phys.:Condens. Matter 21 395502 (2009);
         "P. Giannozzi et al., J. Phys.:Condens. Matter 29 465901 (2017);
          URL http://www.quantum-espresso.org", 
     in publications or presentations arising from this work. More details at
     http://www.quantum-espresso.org/quote

     Parallel version (MPI & OpenMP), running on      72 processor cores
     Number of MPI processes:                72
     Threads/MPI process:                     1

     MPI processes distributed on     1 nodes
     R & G space division:  proc/nbgrp/npool/nimage =      72
     Reading input from sc_1.in
Warning: card &CELL ignored
Warning: card CELL_DYNAMICS = 'BFGS', ignored
Warning: card CELL_FACTOR = 2.0, ignored
Warning: card PRESS = 0.0, ignored
Warning: card / ignored

     Current dimensions of program PWSCF are:
     Max number of different atomic species (ntypx) = 10
     Max number of k-points (npk) =  40000
     Max angular momentum in pseudopotentials (lmaxx) =  3
     file Pd.pbe-spn-kjpaw_psl.1.0.0.UPF: wavefunction(s)  4S 5S 4D renormalized

     Subspace diagonalization in iterative solution of the eigenvalue problem:
     one sub-group per band group will be used
     ELPA distributed-memory algorithm (size of sub-group:  8*  8 procs)

     Found symmetry operation: I + (  0.0000  0.0000 -0.5000)
     This is a supercell, fractional translations are disabled
     Message from routine setup:
     using ibrav=0 with symmetry is DISCOURAGED, use correct ibrav instead
 
     Parallelization info
     --------------------
     sticks:   dense  smooth     PW     G-vecs:    dense   smooth      PW
     Min          21      14      4                  653      352      56
     Max          22      15      5                  660      357      61
     Sum        1581    1049    305                47401    25533    4139
 


     bravais-lattice index     =            0
     lattice parameter (alat)  =       9.0720  a.u.
     unit-cell volume          =     314.9872 (a.u.)^3
     number of atoms/cell      =            8
     number of atomic types    =            1
     number of electrons       =       144.00
     number of Kohn-Sham states=           86
     kinetic-energy cutoff     =      71.0000  Ry
     charge density cutoff     =     430.0000  Ry
     scf convergence threshold =      1.0E-06
     mixing beta               =       0.1000
     number of iterations used =           10  TF        mixing
     Exchange-correlation= SLA  PW   PBX  PBC
                           (   1   4   3   4   0   0   0)

     celldm(1)=   9.072000  celldm(2)=   0.000000  celldm(3)=   0.000000
     celldm(4)=   0.000000  celldm(5)=   0.000000  celldm(6)=   0.000000

     crystal axes: (cart. coord. in units of alat)
               a(1) = (   0.750000   0.000000   0.000000 )  
               a(2) = (   0.000000   0.750000   0.000000 )  
               a(3) = (   0.000000   0.000000   0.750000 )  

     reciprocal axes: (cart. coord. in units 2 pi/alat)
               b(1) = (  1.333333  0.000000  0.000000 )  
               b(2) = (  0.000000  1.333333  0.000000 )  
               b(3) = (  0.000000  0.000000  1.333333 )  


     PseudoPot. # 1 for Pd read from file:
     /rds/homes/b/bxp912/pp/Pd.pbe-spn-kjpaw_psl.1.0.0.UPF
     MD5 check sum: 790f2ebce206edfd9790dcb9844eca51
     Pseudo is Projector augmented-wave + core cor, Zval = 18.0
     Generated using &quot;atomic&quot; code by A. Dal Corso  v.6.3
     Shape of augmentation charge: PSQ
     Using radial grid of 1235 points,  6 beta functions with: 
                l(1) =   0
                l(2) =   0
                l(3) =   1
                l(4) =   1
                l(5) =   2
                l(6) =   2
     Q(r) pseudized with 0 coefficients 


     atomic species   valence    mass     pseudopotential
        Pd            18.00   106.42000     Pd( 1.00)

     48 Sym. Ops., with inversion, found



   Cartesian axes

     site n.     atom                  positions (alat units)
         1           Pd  tau(   1) = (   0.0000000   0.0000000   0.0000000  )
         2           Pd  tau(   2) = (   0.0000000   0.0000000   0.3750000  )
         3           Pd  tau(   3) = (   0.0000000   0.3750000   0.0000000  )
         4           Pd  tau(   4) = (   0.0000000   0.3750000   0.3750000  )
         5           Pd  tau(   5) = (   0.3750000   0.0000000   0.0000000  )
         6           Pd  tau(   6) = (   0.3750000   0.0000000   0.3750000  )
         7           Pd  tau(   7) = (   0.3750000   0.3750000   0.0000000  )
         8           Pd  tau(   8) = (   0.3750000   0.3750000   0.3750000  )

     number of k points=    35  Marzari-Vanderbilt smearing, width (Ry)=  0.0400
                       cart. coord. in units 2pi/alat
        k(    1) = (   0.0740741   0.0740741   0.0740741), wk =   0.0219479
        k(    2) = (   0.0740741   0.0740741   0.2222222), wk =   0.0658436
        k(    3) = (   0.0740741   0.0740741   0.3703704), wk =   0.0658436
        k(    4) = (   0.0740741   0.0740741   0.5185185), wk =   0.0658436
        k(    5) = (   0.0740741   0.0740741  -0.6666667), wk =   0.0329218
        k(    6) = (   0.0740741   0.2222222   0.2222222), wk =   0.0658436
        k(    7) = (   0.0740741   0.2222222   0.3703704), wk =   0.1316872
        k(    8) = (   0.0740741   0.2222222   0.5185185), wk =   0.1316872
        k(    9) = (   0.0740741   0.2222222  -0.6666667), wk =   0.0658436
        k(   10) = (   0.0740741   0.3703704   0.3703704), wk =   0.0658436
        k(   11) = (   0.0740741   0.3703704   0.5185185), wk =   0.1316872
        k(   12) = (   0.0740741   0.3703704  -0.6666667), wk =   0.0658436
        k(   13) = (   0.0740741   0.5185185   0.5185185), wk =   0.0658436
        k(   14) = (   0.0740741   0.5185185  -0.6666667), wk =   0.0658436
        k(   15) = (   0.0740741  -0.6666667  -0.6666667), wk =   0.0164609
        k(   16) = (   0.2222222   0.2222222   0.2222222), wk =   0.0219479
        k(   17) = (   0.2222222   0.2222222   0.3703704), wk =   0.0658436
        k(   18) = (   0.2222222   0.2222222   0.5185185), wk =   0.0658436
        k(   19) = (   0.2222222   0.2222222  -0.6666667), wk =   0.0329218
        k(   20) = (   0.2222222   0.3703704   0.3703704), wk =   0.0658436
        k(   21) = (   0.2222222   0.3703704   0.5185185), wk =   0.1316872
        k(   22) = (   0.2222222   0.3703704  -0.6666667), wk =   0.0658436
        k(   23) = (   0.2222222   0.5185185   0.5185185), wk =   0.0658436
        k(   24) = (   0.2222222   0.5185185  -0.6666667), wk =   0.0658436
        k(   25) = (   0.2222222  -0.6666667  -0.6666667), wk =   0.0164609
        k(   26) = (   0.3703704   0.3703704   0.3703704), wk =   0.0219479
        k(   27) = (   0.3703704   0.3703704   0.5185185), wk =   0.0658436
        k(   28) = (   0.3703704   0.3703704  -0.6666667), wk =   0.0329218
        k(   29) = (   0.3703704   0.5185185   0.5185185), wk =   0.0658436
        k(   30) = (   0.3703704   0.5185185  -0.6666667), wk =   0.0658436
        k(   31) = (   0.3703704  -0.6666667  -0.6666667), wk =   0.0164609
        k(   32) = (   0.5185185   0.5185185   0.5185185), wk =   0.0219479
        k(   33) = (   0.5185185   0.5185185  -0.6666667), wk =   0.0329218
        k(   34) = (   0.5185185  -0.6666667  -0.6666667), wk =   0.0164609
        k(   35) = (  -0.6666667  -0.6666667  -0.6666667), wk =   0.0027435

     Dense  grid:    47401 G-vectors     FFT dimensions: (  45,  45,  45)

     Smooth grid:    25533 G-vectors     FFT dimensions: (  40,  40,  40)

     Estimated max dynamical RAM per process >       6.42 MB

     Estimated total dynamical RAM >     462.36 MB
     Message from routine sym_rho_init:
     some processors have no G-vectors for symmetrization

     Check: negative core charge=   -0.000001

     Initial potential from superposition of free atoms

     starting charge  143.99694, renormalised to  144.00000
     Starting wfcs are   80 randomized atomic wfcs +    6 random wfcs
     Checking if some PAW data can be deallocated... 

     total cpu time spent up to now is        3.7 secs

     Self-consistent Calculation

     iteration #  1     ecut=    71.00 Ry     beta= 0.10
     Davidson diagonalization with overlap
     ethr =  1.00E-02,  avg # of iterations =  5.6

     Threshold (ethr) on eigenvalues was too large:
     Diagonalizing with lowered threshold

     Davidson diagonalization with overlap
     ethr =  3.85E-04,  avg # of iterations =  2.0

     total cpu time spent up to now is        8.7 secs

     total energy              =   -4078.86562979 Ry
     estimated scf accuracy    <       0.49835189 Ry

     iteration #  2     ecut=    71.00 Ry     beta= 0.10
     Davidson diagonalization with overlap
     ethr =  3.46E-04,  avg # of iterations =  1.2

     total cpu time spent up to now is       10.3 secs

     total energy              =   -4078.60005883 Ry
     estimated scf accuracy    <       0.38747086 Ry

     iteration #  3     ecut=    71.00 Ry     beta= 0.10
     Davidson diagonalization with overlap
     ethr =  2.69E-04,  avg # of iterations =  2.6

     total cpu time spent up to now is       13.2 secs

     total energy              =   -4078.68569736 Ry
     estimated scf accuracy    <       0.00867428 Ry

     iteration #  4     ecut=    71.00 Ry     beta= 0.10
     Davidson diagonalization with overlap
     ethr =  6.02E-06,  avg # of iterations =  5.6

     total cpu time spent up to now is       17.2 secs

     total energy              =   -4078.68365305 Ry
     estimated scf accuracy    <       0.00565128 Ry

     iteration #  5     ecut=    71.00 Ry     beta= 0.10
     Davidson diagonalization with overlap
     ethr =  3.92E-06,  avg # of iterations =  1.0

     total cpu time spent up to now is       19.3 secs

     total energy              =   -4078.68312200 Ry
     estimated scf accuracy    <       0.00160824 Ry

     iteration #  6     ecut=    71.00 Ry     beta= 0.10
     Davidson diagonalization with overlap
     ethr =  1.12E-06,  avg # of iterations =  1.0

     total cpu time spent up to now is       21.7 secs

     total energy              =   -4078.68289575 Ry
     estimated scf accuracy    <       0.00057852 Ry

     iteration #  7     ecut=    71.00 Ry     beta= 0.10
     Davidson diagonalization with overlap
     ethr =  4.02E-07,  avg # of iterations =  1.6

     total cpu time spent up to now is       23.5 secs

     total energy              =   -4078.68288623 Ry
     estimated scf accuracy    <       0.00009402 Ry

     iteration #  8     ecut=    71.00 Ry     beta= 0.10
     Davidson diagonalization with overlap
     ethr =  6.53E-08,  avg # of iterations =  3.5

     total cpu time spent up to now is       27.0 secs

     total energy              =   -4078.68291007 Ry
     estimated scf accuracy    <       0.00003238 Ry

     iteration #  9     ecut=    71.00 Ry     beta= 0.10
     Davidson diagonalization with overlap
     ethr =  2.25E-08,  avg # of iterations =  1.1

     total cpu time spent up to now is       29.8 secs

     total energy              =   -4078.68289144 Ry
     estimated scf accuracy    <       0.00001823 Ry

     iteration # 10     ecut=    71.00 Ry     beta= 0.10
     Davidson diagonalization with overlap
     ethr =  1.27E-08,  avg # of iterations =  2.0

     total cpu time spent up to now is       33.4 secs

     End of self-consistent calculation

          k = 0.0741 0.0741 0.0741 (  3170 PWs)   bands (ev):

   -32.5645 -30.5157 -30.5157 -30.5157 -28.5211 -28.5211 -28.5211 -26.5593
    -1.6396  -1.6396  -1.6396  -0.0164  -0.0164  -0.0164  -0.0159  -0.0159
    -0.0158   1.4136   1.4136   1.4166   7.5363   7.5365   7.5365   8.5788
     8.5788   8.5788   8.5823   8.5824   8.5824   9.5477   9.5477   9.5477
    37.5213  37.5213  37.5213  40.8451  40.8451  41.3505  41.4439  41.4439
    43.1302  43.1302  43.1302  46.2940  48.4006  48.4006  48.4006  49.1144
    49.1144  49.1144  52.2629  52.2630  52.2630  52.7164  52.7164  52.7164
    54.6117  54.6117  54.6117  54.6318  54.6318  54.6318  58.2656  58.2656
    58.2656  62.1101  62.1686  62.1686  63.0628  63.2326  63.2326  63.2326
    67.9644  67.9644  67.9645  69.1810  69.1810  70.0763  70.0763  70.0763
    70.9294  70.9294  70.9294  76.1596  76.1596  78.2925

          k = 0.0741 0.0741 0.2222 (  3161 PWs)   bands (ev):

   -32.4555 -30.6570 -30.4094 -30.4093 -28.6583 -28.6583 -28.4164 -26.6941
    -1.5503  -1.5503  -1.1666  -0.1239  -0.1239   0.0632   0.0638   0.4346
     0.4347   1.3202   1.3218   1.8480   6.8464   7.5956   7.5961   7.9515
     7.9515   8.5122   8.5157   8.6364   8.6364   8.9651   9.4863   9.4863
    37.7027  38.0724  38.0724  40.9652  41.0800  41.6499  41.9319  41.9738
    42.9703  43.7314  43.7314  46.8093  48.1653  48.1653  48.5749  49.4522
    49.6737  49.6737  50.2955  50.2955  52.6919  52.7291  52.7291  53.1378
    53.1493  53.1585  54.4831  54.4831  55.0289  55.0289  58.0528  60.0790
    60.0790  61.3213  61.3505  62.2176  62.5363  62.5363  63.1638  63.8759
    65.8831  65.8831  67.3362  68.2202  69.1303  69.3833  69.3833  71.9152
    72.0129  72.0129  72.6075  76.7787  76.8321  77.1149

          k = 0.0741 0.0741 0.3704 (  3168 PWs)   bands (ev):

   -32.2464 -30.9151 -30.2054 -30.2054 -28.9091 -28.9091 -28.2157 -26.9406
    -1.3799  -1.3799  -0.3227  -0.3227  -0.2616   0.2151   0.2153   1.1469
     1.1483   1.2957   1.2957   2.6737   5.6257   6.8279   6.8280   7.7084
     7.7092   7.9176   8.3883   8.3914   8.7416   8.7416   9.3718   9.3718
    38.0561  39.1509  39.1509  40.5350  41.1960  42.6794  42.9403  42.9676
    43.0110  44.6587  44.6587  47.5753  47.5753  47.6935  47.7286  47.7286
    47.9602  50.8566  50.9586  51.1844  51.1844  51.5154  52.9290  52.9290
    53.4086  53.9906  54.2323  54.2323  55.8101  55.8101  57.2850  59.9644
    59.9696  61.3288  61.3288  62.0857  62.0857  62.3338  62.9488  62.9489
    63.0358  64.3449  65.4166  68.2865  68.2865  68.4270  69.0350  73.2217
    73.2217  74.5744  75.4830  75.5461  76.7758  77.5473

          k = 0.0741 0.0741 0.5185 (  3165 PWs)   bands (ev):

   -31.9555 -31.2488 -29.9218 -29.9218 -29.2336 -29.2336 -27.9366 -27.2597
    -1.1445  -1.1445  -0.5827  -0.5827   0.4240   0.4242   0.9193   0.9202
     0.9967   2.4902   2.4902   3.8154   4.1029   5.4126   5.4127   6.5882
     7.8627   7.8640   8.2245   8.2269   8.8852   8.8852   9.2204   9.2204
    38.5611  39.8675  40.7126  40.7126  41.5180  42.3051  44.2909  44.4682
    44.5119  45.0208  45.0208  45.5994  45.5994  46.6468  47.1379  47.1379
    48.5656  48.6114  49.8356  53.2108  53.2108  53.4004  53.4004  53.7686
    53.9068  53.9068  54.1743  55.1914  56.2807  56.8853  56.8853  58.3222
    58.3925  59.6893  59.6894  59.8706  59.8706  60.8848  62.4931  62.8666
    63.8921  63.8921  66.9627  66.9627  67.5576  68.5967  68.9060  73.0703
    74.4874  74.4874  75.5897  76.7737  76.7737  78.4609

          k = 0.0741 0.0741-0.6667 (  3192 PWs)   bands (ev):

   -31.6106 -31.6105 -29.5857 -29.5857 -29.5857 -29.5856 -27.6060 -27.6059
    -0.8686  -0.8686  -0.8684  -0.8684   0.6677   0.6679   0.6682   0.6684
     2.4992   2.4992   3.9089   3.9089   3.9089   3.9090   5.1648   5.1648
     8.0413   8.0416   8.0435   8.0437   9.0511   9.0511   9.0513   9.0513
    39.1830  39.1831  41.9013  41.9014  42.6956  42.6956  42.6957  42.6957
    45.5166  45.5166  46.3666  46.3667  46.4106  46.4107  46.4268  46.4268
    46.4269  46.4269  52.1407  52.1407  53.5523  53.5523  53.5525  53.5525
    56.2353  56.2353  56.2354  56.2354  56.6735  56.6736  56.9175  56.9176
    57.3954  57.3954  58.4322  58.4322  58.4324  58.4324  62.6777  62.6779
    65.4995  65.4995  65.4996  65.4996  68.7562  68.7564  70.1636  70.1636
    75.7165  75.7165  75.7166  75.7166  76.8828  76.8828

          k = 0.0741 0.2222 0.2222 (  3170 PWs)   bands (ev):

   -32.3466 -30.5505 -30.5504 -30.3031 -28.7958 -28.5535 -28.5535 -26.8291
    -1.4615  -1.0785  -1.0785  -0.0436  -0.0436   0.3262   0.3308   0.5135
     0.5135   1.2260   1.7477   1.7632   6.9083   6.9101   7.6550   7.8807
     7.8807   7.9951   8.0236   8.5698   8.5699   8.9004   8.9004   9.4244
    38.2506  38.2506  38.6158  41.3631  41.4125  41.8939  42.1655  42.4819
    43.5693  43.5693  44.4097  47.2523  47.9306  49.0410  49.0410  49.2044
    49.2044  49.4901  50.3879  50.8465  50.8466  51.5588  52.9827  52.9827
    53.1607  53.1607  53.5823  53.5823  54.8080  54.9775  59.7712  59.7712
    60.5242  61.2667  61.5534  61.7228  61.8177  62.4611  62.4611  64.5896
    64.6699  66.2609  66.2609  66.5205  68.1093  68.4745  71.1452  71.1452
    72.6423  73.5328  73.5328  76.7163  76.7163  77.8375

          k = 0.0741 0.2222 0.3704 (  3178 PWs)   bands (ev):

   -32.1378 -30.8082 -30.3461 -30.0993 -29.0472 -28.8041 -28.3525 -27.0760
    -1.2921  -0.9103  -0.2411  -0.1759   0.1095   0.1329   0.6636   1.0508
     1.1928   1.3728   1.5841   2.5838   5.6934   6.7501   6.8894   7.0284
     7.7490   7.7675   7.8479   8.1195   8.4463   8.6755   8.7803   9.3094
    38.5973  39.3219  39.6785  40.9921  41.7479  42.7759  43.2750  43.4320
    43.5073  44.4847  45.4696  47.4966  47.5119  47.8501  48.1918  48.2382
    48.7567  50.6591  50.8871  50.9771  51.3008  51.5534  51.5615  51.7138
    52.6853  53.3570  53.9913  54.3855  54.6293  55.6952  58.8572  59.1891
    60.0226  60.5258  61.2268  61.5679  61.6363  62.1680  62.3221  63.3701
    63.7647  63.9281  66.1736  66.6391  67.3059  67.6642  70.0164  73.5219
    73.5454  74.6066  75.7744  76.1514  76.5297  77.8343

          k = 0.0741 0.2222 0.5185 (  3180 PWs)   bands (ev):

   -31.8473 -31.1414 -30.0619 -29.8159 -29.3723 -29.1283 -28.0731 -27.3954
    -1.0581  -0.6780  -0.4994  -0.1235   0.3203   0.8207   0.8700   1.0794
     1.3594   2.3918   2.5644   3.7292   4.1763   5.3274   5.4789   6.5123
     7.1918   7.5748   7.9216   8.2696   8.2826   8.6210   8.8199   9.1570
    39.0918  40.3616  40.8701  41.2149  42.0951  42.8969  44.2631  44.8441
    44.9904  45.0995  45.4033  45.4287  46.5308  46.9121  47.1965  48.1567
    48.3739  49.0229  49.8302  51.5413  52.1112  52.3055  53.0150  53.5204
    53.6398  53.9753  54.3139  55.1538  55.4107  56.7650  57.5047  57.7211
    58.4498  59.0783  59.1575  59.7690  60.2278  60.5886  61.7343  62.1381
    63.2686  65.6152  66.0584  66.9379  67.4254  68.2543  68.6983  73.2772
    74.5458  75.6792  76.0573  76.1333  77.3802  78.3241

          k = 0.0741 0.2222-0.6667 (  3194 PWs)   bands (ev):

   -31.5028 -31.5027 -29.7252 -29.7251 -29.4801 -29.4800 -27.7421 -27.7421
    -0.7837  -0.7835  -0.4055  -0.4053   0.5665   0.5667   1.1109   1.1111
     2.5779   2.5779   3.8167   3.8167   3.9795   3.9795   5.0837   5.0838
     7.3810   7.3812   8.1001   8.1003   8.4432   8.4434   8.9868   8.9870
    39.6986  39.6987  42.4880  42.4881  42.8280  42.8281  43.1606  43.1607
    46.0928  46.0929  46.1645  46.1646  46.2131  46.2132  46.8635  46.8636
    47.4222  47.4223  51.5471  51.5471  51.9029  51.9031  53.9668  53.9669
    55.6521  55.6521  55.8219  55.8219  56.4594  56.4596  57.1564  57.1564
    57.1569  57.1571  58.1824  58.1824  58.3075  58.3076  61.9333  61.9335
    64.7259  64.7259  67.1922  67.1924  67.2420  67.2421  70.7440  70.7440
    75.4598  75.4599  76.6418  76.6419  77.5014  77.5014

          k = 0.0741 0.3704 0.3704 (  3181 PWs)   bands (ev):

   -31.9295 -30.6032 -30.6032 -29.8958 -29.2995 -28.6027 -28.6027 -27.3233
    -1.1245  -0.0855  -0.0855  -0.0118  -0.0118   0.8724   0.9980   1.0075
     1.5193   1.5193   2.3983   2.4363   5.8222   5.8225   6.6064   6.6064
     6.9783   7.0364   7.7182   7.7182   7.8795   8.5530   8.5530   9.1931
    39.6533  39.6533  40.7084  41.5305  42.3477  42.7823  44.1683  44.1683
    44.5091  44.6194  46.7990  46.9109  47.0690  48.1982  48.1982  48.8277
    49.7242  50.3050  50.3050  50.5103  50.5103  50.6754  50.6754  52.3671
    52.4233  52.4233  54.1780  54.1780  55.2341  55.6446  57.9916  59.2301
    59.9180  60.3812  60.3812  60.4839  60.4938  61.1146  61.1146  62.5458
    63.8414  63.8414  65.8138  65.9117  66.0442  67.6015  72.3515  72.3515
    74.2352  75.9856  75.9856  76.9073  76.9073  78.1413

          k = 0.0741 0.3704 0.5185 (  3189 PWs)   bands (ev):

   -31.6396 -30.9356 -30.3180 -29.6259 -29.6129 -28.9263 -28.3227 -27.6434
    -0.8931  -0.3408   0.1288   0.2143   0.6380   0.7534   1.2374   1.7208
     2.1980   2.2101   2.7056   3.5699   4.3161   5.1699   5.6047   5.9995
     6.3720   6.4164   7.1691   7.5467   8.0322   8.3907   8.6987   9.0391
    40.1218  41.1710  41.2565  42.1923  42.8358  43.7577  43.9530  45.0468
    45.1564  45.9557  46.1233  46.1951  46.4980  48.0141  48.1097  48.1546
    49.3663  49.7082  49.8323  49.8377  50.1795  50.4407  52.3134  53.4455
    53.5760  53.6694  54.4464  55.0830  55.3200  56.5446  56.9400  57.9873
    58.0520  58.5879  58.6163  59.5745  59.8322  60.4577  60.7660  60.8947
    61.8023  64.2639  64.3690  65.1743  67.9115  69.5457  71.0711  73.3385
    75.0736  76.0168  76.6191  77.5823  78.2434  78.6632

          k = 0.0741 0.3704-0.6667 (  3188 PWs)   bands (ev):

   -31.2960 -31.2959 -29.9801 -29.9800 -29.2776 -29.2776 -27.9909 -27.9909
    -0.6218  -0.6216   0.3793   0.3794   0.4793   0.4795   1.9560   1.9562
     2.7275   2.7276   3.6461   3.6461   4.1140   4.1140   4.9334   4.9334
     6.2054   6.2056   7.3557   7.3559   8.2095   8.2097   8.8672   8.8674
    40.6847  40.6848  43.0633  43.0634  43.3020  43.3021  44.0574  44.0575
    45.8053  45.8053  45.8239  45.8240  47.3565  47.3565  47.7752  47.7753
    49.1753  49.1754  49.6599  49.6600  50.4070  50.4071  54.3058  54.3058
    54.7625  54.7627  54.9920  54.9921  56.4674  56.4675  56.6272  56.6272
    57.4944  57.4945  58.0843  58.0845  58.2648  58.2648  60.6650  60.6652
    63.0707  63.0708  64.6778  64.6780  69.6176  69.6177  71.7415  71.7415
    75.7306  75.7307  78.0538  78.0538  78.2672  78.2672

          k = 0.0741 0.5185 0.5185 (  3194 PWs)   bands (ev):

   -31.3507 -30.6491 -30.6491 -29.9539 -29.3305 -28.6456 -28.6455 -27.9644
    -0.6652  -0.1222  -0.1222   0.3981   1.4549   1.4549   1.9660   1.9778
     2.8996   2.8996   3.3284   3.3900   4.5058   4.5104   4.9621   4.9621
     5.7403   5.8172   6.1866   6.1866   8.1836   8.5381   8.5381   8.8828
    41.5793  41.5793  42.0721  43.4752  43.5893  44.0818  44.5777  44.5777
    44.7416  45.9514  47.2171  47.2171  47.3446  47.6017  47.6018  47.6669
    47.9346  49.2851  50.0810  50.9289  50.9289  51.2946  51.2946  52.9634
    52.9634  53.4442  55.5704  55.5704  55.9255  55.9360  56.6556  56.8275
    57.5867  58.2022  58.5823  59.1858  59.2146  59.2147  59.8780  59.8780
    61.3157  61.3158  62.5123  63.1947  70.0517  71.2111  72.8502  72.8502
    75.9833  76.9389  76.9389  78.9859  79.2889  79.2889

          k = 0.0741 0.5185-0.6667 (  3178 PWs)   bands (ev):

   -31.0082 -31.0082 -30.3097 -30.3096 -28.9960 -28.9960 -28.3129 -28.3129
    -0.3983  -0.3981   0.1338   0.1340   1.7092   1.7094   2.9334   2.9335
     3.1257   3.1259   3.4219   3.4219   4.2981   4.2982   4.7318   4.7320
     4.7352   4.7352   5.9811   5.9813   8.3590   8.3593   8.7088   8.7090
    42.0013  42.0014  43.2989  43.2989  44.0458  44.0459  45.1902  45.1902
    45.4440  45.4440  45.4831  45.4832  47.3150  47.3151  48.2845  48.2846
    49.0777  49.0778  49.8919  49.8919  51.4940  51.4941  52.6247  52.6248
    53.6819  53.6820  55.6441  55.6442  55.8536  55.8538  56.7171  56.7172
    57.8203  57.8205  58.0547  58.0548  58.8188  58.8189  59.2017  59.2019
    60.9870  60.9871  62.0224  62.0226  71.7329  71.7330  72.7310  72.7310
    76.7503  76.7504  78.6128  78.6128  79.3884  79.3885

          k = 0.0741-0.6667-0.6667 (  3184 PWs)   bands (ev):

   -30.6672 -30.6671 -30.6671 -30.6671 -28.6624 -28.6624 -28.6624 -28.6623
    -0.1368  -0.1366  -0.1366  -0.1364   3.1692   3.1693   3.1693   3.1694
     3.1788   3.1788   3.1788   3.1789   4.4752   4.4752   4.4752   4.4753
     4.5523   4.5523   4.5523   4.5525   8.5322   8.5325   8.5325   8.5327
    43.1242  43.1242  43.1242  43.1243  44.6967  44.6968  44.6968  44.6969
    45.7420  45.7420  45.7420  45.7420  46.8675  46.8676  46.8676  46.8676
    50.6784  50.6785  50.6785  50.6785  51.8375  51.8376  51.8376  51.8377
    53.9515  53.9516  53.9516  53.9516  56.8093  56.8093  56.8093  56.8093
    57.8685  57.8685  57.8685  57.8685  59.2447  59.2447  59.2447  59.2447
    59.9847  59.9848  59.9848  59.9849  72.9024  72.9025  72.9025  72.9025
    78.0101  78.0101  78.0101  78.0102  79.8857  79.8857

          k = 0.2222 0.2222 0.2222 (  3164 PWs)   bands (ev):

   -32.2379 -30.4440 -30.4440 -30.4440 -28.6909 -28.6909 -28.6909 -26.9643
    -0.9907  -0.9907  -0.9907   0.4062   0.4062   0.4062   0.4098   0.4098
     0.4099   1.6549   1.6549   1.6760   6.9706   6.9706   6.9747   7.9256
     7.9256   7.9256   7.9521   7.9521   7.9521   8.8353   8.8353   8.8353
    38.7907  38.7907  38.7907  41.6575  42.2817  42.2817  42.4203  42.4203
    44.2474  44.2474  44.2474  47.6374  48.9565  48.9565  48.9565  49.1891
    49.1891  49.1891  50.6048  50.6048  50.6048  52.0202  52.0202  52.0202
    53.3306  53.3306  53.3306  53.5112  53.5112  53.5112  60.4578  60.6758
    60.6758  61.2783  61.2783  61.2783  61.7527  61.7527  61.7527  64.9446
    64.9446  64.9446  65.4447  66.4492  66.4492  70.1139  70.1139  70.1139
    74.2488  74.2488  74.2489  76.9301  76.9301  76.9301

          k = 0.2222 0.2222 0.3704 (  3180 PWs)   bands (ev):

   -32.0293 -30.7014 -30.2398 -30.2398 -28.9420 -28.9420 -28.4897 -27.2115
    -0.8234  -0.8234  -0.0904   0.2134   0.2134   0.5586   0.5602   1.2705
     1.2705   1.4834   1.4946   2.4931   5.7609   6.8123   6.8123   7.0880
     7.0932   7.7776   7.7962   7.8194   8.0496   8.0496   8.7145   8.7145
    39.1307  39.8462  39.8462  41.4318  42.5051  43.1594  43.4502  43.7169
    43.9558  45.2969  45.2969  47.7894  47.7894  48.4811  48.5108  48.5108
    48.5236  50.4377  51.0940  51.1988  51.1988  51.3306  51.6130  51.8136
    51.8136  52.9114  53.1115  53.1115  54.2490  54.2490  59.2007  59.3406
    60.1709  60.4032  60.4032  60.7566  61.5980  62.5445  62.5445  63.1751
    63.1751  63.6582  65.3220  66.3134  66.9093  68.8845  68.8845  72.3521
    75.1012  75.1012  76.2226  77.0062  77.0318  77.0318

          k = 0.2222 0.2222 0.5185 (  3186 PWs)   bands (ev):

   -31.7391 -31.0342 -29.9559 -29.9559 -29.2669 -29.2669 -28.2099 -27.5313
    -0.5923  -0.5923  -0.0413  -0.0413   0.7671   0.7683   1.1618   1.2579
     1.2658   2.4666   2.4666   3.6420   4.2495   5.3942   5.3942   6.4360
     7.2484   7.2579   7.6253   7.6438   8.2006   8.2006   8.5541   8.5541
    39.6146  40.8456  41.3692  41.3692  42.8173  43.5856  44.5997  44.9401
    45.2386  45.5014  45.5014  46.3342  46.3342  47.6180  47.9184  47.9184
    48.6186  49.0055  49.8164  51.5211  51.9808  51.9808  52.7436  52.7436
    53.1609  53.1610  53.7867  54.1761  55.2683  55.2683  57.4664  58.1788
    58.6046  58.9304  58.9304  59.6619  59.6619  60.3383  60.9435  61.3922
    64.8339  64.8339  65.6329  66.1253  67.6250  67.6250  68.9203  73.1743
    75.9201  75.9202  76.7181  76.9285  76.9285  77.6753

          k = 0.2222 0.2222-0.6667 (  3190 PWs)   bands (ev):

   -31.3950 -31.3950 -29.6194 -29.6194 -29.6194 -29.6193 -27.8785 -27.8784
    -0.3217  -0.3217  -0.3215  -0.3215   1.0087   1.0089   1.0132   1.0134
     2.6561   2.6561   3.8878   3.8878   3.8878   3.8878   5.0020   5.0020
     7.4347   7.4349   7.4486   7.4488   8.3753   8.3753   8.3756   8.3756
    40.2059  40.2060  43.1902  43.1904  43.2895  43.2895  43.2896  43.2896
    46.4648  46.4649  46.5370  46.5370  46.8238  46.8239  47.2000  47.2001
    47.2001  47.2001  51.1543  51.1543  52.3483  52.3483  52.3484  52.3484
    55.3536  55.3536  55.3536  55.3536  55.7333  55.7335  56.9369  56.9370
    57.7063  57.7064  57.8964  57.8964  57.8965  57.8965  61.1643  61.1645
    65.8967  65.8969  66.2967  66.2967  66.2968  66.2968  71.2549  71.2549
    76.5605  76.5605  76.5605  76.5605  78.2803  78.2805

          k = 0.2222 0.3704 0.3704 (  3174 PWs)   bands (ev):

   -31.8213 -30.4966 -30.4966 -30.0360 -29.1941 -28.7404 -28.7403 -27.4592
    -0.6575   0.0729   0.0729   0.3672   0.3673   1.0781   1.0852   1.3129
     1.4182   1.4182   2.3074   2.3422   5.8877   5.8912   6.6693   6.6693
     6.9039   6.9583   7.2083   7.6470   7.6470   7.9198   7.9198   8.5922
    40.1707  40.1707  40.8689  41.9468  43.2937  43.3007  44.3458  44.7271
    44.9904  44.9904  46.6132  47.2159  48.0720  48.1831  48.1831  48.9769
    50.0574  50.0574  50.2436  50.7614  50.7614  51.1464  51.1464  52.0249
    52.2547  52.2547  52.6614  52.6614  53.7248  54.1760  58.0408  59.0714
    59.3981  59.5156  60.1207  60.1207  60.8389  61.8480  61.8480  62.4594
    62.9588  62.9588  64.7025  65.0900  67.2943  68.2890  71.0419  71.0420
    75.8774  76.7421  76.7421  77.6729  77.6910  77.6910

          k = 0.2222 0.3704 0.5185 (  3183 PWs)   bands (ev):

   -31.5317 -30.8285 -30.2116 -29.7525 -29.5202 -29.0647 -28.4599 -27.7798
    -0.4291   0.1156   0.2980   0.5790   0.8340   1.0816   1.3187   1.6215
     2.1034   2.2862   2.6092   3.4811   4.3887   5.2376   5.5213   6.0657
     6.2943   6.4804   7.0937   7.3695   7.4741   7.7478   8.0723   8.4301
    40.6282  41.6630  41.7173  42.3394  43.7579  44.4296  44.6023  45.5475
    45.7917  45.9832  46.2582  46.2954  47.4952  47.9109  48.2528  48.3848
    49.5368  49.6839  49.7081  49.9211  50.4611  50.7140  52.4054  52.8783
    53.2925  53.3312  53.4096  53.5375  53.8549  55.0187  56.6900  57.7476
    58.2783  58.4947  58.6397  59.3018  59.6772  59.6875  60.1334  60.5033
    63.1824  63.3254  64.0454  65.7975  66.8544  69.7461  70.1312  72.6107
    76.6321  77.0636  77.5664  77.9829  78.1097  78.1130

          k = 0.2222 0.3704-0.6667 (  3202 PWs)   bands (ev):

   -31.1885 -31.1884 -29.8740 -29.8740 -29.4166 -29.4166 -28.1278 -28.1277
    -0.1615  -0.1614   0.5613   0.5615   0.8263   0.8265   1.8589   1.8591
     2.8048   2.8049   3.7181   3.7181   4.0230   4.0230   4.8500   4.8500
     6.2704   6.2706   7.2814   7.2816   7.5564   7.5566   8.2492   8.2494
    41.1741  41.1742  43.5164  43.5165  44.1792  44.1793  44.1810  44.1811
    46.2382  46.2383  46.8065  46.8066  47.5858  47.5858  47.6210  47.6211
    48.8595  48.8596  50.2466  50.2468  50.2693  50.2693  53.1761  53.1762
    54.1141  54.1142  54.7141  54.7141  55.2639  55.2640  56.4496  56.4496
    57.3863  57.3864  57.8031  57.8031  58.1542  58.1543  59.9927  59.9929
    63.6702  63.6704  64.4678  64.4678  68.3840  68.3841  72.0248  72.0248
    77.0598  77.0598  78.1828  78.1829  78.2589  78.2589

          k = 0.2222 0.5185 0.5185 (  3188 PWs)   bands (ev):

   -31.2431 -30.5424 -30.5423 -29.8478 -29.4697 -28.7835 -28.7834 -28.1013
    -0.2041   0.3316   0.3316   0.8451   1.5352   1.5352   2.0454   2.0535
     2.8050   2.8050   3.2404   3.2967   4.5795   4.5797   5.0310   5.0310
     5.6609   5.7320   6.1074   6.1074   7.5287   7.9026   7.9026   8.2655
    42.0590  42.0590  42.5077  43.7235  44.4645  44.5867  45.1321  45.5329
    45.5329  46.9461  47.1765  47.2625  47.2625  47.9996  47.9996  48.0235
    48.0449  49.2622  50.0680  50.7895  50.7895  51.4047  51.4047  52.8314
    52.8314  53.2048  53.9785  53.9785  54.3337  54.7797  55.9974  56.8800
    57.1659  58.1096  58.1339  58.2081  58.2082  58.9478  60.6027  60.6027
    61.1594  61.1594  62.2038  63.9013  68.7319  71.5735  71.6066  71.6066
    77.5970  78.1627  78.1627  78.3642  78.9211  78.9211

          k = 0.2222 0.5185-0.6667 (  3186 PWs)   bands (ev):

   -30.9010 -30.9010 -30.2032 -30.2032 -29.1346 -29.1345 -28.4503 -28.4503
     0.0592   0.0594   0.5843   0.5845   1.7882   1.7884   3.0096   3.0096
     3.0330   3.0332   3.4953   3.4953   4.2091   4.2091   4.6497   4.6497
     4.8020   4.8022   5.9002   5.9004   7.7135   7.7137   8.0820   8.0823
    42.4601  42.4602  43.7366  43.7367  45.0252  45.0254  45.4204  45.4205
    45.9487  45.9488  46.3085  46.3086  47.7301  47.7302  48.3104  48.3105
    48.9159  48.9160  49.9653  49.9653  51.4019  51.4020  52.4751  52.4752
    53.5792  53.5793  54.2628  54.2629  55.1789  55.1790  55.5243  55.5243
    56.8298  56.8299  57.7938  57.7939  58.2363  58.2363  59.6412  59.6412
    61.1948  61.1949  62.3581  62.3581  70.3117  70.3117  72.4014  72.4014
    77.9261  77.9262  78.2309  78.2309  79.4585  79.4585

          k = 0.2222-0.6667-0.6667 (  3200 PWs)   bands (ev):

   -30.5604 -30.5603 -30.5603 -30.5603 -28.8004 -28.8003 -28.8003 -28.8003
     0.3174   0.3177   0.3177   0.3178   3.2460   3.2460   3.2460   3.2461
     3.2515   3.2516   3.2516   3.2517   4.3910   4.3911   4.3911   4.3912
     4.4619   4.4620   4.4620   4.4621   7.8956   7.8959   7.8959   7.8961
    43.5506  43.5507  43.5507  43.5507  45.6921  45.6923  45.6923  45.6923
    46.2217  46.2217  46.2217  46.2218  46.9409  46.9410  46.9410  46.9410
    50.5169  50.5170  50.5170  50.5171  51.8535  51.8536  51.8536  51.8537
    53.8627  53.8628  53.8628  53.8628  55.1027  55.1027  55.1027  55.1028
    56.8041  56.8041  56.8041  56.8042  59.2814  59.2815  59.2815  59.2816
    60.6505  60.6505  60.6505  60.6505  71.7600  71.7601  71.7601  71.7601
    78.8102  78.8102  78.8102  78.8103  79.5205  79.5205

          k = 0.3704 0.3704 0.3704 (  3190 PWs)   bands (ev):

   -31.6136 -30.2921 -30.2921 -30.2921 -28.9920 -28.9919 -28.9919 -27.7076
     0.2343   0.2343   0.2343   1.2306   1.2306   1.2306   1.2329   1.2329
     1.2329   2.1393   2.1393   2.1820   6.0120   6.0120   6.0260   6.7657
     6.7657   6.7658   6.8128   6.8128   6.8128   7.5144   7.5144   7.5144
    41.1777  41.1777  41.1777  42.5203  44.3151  44.3151  44.9341  44.9341
    46.3086  46.3086  46.3086  47.7397  47.7397  47.7397  49.2414  49.6725
    49.6725  49.6725  51.2134  51.2134  51.2134  51.4041  51.4041  51.4041
    51.8704  51.8704  51.8704  52.0392  52.0392  52.0392  57.9123  57.9123
    58.7519  58.7519  58.7519  58.9210  61.2030  61.2030  61.2030  62.2968
    62.2968  63.3981  63.3981  63.3981  69.3094  69.3094  69.3094  69.5493
    77.7935  77.7935  77.7935  78.6465  78.6465  78.6466

          k = 0.3704 0.3704 0.5185 (  3192 PWs)   bands (ev):

   -31.3247 -30.6232 -30.0077 -30.0076 -29.3174 -29.3174 -28.7109 -28.0290
     0.4571   0.4571   0.9871   0.9871   1.4364   1.4406   1.4741   1.9182
     1.9384   2.4309   2.4310   3.3171   4.5263   5.3661   5.3662   6.1505
     6.1828   6.2000   6.5835   6.6208   6.9539   6.9539   7.3391   7.3391
    41.6075  42.5377  42.6165  42.6165  45.1743  45.2241  45.7806  45.9465
    46.2812  46.2812  46.7910  47.5725  47.5725  48.2477  48.8184  49.1533
    49.1533  49.5403  49.7672  50.6012  50.8746  50.8746  51.5435  51.5435
    52.5620  52.6624  52.6624  53.0320  53.0320  53.0813  56.0534  57.2959
    57.2959  57.5293  58.2534  58.8488  58.8488  59.1317  59.2678  61.3750
    61.5227  62.0750  64.8645  64.8645  67.6943  67.6943  71.0859  71.1463
    77.6234  78.4706  78.6359  78.6359  78.9024  79.1572

          k = 0.3704 0.3704-0.6667 (  3180 PWs)   bands (ev):

   -30.9823 -30.9822 -29.6706 -29.6706 -29.6706 -29.6705 -28.3778 -28.3778
     0.7178   0.7178   0.7180   0.7180   1.6738   1.6740   1.6855   1.6857
     2.9523   2.9523   3.8557   3.8557   3.8557   3.8557   4.6955   4.6955
     6.3809   6.3811   6.4077   6.4079   7.1441   7.1441   7.1443   7.1443
    42.1038  42.1039  44.3870  44.3870  44.3870  44.3870  45.5722  45.5724
    46.8334  46.8335  47.6303  47.6304  48.1270  48.1270  48.4858  48.4858
    48.4859  48.4859  49.8810  49.8811  51.1443  51.1443  51.1445  51.1445
    53.7393  53.7393  53.7393  53.7393  54.2123  54.2124  56.0569  56.0570
    56.9016  56.9016  56.9016  56.9016  57.6704  57.6705  59.8842  59.8842
    61.8126  61.8128  66.2555  66.2555  66.2556  66.2556  71.9982  71.9982
    77.0483  77.0484  79.1068  79.1068  79.1068  79.1068

          k = 0.3704 0.5185 0.5185 (  3180 PWs)   bands (ev):

   -31.0368 -30.3376 -30.3376 -29.7239 -29.6444 -29.0355 -29.0355 -28.3514
     0.6764   1.1980   1.1980   1.6883   1.6883   1.6983   2.1967   2.1973
     2.6298   2.6298   3.0778   3.1246   4.7116   4.7194   5.1621   5.1621
     5.5135   5.5741   5.9608   5.9608   6.3638   6.7692   6.7692   7.1609
    42.9814  42.9814  43.2922  43.9669  45.5728  45.8667  46.2357  46.9515
    47.1691  47.1691  47.2635  47.2635  48.1906  48.5862  48.6604  48.6906
    48.6906  49.1226  50.2521  50.6201  50.6201  51.6203  51.6203  52.1592
    52.1592  52.3914  52.5841  52.5841  52.7236  52.9055  55.1121  56.3628
    56.4274  56.7098  56.7098  57.0214  57.9385  59.1874  59.1875  59.5874
    60.3013  62.5909  62.5909  65.6556  66.4690  69.5277  69.5277  71.7043
    76.6988  79.5663  79.5665  79.9213  79.9906  79.9909

          k = 0.3704 0.5185-0.6667 (  3188 PWs)   bands (ev):

   -30.6954 -30.6954 -29.9991 -29.9991 -29.3877 -29.3877 -28.7014 -28.7014
     0.9330   0.9332   1.4442   1.4444   1.9385   1.9387   2.8617   2.8619
     3.1549   3.1549   3.6353   3.6353   4.0445   4.0445   4.4917   4.4917
     4.9356   4.9358   5.7501   5.7503   6.5638   6.5641   6.9625   6.9627
    43.3244  43.3245  44.5700  44.5700  45.5963  45.5963  46.7518  46.7520
    46.8306  46.8306  48.0391  48.0392  48.2634  48.2635  48.4790  48.4791
    48.6866  48.6867  50.1130  50.1130  51.2828  51.2829  52.2210  52.2211
    52.2773  52.2774  53.1096  53.1096  53.6686  53.6687  55.2800  55.2800
    55.7348  55.7348  56.2402  56.2403  57.0721  57.0722  59.5881  59.5883
    60.7423  60.7423  63.9705  63.9705  67.9899  67.9900  71.0380  71.0380
    77.6374  77.6374  80.2811  80.2811  80.5617  80.5617

          k = 0.3704-0.6667-0.6667 (  3196 PWs)   bands (ev):

   -30.3555 -30.3554 -30.3554 -30.3554 -29.0526 -29.0525 -29.0525 -29.0525
     1.1845   1.1847   1.1847   1.1849   3.3900   3.3900   3.3900   3.3901
     3.3932   3.3932   3.3932   3.3933   4.2352   4.2353   4.2353   4.2354
     4.2948   4.2949   4.2949   4.2950   6.7605   6.7608   6.7608   6.7610
    44.3521  44.3521  44.3521  44.3521  46.9792  46.9793  46.9793  46.9793
    47.1502  47.1502  47.1502  47.1502  47.5226  47.5227  47.5227  47.5228
    50.2557  50.2558  50.2558  50.2559  51.7928  51.7928  51.7928  51.7929
    53.3262  53.3262  53.3262  53.3262  53.7088  53.7089  53.7089  53.7090
    55.2101  55.2101  55.2101  55.2101  57.8759  57.8760  57.8760  57.8762
    62.0910  62.0910  62.0910  62.0910  69.5943  69.5944  69.5944  69.5944
    79.1467  79.1467  79.1467  79.1467  82.0111  82.0112

          k = 0.5185 0.5185 0.5185 (  3181 PWs)   bands (ev):

   -30.7497 -30.0528 -30.0527 -30.0527 -29.3615 -29.3615 -29.3615 -28.6750
     1.8991   1.8991   1.8991   2.3951   2.3951   2.3951   2.4044   2.4044
     2.4044   2.8631   2.8631   2.9148   4.8925   4.8925   4.9212   5.3191
     5.3191   5.3192   5.3658   5.3658   5.3658   5.7672   5.7672   5.7672
    44.1280  44.2600  44.2600  44.2600  46.8411  46.8411  46.8411  46.9924
    46.9924  48.4123  48.4123  48.6910  48.7852  48.7852  48.7852  49.2551
    49.2551  49.2551  50.8021  50.8021  50.8021  51.1242  51.1242  51.1242
    51.9066  51.9066  51.9066  52.2476  52.2476  52.2476  54.4964  54.4964
    55.3347  55.3347  55.3347  57.2251  57.2251  57.2251  57.7135  57.7135
    60.5626  64.0319  64.0319  64.0319  67.4052  67.4052  67.4052  70.7084
    77.0784  80.8016  80.8016  80.8016  81.4396  81.4397

          k = 0.5185 0.5185-0.6667 (  3192 PWs)   bands (ev):

   -30.4094 -30.4094 -29.7152 -29.7152 -29.7152 -29.7151 -29.0263 -29.0262
     2.1453   2.1453   2.1455   2.1455   2.6257   2.6259   2.6468   2.6470
     3.3547   3.3547   3.8276   3.8276   3.8277   3.8277   4.2835   4.2835
     5.1033   5.1035   5.1354   5.1356   5.5522   5.5522   5.5524   5.5524
    44.4409  44.4410  45.7003  45.7003  45.7003  45.7003  47.8578  47.8578
    47.8698  47.8698  48.6439  48.6441  48.7723  48.7724  49.2676  49.2676
    49.2677  49.2677  50.4755  50.4756  51.3402  51.3403  51.3403  51.3404
    51.9592  51.9592  51.9592  51.9593  52.6469  52.6470  54.5554  54.5555
    54.8226  54.8226  55.4038  55.4038  55.4038  55.4038  57.4652  57.4654
    62.0092  62.0092  65.5871  65.5871  65.5871  65.5872  69.1074  69.1074
    78.7462  78.7462  81.7348  81.7348  81.7348  81.7348

          k = 0.5185-0.6667-0.6667 (  3160 PWs)   bands (ev):

   -30.0705 -30.0704 -30.0704 -30.0704 -29.3788 -29.3787 -29.3787 -29.3787
     2.3872   2.3874   2.3874   2.3876   3.5803   3.5804   3.5804   3.5805
     3.5954   3.5955   3.5955   3.5956   4.0301   4.0302   4.0302   4.0303
     4.0753   4.0753   4.0753   4.0754   5.3329   5.3332   5.3332   5.3334
    45.3972  45.3973  45.3973  45.3973  46.9252  46.9253  46.9253  46.9253
    48.4566  48.4566  48.4566  48.4567  49.4748  49.4749  49.4749  49.4750
    50.0209  50.0210  50.0210  50.0211  51.2885  51.2885  51.2885  51.2886
    52.2114  52.2114  52.2114  52.2114  53.5425  53.5425  53.5425  53.5426
    53.8933  53.8933  53.8933  53.8934  55.8361  55.8362  55.8362  55.8363
    63.5768  63.5768  63.5768  63.5768  67.2667  67.2667  67.2667  67.2667
    80.3769  80.3769  80.3769  80.3769  83.2535  83.2535

          k =-0.6667-0.6667-0.6667 (  3184 PWs)   bands (ev):

   -29.7328 -29.7327 -29.7327 -29.7327 -29.7326 -29.7326 -29.7326 -29.7326
     3.8019   3.8019   3.8019   3.8019   3.8019   3.8021   3.8021   3.8021
     3.8021   3.8021   3.8021   3.8022   3.8022   3.8022   3.8023   3.8023
     3.8464   3.8465   3.8465   3.8465   3.8466   3.8466   3.8466   3.8468
    46.3924  46.3924  46.3924  46.3924  46.3924  46.3924  46.3924  46.3924
    49.9825  49.9825  49.9825  49.9825  49.9825  49.9825  49.9825  49.9825
    49.9825  49.9825  49.9826  49.9826  49.9826  49.9826  49.9826  49.9826
    53.4827  53.4827  53.4828  53.4828  53.4828  53.4829  53.4829  53.4829
    53.4829  53.4829  53.4829  53.4830  53.4830  53.4830  53.4830  53.4830
    65.2545  65.2545  65.2545  65.2545  65.2545  65.2545  65.2545  65.2545
    81.9144  81.9144  81.9144  81.9145  81.9145  81.9145

     the Fermi energy is    62.2948 ev

!    total energy              =   -4078.68289750 Ry

     total all-electron energy =    -80718.896324 Ry
     estimated scf accuracy    <       0.00000050 Ry
     smearing contrib. (-TS)   =       0.00000728 Ry
     internal energy E=F+TS    =   -4078.68290478 Ry

     The total energy is F=E-TS. E is the sum of the following terms:
     one-electron contribution =     182.18238894 Ry
     hartree contribution      =     206.53242418 Ry
     xc contribution           =    -263.14267264 Ry
     ewald contribution        =   -2161.75046056 Ry
     one-center paw contrib.   =   -2042.50458470 Ry

     convergence has been achieved in  10 iterations

     Forces acting on atoms (cartesian axes, Ry/au):

     atom    1 type  1   force =     0.00000000    0.00000000    0.00000000
     atom    2 type  1   force =     0.00000000    0.00000000    0.00000000
     atom    3 type  1   force =     0.00000000    0.00000000    0.00000000
     atom    4 type  1   force =     0.00000000    0.00000000    0.00000000
     atom    5 type  1   force =     0.00000000    0.00000000    0.00000000
     atom    6 type  1   force =     0.00000000    0.00000000    0.00000000
     atom    7 type  1   force =     0.00000000    0.00000000    0.00000000
     atom    8 type  1   force =     0.00000000    0.00000000    0.00000000

     Total force =     0.000000     Total SCF correction =     0.000000


     Computing stress (Cartesian axis) and pressure

          total   stress  (Ry/bohr**3)                   (kbar)     P=    22779.97
   0.15485508   0.00000000   0.00000000        22779.97        0.00        0.00
   0.00000000   0.15485508   0.00000000            0.00    22779.97        0.00
   0.00000000   0.00000000   0.15485508            0.00        0.00    22779.97


     Writing output data file /scratch/AQLDDtmRkkZtTRRQ.save/
 
     init_run     :      0.94s CPU      1.08s WALL (       1 calls)
     electrons    :     28.02s CPU     29.80s WALL (       1 calls)
     forces       :      0.27s CPU      0.28s WALL (       1 calls)
     stress       :      0.31s CPU      0.32s WALL (       1 calls)

     Called by init_run:
     wfcinit      :      0.68s CPU      0.75s WALL (       1 calls)
     potinit      :      0.15s CPU      0.17s WALL (       1 calls)
     hinit0       :      0.03s CPU      0.04s WALL (       1 calls)

     Called by electrons:
     c_bands      :     24.60s CPU     26.10s WALL (      11 calls)
     sum_band     :      2.82s CPU      3.02s WALL (      11 calls)
     v_of_rho     :      0.12s CPU      0.13s WALL (      11 calls)
     newd         :      0.03s CPU      0.03s WALL (      11 calls)
     PAW_pot      :      0.55s CPU      0.60s WALL (      11 calls)
     mix_rho      :      0.01s CPU      0.02s WALL (      11 calls)

     Called by c_bands:
     init_us_2    :      0.03s CPU      0.03s WALL (     875 calls)
     cegterg      :     24.40s CPU     25.89s WALL (     385 calls)

     Called by *egterg:
     cdiaghg      :      7.25s CPU      7.49s WALL (    1302 calls)
     h_psi        :     11.01s CPU     11.71s WALL (    1372 calls)
     s_psi        :      0.15s CPU      0.16s WALL (    1372 calls)
     g_psi        :      0.01s CPU      0.01s WALL (     952 calls)

     Called by h_psi:
     h_psi:calbec :      1.50s CPU      1.57s WALL (    1372 calls)
     vloc_psi     :      9.22s CPU      9.85s WALL (    1372 calls)
     add_vuspsi   :      0.28s CPU      0.28s WALL (    1372 calls)

     General routines
     calbec       :      2.30s CPU      2.40s WALL (    1932 calls)
     fft          :      0.10s CPU      0.11s WALL (     167 calls)
     ffts         :      0.00s CPU      0.01s WALL (      22 calls)
     fftw         :     10.97s CPU     11.73s WALL (  195958 calls)
     interpolate  :      0.00s CPU      0.01s WALL (      11 calls)
 
     Parallel routines
     fft_scatt_xy :      0.59s CPU      0.63s WALL (  196147 calls)
     fft_scatt_yz :      9.24s CPU      9.89s WALL (  196147 calls)
 
     PWSCF        :     33.21s CPU     35.75s WALL

 
   This run was terminated on:   3:38:31  30Nov2021            

=------------------------------------------------------------------------------=
   JOB DONE.
=------------------------------------------------------------------------------=
