
     Program PWSCF v.6.7MaX starts on 30Nov2021 at  4:15:12 

     This program is part of the open-source Quantum ESPRESSO suite
     for quantum simulation of materials; please cite
         "P. Giannozzi et al., J. Phys.:Condens. Matter 21 395502 (2009);
         "P. Giannozzi et al., J. Phys.:Condens. Matter 29 465901 (2017);
          URL http://www.quantum-espresso.org", 
     in publications or presentations arising from this work. More details at
     http://www.quantum-espresso.org/quote

     Parallel version (MPI & OpenMP), running on      72 processor cores
     Number of MPI processes:                72
     Threads/MPI process:                     1

     MPI processes distributed on     1 nodes
     R & G space division:  proc/nbgrp/npool/nimage =      72
     Reading input from sc_19.in
Warning: card &CELL ignored
Warning: card CELL_DYNAMICS = 'BFGS', ignored
Warning: card CELL_FACTOR = 2.0, ignored
Warning: card PRESS = 0.0, ignored
Warning: card / ignored

     Current dimensions of program PWSCF are:
     Max number of different atomic species (ntypx) = 10
     Max number of k-points (npk) =  40000
     Max angular momentum in pseudopotentials (lmaxx) =  3
     file Pd.pbe-spn-kjpaw_psl.1.0.0.UPF: wavefunction(s)  4S 5S 4D renormalized

     Subspace diagonalization in iterative solution of the eigenvalue problem:
     one sub-group per band group will be used
     ELPA distributed-memory algorithm (size of sub-group:  8*  8 procs)

     Found symmetry operation: I + (  0.0000  0.0000 -0.5000)
     This is a supercell, fractional translations are disabled
     Message from routine setup:
     using ibrav=0 with symmetry is DISCOURAGED, use correct ibrav instead
 
     Parallelization info
     --------------------
     sticks:   dense  smooth     PW     G-vecs:    dense   smooth      PW
     Min         146      96     26                11296     6064     844
     Max         147      97     27                11301     6069     850
     Sum       10517    6961   1877               813391   436783   61037
 


     bravais-lattice index     =            0
     lattice parameter (alat)  =       9.0720  a.u.
     unit-cell volume          =    5402.8182 (a.u.)^3
     number of atoms/cell      =            8
     number of atomic types    =            1
     number of electrons       =       144.00
     number of Kohn-Sham states=           86
     kinetic-energy cutoff     =      71.0000  Ry
     charge density cutoff     =     430.0000  Ry
     scf convergence threshold =      1.0E-06
     mixing beta               =       0.1000
     number of iterations used =           10  TF        mixing
     Exchange-correlation= SLA  PW   PBX  PBC
                           (   1   4   3   4   0   0   0)

     celldm(1)=   9.072000  celldm(2)=   0.000000  celldm(3)=   0.000000
     celldm(4)=   0.000000  celldm(5)=   0.000000  celldm(6)=   0.000000

     crystal axes: (cart. coord. in units of alat)
               a(1) = (   1.934211   0.000000   0.000000 )  
               a(2) = (   0.000000   1.934211   0.000000 )  
               a(3) = (   0.000000   0.000000   1.934211 )  

     reciprocal axes: (cart. coord. in units 2 pi/alat)
               b(1) = (  0.517007  0.000000  0.000000 )  
               b(2) = (  0.000000  0.517007  0.000000 )  
               b(3) = (  0.000000  0.000000  0.517007 )  


     PseudoPot. # 1 for Pd read from file:
     /rds/homes/b/bxp912/pp/Pd.pbe-spn-kjpaw_psl.1.0.0.UPF
     MD5 check sum: 790f2ebce206edfd9790dcb9844eca51
     Pseudo is Projector augmented-wave + core cor, Zval = 18.0
     Generated using &quot;atomic&quot; code by A. Dal Corso  v.6.3
     Shape of augmentation charge: PSQ
     Using radial grid of 1235 points,  6 beta functions with: 
                l(1) =   0
                l(2) =   0
                l(3) =   1
                l(4) =   1
                l(5) =   2
                l(6) =   2
     Q(r) pseudized with 0 coefficients 


     atomic species   valence    mass     pseudopotential
        Pd            18.00   106.42000     Pd( 1.00)

     48 Sym. Ops., with inversion, found



   Cartesian axes

     site n.     atom                  positions (alat units)
         1           Pd  tau(   1) = (   0.0000000   0.0000000   0.0000000  )
         2           Pd  tau(   2) = (   0.0000000   0.0000000   0.9671053  )
         3           Pd  tau(   3) = (   0.0000000   0.9671053   0.0000000  )
         4           Pd  tau(   4) = (   0.0000000   0.9671053   0.9671053  )
         5           Pd  tau(   5) = (   0.9671053   0.0000000   0.0000000  )
         6           Pd  tau(   6) = (   0.9671053   0.0000000   0.9671053  )
         7           Pd  tau(   7) = (   0.9671053   0.9671053   0.0000000  )
         8           Pd  tau(   8) = (   0.9671053   0.9671053   0.9671053  )

     number of k points=    35  Marzari-Vanderbilt smearing, width (Ry)=  0.0400
                       cart. coord. in units 2pi/alat
        k(    1) = (   0.0287226   0.0287226   0.0287226), wk =   0.0219479
        k(    2) = (   0.0287226   0.0287226   0.0861678), wk =   0.0658436
        k(    3) = (   0.0287226   0.0287226   0.1436130), wk =   0.0658436
        k(    4) = (   0.0287226   0.0287226   0.2010582), wk =   0.0658436
        k(    5) = (   0.0287226   0.0287226  -0.2585034), wk =   0.0329218
        k(    6) = (   0.0287226   0.0861678   0.0861678), wk =   0.0658436
        k(    7) = (   0.0287226   0.0861678   0.1436130), wk =   0.1316872
        k(    8) = (   0.0287226   0.0861678   0.2010582), wk =   0.1316872
        k(    9) = (   0.0287226   0.0861678  -0.2585034), wk =   0.0658436
        k(   10) = (   0.0287226   0.1436130   0.1436130), wk =   0.0658436
        k(   11) = (   0.0287226   0.1436130   0.2010582), wk =   0.1316872
        k(   12) = (   0.0287226   0.1436130  -0.2585034), wk =   0.0658436
        k(   13) = (   0.0287226   0.2010582   0.2010582), wk =   0.0658436
        k(   14) = (   0.0287226   0.2010582  -0.2585034), wk =   0.0658436
        k(   15) = (   0.0287226  -0.2585034  -0.2585034), wk =   0.0164609
        k(   16) = (   0.0861678   0.0861678   0.0861678), wk =   0.0219479
        k(   17) = (   0.0861678   0.0861678   0.1436130), wk =   0.0658436
        k(   18) = (   0.0861678   0.0861678   0.2010582), wk =   0.0658436
        k(   19) = (   0.0861678   0.0861678  -0.2585034), wk =   0.0329218
        k(   20) = (   0.0861678   0.1436130   0.1436130), wk =   0.0658436
        k(   21) = (   0.0861678   0.1436130   0.2010582), wk =   0.1316872
        k(   22) = (   0.0861678   0.1436130  -0.2585034), wk =   0.0658436
        k(   23) = (   0.0861678   0.2010582   0.2010582), wk =   0.0658436
        k(   24) = (   0.0861678   0.2010582  -0.2585034), wk =   0.0658436
        k(   25) = (   0.0861678  -0.2585034  -0.2585034), wk =   0.0164609
        k(   26) = (   0.1436130   0.1436130   0.1436130), wk =   0.0219479
        k(   27) = (   0.1436130   0.1436130   0.2010582), wk =   0.0658436
        k(   28) = (   0.1436130   0.1436130  -0.2585034), wk =   0.0329218
        k(   29) = (   0.1436130   0.2010582   0.2010582), wk =   0.0658436
        k(   30) = (   0.1436130   0.2010582  -0.2585034), wk =   0.0658436
        k(   31) = (   0.1436130  -0.2585034  -0.2585034), wk =   0.0164609
        k(   32) = (   0.2010582   0.2010582   0.2010582), wk =   0.0219479
        k(   33) = (   0.2010582   0.2010582  -0.2585034), wk =   0.0329218
        k(   34) = (   0.2010582  -0.2585034  -0.2585034), wk =   0.0164609
        k(   35) = (  -0.2585034  -0.2585034  -0.2585034), wk =   0.0027435

     Dense  grid:   813391 G-vectors     FFT dimensions: ( 120, 120, 120)

     Smooth grid:   436783 G-vectors     FFT dimensions: (  96,  96,  96)

     Estimated max dynamical RAM per process >      82.45 MB

     Estimated total dynamical RAM >       5.80 GB

     Initial potential from superposition of free atoms

     starting charge  143.99694, renormalised to  144.00000
     Starting wfcs are   80 randomized atomic wfcs +    6 random wfcs
     Checking if some PAW data can be deallocated... 

     total cpu time spent up to now is        6.2 secs

     Self-consistent Calculation

     iteration #  1     ecut=    71.00 Ry     beta= 0.10
     Davidson diagonalization with overlap
     ethr =  1.00E-02,  avg # of iterations =  5.5

     total cpu time spent up to now is       15.5 secs

     total energy              =   -4095.35421127 Ry
     estimated scf accuracy    <       6.21307074 Ry

     iteration #  2     ecut=    71.00 Ry     beta= 0.10
     Davidson diagonalization with overlap
     ethr =  4.31E-03,  avg # of iterations =  1.0

     total cpu time spent up to now is       22.3 secs

     total energy              =   -4093.90204812 Ry
     estimated scf accuracy    <       4.65429734 Ry

     iteration #  3     ecut=    71.00 Ry     beta= 0.10
     Davidson diagonalization with overlap
     ethr =  3.23E-03,  avg # of iterations =  2.0

     total cpu time spent up to now is       32.3 secs

     total energy              =   -4093.87671715 Ry
     estimated scf accuracy    <       3.04125544 Ry

     iteration #  4     ecut=    71.00 Ry     beta= 0.10
     Davidson diagonalization with overlap
     ethr =  2.11E-03,  avg # of iterations =  1.3

     total cpu time spent up to now is       40.1 secs

     total energy              =   -4094.05408322 Ry
     estimated scf accuracy    <       1.71435682 Ry

     iteration #  5     ecut=    71.00 Ry     beta= 0.10
     Davidson diagonalization with overlap
     ethr =  1.19E-03,  avg # of iterations =  1.5

     total cpu time spent up to now is       47.8 secs

     total energy              =   -4094.03543199 Ry
     estimated scf accuracy    <       0.56369294 Ry

     iteration #  6     ecut=    71.00 Ry     beta= 0.10
     Davidson diagonalization with overlap
     ethr =  3.91E-04,  avg # of iterations =  2.5

     total cpu time spent up to now is       56.7 secs

     total energy              =   -4094.09931653 Ry
     estimated scf accuracy    <       0.43707889 Ry

     iteration #  7     ecut=    71.00 Ry     beta= 0.10
     Davidson diagonalization with overlap
     ethr =  3.04E-04,  avg # of iterations =  2.8

     total cpu time spent up to now is       70.5 secs

     total energy              =   -4094.24286166 Ry
     estimated scf accuracy    <      11.14165924 Ry

     iteration #  8     ecut=    71.00 Ry     beta= 0.10
     Davidson diagonalization with overlap
     ethr =  3.04E-04,  avg # of iterations =  1.0

     total cpu time spent up to now is       78.2 secs

     total energy              =   -4094.32338607 Ry
     estimated scf accuracy    <       2.96837621 Ry

     iteration #  9     ecut=    71.00 Ry     beta= 0.10
     Davidson diagonalization with overlap
     ethr =  3.04E-04,  avg # of iterations =  1.0

     total cpu time spent up to now is       86.5 secs

     total energy              =   -4094.35892309 Ry
     estimated scf accuracy    <       2.12230203 Ry

     iteration # 10     ecut=    71.00 Ry     beta= 0.10
     Davidson diagonalization with overlap
     ethr =  3.04E-04,  avg # of iterations =  1.1

     total cpu time spent up to now is       93.5 secs

     total energy              =   -4094.35918854 Ry
     estimated scf accuracy    <       2.52966185 Ry

     iteration # 11     ecut=    71.00 Ry     beta= 0.10
     Davidson diagonalization with overlap
     ethr =  3.04E-04,  avg # of iterations =  1.0

     total cpu time spent up to now is      101.1 secs

     total energy              =   -4094.26715378 Ry
     estimated scf accuracy    <       2.53411993 Ry

     iteration # 12     ecut=    71.00 Ry     beta= 0.10
     Davidson diagonalization with overlap
     ethr =  3.04E-04,  avg # of iterations =  1.1

     total cpu time spent up to now is      108.2 secs

     total energy              =   -4094.04345494 Ry
     estimated scf accuracy    <       2.20767219 Ry

     iteration # 13     ecut=    71.00 Ry     beta= 0.10
     Davidson diagonalization with overlap
     ethr =  3.04E-04,  avg # of iterations =  2.1

     total cpu time spent up to now is      118.1 secs

     total energy              =   -4094.17749740 Ry
     estimated scf accuracy    <       1.16692270 Ry

     iteration # 14     ecut=    71.00 Ry     beta= 0.10
     Davidson diagonalization with overlap
     ethr =  3.04E-04,  avg # of iterations =  1.0

     total cpu time spent up to now is      124.9 secs

     total energy              =   -4094.05095913 Ry
     estimated scf accuracy    <       0.93418346 Ry

     iteration # 15     ecut=    71.00 Ry     beta= 0.10
     Davidson diagonalization with overlap
     ethr =  3.04E-04,  avg # of iterations =  1.0

     total cpu time spent up to now is      132.1 secs

     total energy              =   -4094.08045196 Ry
     estimated scf accuracy    <       0.53713922 Ry

     iteration # 16     ecut=    71.00 Ry     beta= 0.10
     Davidson diagonalization with overlap
     ethr =  3.04E-04,  avg # of iterations =  1.0

     total cpu time spent up to now is      140.0 secs

     total energy              =   -4093.99429801 Ry
     estimated scf accuracy    <       1.56436209 Ry

     iteration # 17     ecut=    71.00 Ry     beta= 0.10
     Davidson diagonalization with overlap
     ethr =  3.04E-04,  avg # of iterations =  1.1

     total cpu time spent up to now is      146.9 secs

     total energy              =   -4094.17297708 Ry
     estimated scf accuracy    <       0.61554276 Ry

     iteration # 18     ecut=    71.00 Ry     beta= 0.10
     Davidson diagonalization with overlap
     ethr =  3.04E-04,  avg # of iterations =  2.1

     total cpu time spent up to now is      155.4 secs

     total energy              =   -4093.80349892 Ry
     estimated scf accuracy    <       1.67982173 Ry

     iteration # 19     ecut=    71.00 Ry     beta= 0.10
     Davidson diagonalization with overlap
     ethr =  3.04E-04,  avg # of iterations =  2.2

     total cpu time spent up to now is      164.7 secs

     total energy              =   -4093.98734535 Ry
     estimated scf accuracy    <       0.50742688 Ry

     iteration # 20     ecut=    71.00 Ry     beta= 0.10
     Davidson diagonalization with overlap
     ethr =  3.04E-04,  avg # of iterations =  1.1

     total cpu time spent up to now is      172.2 secs

     total energy              =   -4094.00897931 Ry
     estimated scf accuracy    <       0.35433859 Ry

     iteration # 21     ecut=    71.00 Ry     beta= 0.10
     Davidson diagonalization with overlap
     ethr =  2.46E-04,  avg # of iterations =  2.1

     total cpu time spent up to now is      180.3 secs

     total energy              =   -4094.02033318 Ry
     estimated scf accuracy    <       0.83966810 Ry

     iteration # 22     ecut=    71.00 Ry     beta= 0.10
     Davidson diagonalization with overlap
     ethr =  2.46E-04,  avg # of iterations =  1.0

     total cpu time spent up to now is      186.7 secs

     total energy              =   -4093.99432559 Ry
     estimated scf accuracy    <       0.77158856 Ry

     iteration # 23     ecut=    71.00 Ry     beta= 0.10
     Davidson diagonalization with overlap
     ethr =  2.46E-04,  avg # of iterations =  1.1

     total cpu time spent up to now is      193.7 secs

     total energy              =   -4094.00805551 Ry
     estimated scf accuracy    <       0.26666448 Ry

     iteration # 24     ecut=    71.00 Ry     beta= 0.10
     Davidson diagonalization with overlap
     ethr =  1.85E-04,  avg # of iterations =  2.3

     total cpu time spent up to now is      202.9 secs

     total energy              =   -4094.08128986 Ry
     estimated scf accuracy    <       3.54857310 Ry

     iteration # 25     ecut=    71.00 Ry     beta= 0.10
     Davidson diagonalization with overlap
     ethr =  1.85E-04,  avg # of iterations =  2.0

     total cpu time spent up to now is      211.2 secs

     total energy              =   -4094.12970545 Ry
     estimated scf accuracy    <       1.46609143 Ry

     iteration # 26     ecut=    71.00 Ry     beta= 0.10
     Davidson diagonalization with overlap
     ethr =  1.85E-04,  avg # of iterations =  1.0

     negative rho (up, down):  6.537E-04 0.000E+00

     total cpu time spent up to now is      218.9 secs

     total energy              =   -4093.83323964 Ry
     estimated scf accuracy    <       1.63782052 Ry

     iteration # 27     ecut=    71.00 Ry     beta= 0.10
     Davidson diagonalization with overlap
     ethr =  1.85E-04,  avg # of iterations =  2.0

     total cpu time spent up to now is      227.8 secs

     total energy              =   -4094.02741213 Ry
     estimated scf accuracy    <       0.63362185 Ry

     iteration # 28     ecut=    71.00 Ry     beta= 0.10
     Davidson diagonalization with overlap
     ethr =  1.85E-04,  avg # of iterations =  2.0

     total cpu time spent up to now is      235.4 secs

     total energy              =   -4094.02329975 Ry
     estimated scf accuracy    <       0.63618031 Ry

     iteration # 29     ecut=    71.00 Ry     beta= 0.10
     Davidson diagonalization with overlap
     ethr =  1.85E-04,  avg # of iterations =  1.0

     total cpu time spent up to now is      242.5 secs

     total energy              =   -4093.93593854 Ry
     estimated scf accuracy    <       0.49522624 Ry

     iteration # 30     ecut=    71.00 Ry     beta= 0.10
     Davidson diagonalization with overlap
     ethr =  1.85E-04,  avg # of iterations =  2.1

     total cpu time spent up to now is      251.3 secs

     total energy              =   -4094.00942584 Ry
     estimated scf accuracy    <       0.80925209 Ry

     iteration # 31     ecut=    71.00 Ry     beta= 0.10
     Davidson diagonalization with overlap
     ethr =  1.85E-04,  avg # of iterations =  1.0

     total cpu time spent up to now is      259.0 secs

     total energy              =   -4094.02614135 Ry
     estimated scf accuracy    <       0.39555577 Ry

     iteration # 32     ecut=    71.00 Ry     beta= 0.10
     Davidson diagonalization with overlap
     ethr =  1.85E-04,  avg # of iterations =  1.0

     total cpu time spent up to now is      265.8 secs

     total energy              =   -4094.01738735 Ry
     estimated scf accuracy    <       0.41718171 Ry

     iteration # 33     ecut=    71.00 Ry     beta= 0.10
     Davidson diagonalization with overlap
     ethr =  1.85E-04,  avg # of iterations =  1.0

     total cpu time spent up to now is      272.4 secs

     total energy              =   -4093.99219948 Ry
     estimated scf accuracy    <       0.49075351 Ry

     iteration # 34     ecut=    71.00 Ry     beta= 0.10
     Davidson diagonalization with overlap
     ethr =  1.85E-04,  avg # of iterations =  1.0

     total cpu time spent up to now is      280.0 secs

     total energy              =   -4093.95535070 Ry
     estimated scf accuracy    <       0.75759768 Ry

     iteration # 35     ecut=    71.00 Ry     beta= 0.10
     Davidson diagonalization with overlap
     ethr =  1.85E-04,  avg # of iterations =  1.0

     total cpu time spent up to now is      287.3 secs

     total energy              =   -4093.97034149 Ry
     estimated scf accuracy    <       0.56274233 Ry

     iteration # 36     ecut=    71.00 Ry     beta= 0.10
     Davidson diagonalization with overlap
     ethr =  1.85E-04,  avg # of iterations =  1.0

     total cpu time spent up to now is      295.1 secs

     total energy              =   -4093.97187444 Ry
     estimated scf accuracy    <       0.28406010 Ry

     iteration # 37     ecut=    71.00 Ry     beta= 0.10
     Davidson diagonalization with overlap
     ethr =  1.85E-04,  avg # of iterations =  1.0

     total cpu time spent up to now is      302.7 secs

     total energy              =   -4093.98360058 Ry
     estimated scf accuracy    <       0.62780282 Ry

     iteration # 38     ecut=    71.00 Ry     beta= 0.10
     Davidson diagonalization with overlap
     ethr =  1.85E-04,  avg # of iterations =  1.0

     total cpu time spent up to now is      309.6 secs

     total energy              =   -4093.98883333 Ry
     estimated scf accuracy    <       0.61030078 Ry

     iteration # 39     ecut=    71.00 Ry     beta= 0.10
     Davidson diagonalization with overlap
     ethr =  1.85E-04,  avg # of iterations =  1.0

     total cpu time spent up to now is      317.3 secs

     total energy              =   -4093.99204638 Ry
     estimated scf accuracy    <       0.52023063 Ry

     iteration # 40     ecut=    71.00 Ry     beta= 0.10
     Davidson diagonalization with overlap
     ethr =  1.85E-04,  avg # of iterations =  1.0

     total cpu time spent up to now is      324.1 secs

     total energy              =   -4093.99698216 Ry
     estimated scf accuracy    <       0.48146401 Ry

     iteration # 41     ecut=    71.00 Ry     beta= 0.10
     Davidson diagonalization with overlap
     ethr =  1.85E-04,  avg # of iterations =  1.1

     total cpu time spent up to now is      330.8 secs

     total energy              =   -4093.99653890 Ry
     estimated scf accuracy    <       0.40636766 Ry

     iteration # 42     ecut=    71.00 Ry     beta= 0.10
     Davidson diagonalization with overlap
     ethr =  1.85E-04,  avg # of iterations =  1.0

     total cpu time spent up to now is      338.0 secs

     total energy              =   -4093.99164680 Ry
     estimated scf accuracy    <       0.41246591 Ry

     iteration # 43     ecut=    71.00 Ry     beta= 0.10
     Davidson diagonalization with overlap
     ethr =  1.85E-04,  avg # of iterations =  1.0

     total cpu time spent up to now is      345.1 secs

     total energy              =   -4094.00210375 Ry
     estimated scf accuracy    <       0.50339304 Ry

     iteration # 44     ecut=    71.00 Ry     beta= 0.10
     Davidson diagonalization with overlap
     ethr =  1.85E-04,  avg # of iterations =  1.0

     total cpu time spent up to now is      351.8 secs

     total energy              =   -4093.99572595 Ry
     estimated scf accuracy    <       0.34374138 Ry

     iteration # 45     ecut=    71.00 Ry     beta= 0.10
     Davidson diagonalization with overlap
     ethr =  1.85E-04,  avg # of iterations =  1.0

     total cpu time spent up to now is      358.5 secs

     total energy              =   -4093.99882020 Ry
     estimated scf accuracy    <       0.43756098 Ry

     iteration # 46     ecut=    71.00 Ry     beta= 0.10
     Davidson diagonalization with overlap
     ethr =  1.85E-04,  avg # of iterations =  1.0

     total cpu time spent up to now is      365.7 secs

     total energy              =   -4094.02528892 Ry
     estimated scf accuracy    <       0.37996910 Ry

     iteration # 47     ecut=    71.00 Ry     beta= 0.10
     Davidson diagonalization with overlap
     ethr =  1.85E-04,  avg # of iterations =  1.0

     total cpu time spent up to now is      373.1 secs

     total energy              =   -4094.00795486 Ry
     estimated scf accuracy    <       0.25321430 Ry

     iteration # 48     ecut=    71.00 Ry     beta= 0.10
     Davidson diagonalization with overlap
     ethr =  1.76E-04,  avg # of iterations =  1.0

     total cpu time spent up to now is      380.5 secs

     total energy              =   -4094.00570413 Ry
     estimated scf accuracy    <       0.27329775 Ry

     iteration # 49     ecut=    71.00 Ry     beta= 0.10
     Davidson diagonalization with overlap
     ethr =  1.76E-04,  avg # of iterations =  1.0

     total cpu time spent up to now is      387.7 secs

     total energy              =   -4094.04199978 Ry
     estimated scf accuracy    <       0.29436143 Ry

     iteration # 50     ecut=    71.00 Ry     beta= 0.10
     Davidson diagonalization with overlap
     ethr =  1.76E-04,  avg # of iterations =  1.4

     total cpu time spent up to now is      395.1 secs

     total energy              =   -4094.01232802 Ry
     estimated scf accuracy    <       0.35434291 Ry

     iteration # 51     ecut=    71.00 Ry     beta= 0.10
     Davidson diagonalization with overlap
     ethr =  1.76E-04,  avg # of iterations =  1.0

     total cpu time spent up to now is      402.3 secs

     total energy              =   -4094.00050793 Ry
     estimated scf accuracy    <       0.25772246 Ry

     iteration # 52     ecut=    71.00 Ry     beta= 0.10
     Davidson diagonalization with overlap
     ethr =  1.76E-04,  avg # of iterations =  1.0

     total cpu time spent up to now is      408.7 secs

     total energy              =   -4093.99441882 Ry
     estimated scf accuracy    <       0.38777945 Ry

     iteration # 53     ecut=    71.00 Ry     beta= 0.10
     Davidson diagonalization with overlap
     ethr =  1.76E-04,  avg # of iterations =  1.0

     total cpu time spent up to now is      417.0 secs

     total energy              =   -4093.96470245 Ry
     estimated scf accuracy    <       0.45686681 Ry

     iteration # 54     ecut=    71.00 Ry     beta= 0.10
     Davidson diagonalization with overlap
     ethr =  1.76E-04,  avg # of iterations =  1.0

     total cpu time spent up to now is      425.3 secs

     total energy              =   -4093.94894033 Ry
     estimated scf accuracy    <       0.30856179 Ry

     iteration # 55     ecut=    71.00 Ry     beta= 0.10
     Davidson diagonalization with overlap
     ethr =  1.76E-04,  avg # of iterations =  1.0

     total cpu time spent up to now is      432.4 secs

     total energy              =   -4093.94835721 Ry
     estimated scf accuracy    <       0.10883501 Ry

     iteration # 56     ecut=    71.00 Ry     beta= 0.10
     Davidson diagonalization with overlap
     ethr =  7.56E-05,  avg # of iterations =  1.8

     total cpu time spent up to now is      439.9 secs

     total energy              =   -4093.96921040 Ry
     estimated scf accuracy    <       0.49290637 Ry

     iteration # 57     ecut=    71.00 Ry     beta= 0.10
     Davidson diagonalization with overlap
     ethr =  7.56E-05,  avg # of iterations =  1.0

     total cpu time spent up to now is      446.6 secs

     total energy              =   -4093.96565714 Ry
     estimated scf accuracy    <       0.61659939 Ry

     iteration # 58     ecut=    71.00 Ry     beta= 0.10
     Davidson diagonalization with overlap
     ethr =  7.56E-05,  avg # of iterations =  1.0

     total cpu time spent up to now is      453.0 secs

     total energy              =   -4093.97067877 Ry
     estimated scf accuracy    <       0.53130618 Ry

     iteration # 59     ecut=    71.00 Ry     beta= 0.10
     Davidson diagonalization with overlap
     ethr =  7.56E-05,  avg # of iterations =  1.0

     total cpu time spent up to now is      460.2 secs

     total energy              =   -4093.97030688 Ry
     estimated scf accuracy    <       0.64188688 Ry

     iteration # 60     ecut=    71.00 Ry     beta= 0.10
     Davidson diagonalization with overlap
     ethr =  7.56E-05,  avg # of iterations =  1.0

     total cpu time spent up to now is      466.8 secs

     total energy              =   -4093.97201073 Ry
     estimated scf accuracy    <       0.63355343 Ry

     iteration # 61     ecut=    71.00 Ry     beta= 0.10
     Davidson diagonalization with overlap
     ethr =  7.56E-05,  avg # of iterations =  1.0

     total cpu time spent up to now is      473.5 secs

     total energy              =   -4093.98213874 Ry
     estimated scf accuracy    <       0.65589199 Ry

     iteration # 62     ecut=    71.00 Ry     beta= 0.10
     Davidson diagonalization with overlap
     ethr =  7.56E-05,  avg # of iterations =  1.0

     total cpu time spent up to now is      480.6 secs

     total energy              =   -4093.98188818 Ry
     estimated scf accuracy    <       0.64086206 Ry

     iteration # 63     ecut=    71.00 Ry     beta= 0.10
     Davidson diagonalization with overlap
     ethr =  7.56E-05,  avg # of iterations =  1.0

     total cpu time spent up to now is      487.0 secs

     total energy              =   -4093.96785000 Ry
     estimated scf accuracy    <       0.64651303 Ry

     iteration # 64     ecut=    71.00 Ry     beta= 0.10
     Davidson diagonalization with overlap
     ethr =  7.56E-05,  avg # of iterations =  1.0

     total cpu time spent up to now is      493.9 secs

     total energy              =   -4093.97189861 Ry
     estimated scf accuracy    <       0.58545879 Ry

     iteration # 65     ecut=    71.00 Ry     beta= 0.10
     Davidson diagonalization with overlap
     ethr =  7.56E-05,  avg # of iterations =  1.0

     total cpu time spent up to now is      501.9 secs

     total energy              =   -4093.98793541 Ry
     estimated scf accuracy    <       0.65500287 Ry

     iteration # 66     ecut=    71.00 Ry     beta= 0.10
     Davidson diagonalization with overlap
     ethr =  7.56E-05,  avg # of iterations =  1.0

     total cpu time spent up to now is      508.7 secs

     total energy              =   -4093.94062793 Ry
     estimated scf accuracy    <       0.56778974 Ry

     iteration # 67     ecut=    71.00 Ry     beta= 0.10
     Davidson diagonalization with overlap
     ethr =  7.56E-05,  avg # of iterations =  2.0

     total cpu time spent up to now is      517.1 secs

     total energy              =   -4093.92568672 Ry
     estimated scf accuracy    <       0.54664922 Ry

     iteration # 68     ecut=    71.00 Ry     beta= 0.10
     Davidson diagonalization with overlap
     ethr =  7.56E-05,  avg # of iterations =  1.0

     total cpu time spent up to now is      524.5 secs

     total energy              =   -4093.97640642 Ry
     estimated scf accuracy    <       0.67432550 Ry

     iteration # 69     ecut=    71.00 Ry     beta= 0.10
     Davidson diagonalization with overlap
     ethr =  7.56E-05,  avg # of iterations =  1.0

     total cpu time spent up to now is      531.8 secs

     total energy              =   -4093.98031612 Ry
     estimated scf accuracy    <       0.67541656 Ry

     iteration # 70     ecut=    71.00 Ry     beta= 0.10
     Davidson diagonalization with overlap
     ethr =  7.56E-05,  avg # of iterations =  1.0

     total cpu time spent up to now is      539.1 secs

     total energy              =   -4093.98905851 Ry
     estimated scf accuracy    <       0.66067174 Ry

     iteration # 71     ecut=    71.00 Ry     beta= 0.10
     Davidson diagonalization with overlap
     ethr =  7.56E-05,  avg # of iterations =  1.0

     total cpu time spent up to now is      546.0 secs

     total energy              =   -4093.97718053 Ry
     estimated scf accuracy    <       0.54975560 Ry

     iteration # 72     ecut=    71.00 Ry     beta= 0.10
     Davidson diagonalization with overlap
     ethr =  7.56E-05,  avg # of iterations =  1.0

     total cpu time spent up to now is      553.1 secs

     total energy              =   -4093.99318309 Ry
     estimated scf accuracy    <       0.67635479 Ry

     iteration # 73     ecut=    71.00 Ry     beta= 0.10
     Davidson diagonalization with overlap
     ethr =  7.56E-05,  avg # of iterations =  1.0

     total cpu time spent up to now is      560.5 secs

     total energy              =   -4093.99327231 Ry
     estimated scf accuracy    <       0.49139676 Ry

     iteration # 74     ecut=    71.00 Ry     beta= 0.10
     Davidson diagonalization with overlap
     ethr =  7.56E-05,  avg # of iterations =  1.0

     total cpu time spent up to now is      567.0 secs

     total energy              =   -4093.99425821 Ry
     estimated scf accuracy    <       0.47190552 Ry

     iteration # 75     ecut=    71.00 Ry     beta= 0.10
     Davidson diagonalization with overlap
     ethr =  7.56E-05,  avg # of iterations =  1.0

     total cpu time spent up to now is      573.7 secs

     total energy              =   -4093.99010994 Ry
     estimated scf accuracy    <       0.45598154 Ry

     iteration # 76     ecut=    71.00 Ry     beta= 0.10
     Davidson diagonalization with overlap
     ethr =  7.56E-05,  avg # of iterations =  1.0

     total cpu time spent up to now is      580.6 secs

     total energy              =   -4093.99067686 Ry
     estimated scf accuracy    <       0.53174359 Ry

     iteration # 77     ecut=    71.00 Ry     beta= 0.10
     Davidson diagonalization with overlap
     ethr =  7.56E-05,  avg # of iterations =  1.0

     total cpu time spent up to now is      587.4 secs

     total energy              =   -4094.00612636 Ry
     estimated scf accuracy    <       0.51677332 Ry

     iteration # 78     ecut=    71.00 Ry     beta= 0.10
     Davidson diagonalization with overlap
     ethr =  7.56E-05,  avg # of iterations =  1.0

     total cpu time spent up to now is      594.3 secs

     total energy              =   -4094.04369141 Ry
     estimated scf accuracy    <       0.30982112 Ry

     iteration # 79     ecut=    71.00 Ry     beta= 0.10
     Davidson diagonalization with overlap
     ethr =  7.56E-05,  avg # of iterations =  2.6

     total cpu time spent up to now is      603.6 secs

     total energy              =   -4094.03155107 Ry
     estimated scf accuracy    <       0.36905085 Ry

     iteration # 80     ecut=    71.00 Ry     beta= 0.10
     Davidson diagonalization with overlap
     ethr =  7.56E-05,  avg # of iterations =  1.0

     total cpu time spent up to now is      610.4 secs

     total energy              =   -4094.03569720 Ry
     estimated scf accuracy    <       0.31714528 Ry

     iteration # 81     ecut=    71.00 Ry     beta= 0.10
     Davidson diagonalization with overlap
     ethr =  7.56E-05,  avg # of iterations =  1.0

     total cpu time spent up to now is      617.8 secs

     total energy              =   -4094.02946460 Ry
     estimated scf accuracy    <       0.33804279 Ry

     iteration # 82     ecut=    71.00 Ry     beta= 0.10
     Davidson diagonalization with overlap
     ethr =  7.56E-05,  avg # of iterations =  1.0

     total cpu time spent up to now is      624.3 secs

     total energy              =   -4094.03602356 Ry
     estimated scf accuracy    <       0.30255601 Ry

     iteration # 83     ecut=    71.00 Ry     beta= 0.10
     Davidson diagonalization with overlap
     ethr =  7.56E-05,  avg # of iterations =  1.0

     total cpu time spent up to now is      630.8 secs

     total energy              =   -4094.02376052 Ry
     estimated scf accuracy    <       0.33836650 Ry

     iteration # 84     ecut=    71.00 Ry     beta= 0.10
     Davidson diagonalization with overlap
     ethr =  7.56E-05,  avg # of iterations =  1.0

     total cpu time spent up to now is      637.6 secs

     total energy              =   -4094.01261761 Ry
     estimated scf accuracy    <       0.27637359 Ry

     iteration # 85     ecut=    71.00 Ry     beta= 0.10
     Davidson diagonalization with overlap
     ethr =  7.56E-05,  avg # of iterations =  1.0

     total cpu time spent up to now is      644.5 secs

     total energy              =   -4094.01682650 Ry
     estimated scf accuracy    <       0.26198613 Ry

     iteration # 86     ecut=    71.00 Ry     beta= 0.10
     Davidson diagonalization with overlap
     ethr =  7.56E-05,  avg # of iterations =  1.0

     total cpu time spent up to now is      651.3 secs

     total energy              =   -4094.02031965 Ry
     estimated scf accuracy    <       0.25342320 Ry

     iteration # 87     ecut=    71.00 Ry     beta= 0.10
     Davidson diagonalization with overlap
     ethr =  7.56E-05,  avg # of iterations =  1.0

     total cpu time spent up to now is      659.8 secs

     total energy              =   -4094.01410440 Ry
     estimated scf accuracy    <       0.25801352 Ry

     iteration # 88     ecut=    71.00 Ry     beta= 0.10
     Davidson diagonalization with overlap
     ethr =  7.56E-05,  avg # of iterations =  1.0

     total cpu time spent up to now is      666.7 secs

     total energy              =   -4093.99009251 Ry
     estimated scf accuracy    <       0.25770236 Ry

     iteration # 89     ecut=    71.00 Ry     beta= 0.10
     Davidson diagonalization with overlap
     ethr =  7.56E-05,  avg # of iterations =  2.0

     total cpu time spent up to now is      674.6 secs

     total energy              =   -4094.04819992 Ry
     estimated scf accuracy    <       0.66238982 Ry

     iteration # 90     ecut=    71.00 Ry     beta= 0.10
     Davidson diagonalization with overlap
     ethr =  7.56E-05,  avg # of iterations =  2.0

     total cpu time spent up to now is      682.5 secs

     total energy              =   -4094.02751581 Ry
     estimated scf accuracy    <       0.29621560 Ry

     iteration # 91     ecut=    71.00 Ry     beta= 0.10
     Davidson diagonalization with overlap
     ethr =  7.56E-05,  avg # of iterations =  1.0

     total cpu time spent up to now is      689.0 secs

     total energy              =   -4094.04961722 Ry
     estimated scf accuracy    <       0.29293231 Ry

     iteration # 92     ecut=    71.00 Ry     beta= 0.10
     Davidson diagonalization with overlap
     ethr =  7.56E-05,  avg # of iterations =  2.0

     total cpu time spent up to now is      696.3 secs

     total energy              =   -4093.99588964 Ry
     estimated scf accuracy    <       0.44228246 Ry

     iteration # 93     ecut=    71.00 Ry     beta= 0.10
     Davidson diagonalization with overlap
     ethr =  7.56E-05,  avg # of iterations =  2.0

     total cpu time spent up to now is      703.8 secs

     total energy              =   -4094.02306997 Ry
     estimated scf accuracy    <       0.34770659 Ry

     iteration # 94     ecut=    71.00 Ry     beta= 0.10
     Davidson diagonalization with overlap
     ethr =  7.56E-05,  avg # of iterations =  1.0

     total cpu time spent up to now is      710.8 secs

     total energy              =   -4094.02931252 Ry
     estimated scf accuracy    <       0.25807321 Ry

     iteration # 95     ecut=    71.00 Ry     beta= 0.10
     Davidson diagonalization with overlap
     ethr =  7.56E-05,  avg # of iterations =  1.0

     total cpu time spent up to now is      718.0 secs

     total energy              =   -4094.04447172 Ry
     estimated scf accuracy    <       0.29591837 Ry

     iteration # 96     ecut=    71.00 Ry     beta= 0.10
     Davidson diagonalization with overlap
     ethr =  7.56E-05,  avg # of iterations =  1.0

     total cpu time spent up to now is      724.5 secs

     total energy              =   -4094.04365969 Ry
     estimated scf accuracy    <       0.38606008 Ry

     iteration # 97     ecut=    71.00 Ry     beta= 0.10
     Davidson diagonalization with overlap
     ethr =  7.56E-05,  avg # of iterations =  1.0

     total cpu time spent up to now is      731.3 secs

     total energy              =   -4094.04504512 Ry
     estimated scf accuracy    <       0.37584208 Ry

     iteration # 98     ecut=    71.00 Ry     beta= 0.10
     Davidson diagonalization with overlap
     ethr =  7.56E-05,  avg # of iterations =  1.0

     total cpu time spent up to now is      738.8 secs

     total energy              =   -4094.03961441 Ry
     estimated scf accuracy    <       0.38620537 Ry

     iteration # 99     ecut=    71.00 Ry     beta= 0.10
     Davidson diagonalization with overlap
     ethr =  7.56E-05,  avg # of iterations =  1.0

     total cpu time spent up to now is      745.5 secs

     total energy              =   -4094.03456190 Ry
     estimated scf accuracy    <       0.35368319 Ry

     iteration #100     ecut=    71.00 Ry     beta= 0.10
     Davidson diagonalization with overlap
     ethr =  7.56E-05,  avg # of iterations =  1.0

     total cpu time spent up to now is      752.0 secs

     total energy              =   -4093.98593001 Ry
     estimated scf accuracy    <       0.32315202 Ry

     End of self-consistent calculation

     convergence NOT achieved after 100 iterations: stopping

     Writing output data file /scratch/VOlHyucRwRTGzViR.save/
 
     init_run     :      3.50s CPU      3.69s WALL (       1 calls)
     electrons    :    733.46s CPU    745.75s WALL (       1 calls)

     Called by init_run:
     wfcinit      :      2.42s CPU      2.52s WALL (       1 calls)
     potinit      :      0.11s CPU      0.13s WALL (       1 calls)
     hinit0       :      0.37s CPU      0.37s WALL (       1 calls)

     Called by electrons:
     c_bands      :    601.81s CPU    609.18s WALL (     100 calls)
     sum_band     :    119.25s CPU    122.16s WALL (     100 calls)
     v_of_rho     :      2.30s CPU      2.35s WALL (     101 calls)
     newd         :      3.55s CPU      4.79s WALL (     101 calls)
     PAW_pot      :      5.05s CPU      5.73s WALL (     101 calls)
     mix_rho      :      0.82s CPU      0.86s WALL (     100 calls)

     Called by c_bands:
     init_us_2    :      5.23s CPU      5.44s WALL (    7035 calls)
     cegterg      :    578.66s CPU    585.51s WALL (    3500 calls)

     Called by *egterg:
     cdiaghg      :     39.76s CPU     40.01s WALL (    7994 calls)
     h_psi        :    418.78s CPU    424.34s WALL (    8029 calls)
     s_psi        :     10.33s CPU     10.43s WALL (    8029 calls)
     g_psi        :      0.99s CPU      1.00s WALL (    4494 calls)

     Called by h_psi:
     h_psi:calbec :     21.58s CPU     21.75s WALL (    8029 calls)
     vloc_psi     :    383.23s CPU    388.50s WALL (    8029 calls)
     add_vuspsi   :     11.19s CPU     11.29s WALL (    8029 calls)

     General routines
     calbec       :     31.34s CPU     31.58s WALL (   11529 calls)
     fft          :      2.10s CPU      2.13s WALL (    1313 calls)
     ffts         :      0.37s CPU      0.38s WALL (     201 calls)
     fftw         :    460.91s CPU    467.04s WALL ( 1539748 calls)
     interpolate  :      0.44s CPU      0.45s WALL (     101 calls)
     davcio       :      0.00s CPU      0.04s WALL (      57 calls)
 
     Parallel routines
     fft_scatt_xy :     45.04s CPU     45.61s WALL ( 1541262 calls)
     fft_scatt_yz :    357.49s CPU    362.26s WALL ( 1541262 calls)
 
     PWSCF        :  12m19.39s CPU  12m32.14s WALL

 
   This run was terminated on:   4:27:44  30Nov2021            

=------------------------------------------------------------------------------=
   JOB DONE.
=------------------------------------------------------------------------------=
