
     Program PWSCF v.6.7MaX starts on 30Nov2021 at  3:47:40 

     This program is part of the open-source Quantum ESPRESSO suite
     for quantum simulation of materials; please cite
         "P. Giannozzi et al., J. Phys.:Condens. Matter 21 395502 (2009);
         "P. Giannozzi et al., J. Phys.:Condens. Matter 29 465901 (2017);
          URL http://www.quantum-espresso.org", 
     in publications or presentations arising from this work. More details at
     http://www.quantum-espresso.org/quote

     Parallel version (MPI & OpenMP), running on      72 processor cores
     Number of MPI processes:                72
     Threads/MPI process:                     1

     MPI processes distributed on     1 nodes
     R & G space division:  proc/nbgrp/npool/nimage =      72
     Reading input from sc_11.in
Warning: card &CELL ignored
Warning: card CELL_DYNAMICS = 'BFGS', ignored
Warning: card CELL_FACTOR = 2.0, ignored
Warning: card PRESS = 0.0, ignored
Warning: card / ignored

     Current dimensions of program PWSCF are:
     Max number of different atomic species (ntypx) = 10
     Max number of k-points (npk) =  40000
     Max angular momentum in pseudopotentials (lmaxx) =  3
     file Pd.pbe-spn-kjpaw_psl.1.0.0.UPF: wavefunction(s)  4S 5S 4D renormalized

     Subspace diagonalization in iterative solution of the eigenvalue problem:
     one sub-group per band group will be used
     ELPA distributed-memory algorithm (size of sub-group:  8*  8 procs)

     Found symmetry operation: I + (  0.0000  0.0000 -0.5000)
     This is a supercell, fractional translations are disabled
     Message from routine setup:
     using ibrav=0 with symmetry is DISCOURAGED, use correct ibrav instead
 
     Parallelization info
     --------------------
     sticks:   dense  smooth     PW     G-vecs:    dense   smooth      PW
     Min          77      51     13                 4349     2339     333
     Max          78      52     14                 4354     2342     340
     Sum        5581    3705   1005               313273   168573   24303
 


     bravais-lattice index     =            0
     lattice parameter (alat)  =       9.0720  a.u.
     unit-cell volume          =    2083.6256 (a.u.)^3
     number of atoms/cell      =            8
     number of atomic types    =            1
     number of electrons       =       144.00
     number of Kohn-Sham states=           86
     kinetic-energy cutoff     =      71.0000  Ry
     charge density cutoff     =     430.0000  Ry
     scf convergence threshold =      1.0E-06
     mixing beta               =       0.1000
     number of iterations used =           10  TF        mixing
     Exchange-correlation= SLA  PW   PBX  PBC
                           (   1   4   3   4   0   0   0)

     celldm(1)=   9.072000  celldm(2)=   0.000000  celldm(3)=   0.000000
     celldm(4)=   0.000000  celldm(5)=   0.000000  celldm(6)=   0.000000

     crystal axes: (cart. coord. in units of alat)
               a(1) = (   1.407895   0.000000   0.000000 )  
               a(2) = (   0.000000   1.407895   0.000000 )  
               a(3) = (   0.000000   0.000000   1.407895 )  

     reciprocal axes: (cart. coord. in units 2 pi/alat)
               b(1) = (  0.710280  0.000000  0.000000 )  
               b(2) = (  0.000000  0.710280  0.000000 )  
               b(3) = (  0.000000  0.000000  0.710280 )  


     PseudoPot. # 1 for Pd read from file:
     /rds/homes/b/bxp912/pp/Pd.pbe-spn-kjpaw_psl.1.0.0.UPF
     MD5 check sum: 790f2ebce206edfd9790dcb9844eca51
     Pseudo is Projector augmented-wave + core cor, Zval = 18.0
     Generated using &quot;atomic&quot; code by A. Dal Corso  v.6.3
     Shape of augmentation charge: PSQ
     Using radial grid of 1235 points,  6 beta functions with: 
                l(1) =   0
                l(2) =   0
                l(3) =   1
                l(4) =   1
                l(5) =   2
                l(6) =   2
     Q(r) pseudized with 0 coefficients 


     atomic species   valence    mass     pseudopotential
        Pd            18.00   106.42000     Pd( 1.00)

     48 Sym. Ops., with inversion, found



   Cartesian axes

     site n.     atom                  positions (alat units)
         1           Pd  tau(   1) = (   0.0000000   0.0000000   0.0000000  )
         2           Pd  tau(   2) = (   0.0000000   0.0000000   0.7039474  )
         3           Pd  tau(   3) = (   0.0000000   0.7039474   0.0000000  )
         4           Pd  tau(   4) = (   0.0000000   0.7039474   0.7039474  )
         5           Pd  tau(   5) = (   0.7039474   0.0000000   0.0000000  )
         6           Pd  tau(   6) = (   0.7039474   0.0000000   0.7039474  )
         7           Pd  tau(   7) = (   0.7039474   0.7039474   0.0000000  )
         8           Pd  tau(   8) = (   0.7039474   0.7039474   0.7039474  )

     number of k points=    35  Marzari-Vanderbilt smearing, width (Ry)=  0.0400
                       cart. coord. in units 2pi/alat
        k(    1) = (   0.0394600   0.0394600   0.0394600), wk =   0.0219479
        k(    2) = (   0.0394600   0.0394600   0.1183801), wk =   0.0658436
        k(    3) = (   0.0394600   0.0394600   0.1973001), wk =   0.0658436
        k(    4) = (   0.0394600   0.0394600   0.2762201), wk =   0.0658436
        k(    5) = (   0.0394600   0.0394600  -0.3551402), wk =   0.0329218
        k(    6) = (   0.0394600   0.1183801   0.1183801), wk =   0.0658436
        k(    7) = (   0.0394600   0.1183801   0.1973001), wk =   0.1316872
        k(    8) = (   0.0394600   0.1183801   0.2762201), wk =   0.1316872
        k(    9) = (   0.0394600   0.1183801  -0.3551402), wk =   0.0658436
        k(   10) = (   0.0394600   0.1973001   0.1973001), wk =   0.0658436
        k(   11) = (   0.0394600   0.1973001   0.2762201), wk =   0.1316872
        k(   12) = (   0.0394600   0.1973001  -0.3551402), wk =   0.0658436
        k(   13) = (   0.0394600   0.2762201   0.2762201), wk =   0.0658436
        k(   14) = (   0.0394600   0.2762201  -0.3551402), wk =   0.0658436
        k(   15) = (   0.0394600  -0.3551402  -0.3551402), wk =   0.0164609
        k(   16) = (   0.1183801   0.1183801   0.1183801), wk =   0.0219479
        k(   17) = (   0.1183801   0.1183801   0.1973001), wk =   0.0658436
        k(   18) = (   0.1183801   0.1183801   0.2762201), wk =   0.0658436
        k(   19) = (   0.1183801   0.1183801  -0.3551402), wk =   0.0329218
        k(   20) = (   0.1183801   0.1973001   0.1973001), wk =   0.0658436
        k(   21) = (   0.1183801   0.1973001   0.2762201), wk =   0.1316872
        k(   22) = (   0.1183801   0.1973001  -0.3551402), wk =   0.0658436
        k(   23) = (   0.1183801   0.2762201   0.2762201), wk =   0.0658436
        k(   24) = (   0.1183801   0.2762201  -0.3551402), wk =   0.0658436
        k(   25) = (   0.1183801  -0.3551402  -0.3551402), wk =   0.0164609
        k(   26) = (   0.1973001   0.1973001   0.1973001), wk =   0.0219479
        k(   27) = (   0.1973001   0.1973001   0.2762201), wk =   0.0658436
        k(   28) = (   0.1973001   0.1973001  -0.3551402), wk =   0.0329218
        k(   29) = (   0.1973001   0.2762201   0.2762201), wk =   0.0658436
        k(   30) = (   0.1973001   0.2762201  -0.3551402), wk =   0.0658436
        k(   31) = (   0.1973001  -0.3551402  -0.3551402), wk =   0.0164609
        k(   32) = (   0.2762201   0.2762201   0.2762201), wk =   0.0219479
        k(   33) = (   0.2762201   0.2762201  -0.3551402), wk =   0.0329218
        k(   34) = (   0.2762201  -0.3551402  -0.3551402), wk =   0.0164609
        k(   35) = (  -0.3551402  -0.3551402  -0.3551402), wk =   0.0027435

     Dense  grid:   313273 G-vectors     FFT dimensions: (  90,  90,  90)

     Smooth grid:   168573 G-vectors     FFT dimensions: (  72,  72,  72)

     Estimated max dynamical RAM per process >      33.15 MB

     Estimated total dynamical RAM >       2.33 GB

     Initial potential from superposition of free atoms

     starting charge  143.99694, renormalised to  144.00000
     Starting wfcs are   80 randomized atomic wfcs +    6 random wfcs
     Checking if some PAW data can be deallocated... 

     total cpu time spent up to now is        4.6 secs

     Self-consistent Calculation

     iteration #  1     ecut=    71.00 Ry     beta= 0.10
     Davidson diagonalization with overlap
     ethr =  1.00E-02,  avg # of iterations =  4.0

     total cpu time spent up to now is        9.9 secs

     total energy              =   -4095.38649240 Ry
     estimated scf accuracy    <       4.14655277 Ry

     iteration #  2     ecut=    71.00 Ry     beta= 0.10
     Davidson diagonalization with overlap
     ethr =  2.88E-03,  avg # of iterations =  1.0

     total cpu time spent up to now is       13.9 secs

     total energy              =   -4094.47250126 Ry
     estimated scf accuracy    <       2.65272713 Ry

     iteration #  3     ecut=    71.00 Ry     beta= 0.10
     Davidson diagonalization with overlap
     ethr =  1.84E-03,  avg # of iterations =  2.1

     total cpu time spent up to now is       18.9 secs

     total energy              =   -4094.89749823 Ry
     estimated scf accuracy    <       0.09519191 Ry

     iteration #  4     ecut=    71.00 Ry     beta= 0.10
     Davidson diagonalization with overlap
     ethr =  6.61E-05,  avg # of iterations =  2.7

     total cpu time spent up to now is       23.4 secs

     total energy              =   -4094.86905673 Ry
     estimated scf accuracy    <       0.07468334 Ry

     iteration #  5     ecut=    71.00 Ry     beta= 0.10
     Davidson diagonalization with overlap
     ethr =  5.19E-05,  avg # of iterations =  2.1

     total cpu time spent up to now is       29.4 secs

     total energy              =   -4094.86505554 Ry
     estimated scf accuracy    <       0.06598480 Ry

     iteration #  6     ecut=    71.00 Ry     beta= 0.10
     Davidson diagonalization with overlap
     ethr =  4.58E-05,  avg # of iterations =  1.2

     total cpu time spent up to now is       33.8 secs

     total energy              =   -4094.87025856 Ry
     estimated scf accuracy    <       0.02005409 Ry

     iteration #  7     ecut=    71.00 Ry     beta= 0.10
     Davidson diagonalization with overlap
     ethr =  1.39E-05,  avg # of iterations =  1.5

     total cpu time spent up to now is       37.9 secs

     total energy              =   -4094.85433523 Ry
     estimated scf accuracy    <       0.03335084 Ry

     iteration #  8     ecut=    71.00 Ry     beta= 0.10
     Davidson diagonalization with overlap
     ethr =  1.39E-05,  avg # of iterations =  2.3

     total cpu time spent up to now is       45.0 secs

     total energy              =   -4094.86916250 Ry
     estimated scf accuracy    <       0.05246990 Ry

     iteration #  9     ecut=    71.00 Ry     beta= 0.10
     Davidson diagonalization with overlap
     ethr =  1.39E-05,  avg # of iterations =  1.0

     total cpu time spent up to now is       49.6 secs

     total energy              =   -4094.87102990 Ry
     estimated scf accuracy    <       0.02035551 Ry

     iteration # 10     ecut=    71.00 Ry     beta= 0.10
     Davidson diagonalization with overlap
     ethr =  1.39E-05,  avg # of iterations =  1.0

     total cpu time spent up to now is       54.7 secs

     total energy              =   -4094.86051873 Ry
     estimated scf accuracy    <       0.02196950 Ry

     iteration # 11     ecut=    71.00 Ry     beta= 0.10
     Davidson diagonalization with overlap
     ethr =  1.39E-05,  avg # of iterations =  2.1

     total cpu time spent up to now is       60.5 secs

     total energy              =   -4094.86800111 Ry
     estimated scf accuracy    <       0.00555572 Ry

     iteration # 12     ecut=    71.00 Ry     beta= 0.10
     Davidson diagonalization with overlap
     ethr =  3.86E-06,  avg # of iterations =  1.5

     total cpu time spent up to now is       65.9 secs

     total energy              =   -4094.86764694 Ry
     estimated scf accuracy    <       0.00378815 Ry

     iteration # 13     ecut=    71.00 Ry     beta= 0.10
     Davidson diagonalization with overlap
     ethr =  2.63E-06,  avg # of iterations =  1.0

     total cpu time spent up to now is       71.1 secs

     total energy              =   -4094.86749338 Ry
     estimated scf accuracy    <       0.00197941 Ry

     iteration # 14     ecut=    71.00 Ry     beta= 0.10
     Davidson diagonalization with overlap
     ethr =  1.37E-06,  avg # of iterations =  1.2

     total cpu time spent up to now is       75.4 secs

     total energy              =   -4094.86727646 Ry
     estimated scf accuracy    <       0.00063429 Ry

     iteration # 15     ecut=    71.00 Ry     beta= 0.10
     Davidson diagonalization with overlap
     ethr =  4.40E-07,  avg # of iterations =  2.0

     total cpu time spent up to now is       81.1 secs

     total energy              =   -4094.86739697 Ry
     estimated scf accuracy    <       0.00013349 Ry

     iteration # 16     ecut=    71.00 Ry     beta= 0.10
     Davidson diagonalization with overlap
     ethr =  9.27E-08,  avg # of iterations =  2.0

     total cpu time spent up to now is       86.9 secs

     total energy              =   -4094.86740393 Ry
     estimated scf accuracy    <       0.00030203 Ry

     iteration # 17     ecut=    71.00 Ry     beta= 0.10
     Davidson diagonalization with overlap
     ethr =  9.27E-08,  avg # of iterations =  2.0

     total cpu time spent up to now is       93.1 secs

     total energy              =   -4094.86747828 Ry
     estimated scf accuracy    <       0.00002013 Ry

     iteration # 18     ecut=    71.00 Ry     beta= 0.10
     Davidson diagonalization with overlap
     ethr =  1.40E-08,  avg # of iterations =  1.0

     total cpu time spent up to now is       97.2 secs

     total energy              =   -4094.86747753 Ry
     estimated scf accuracy    <       0.00000736 Ry

     iteration # 19     ecut=    71.00 Ry     beta= 0.10
     Davidson diagonalization with overlap
     ethr =  5.11E-09,  avg # of iterations =  2.2

     total cpu time spent up to now is      103.1 secs

     End of self-consistent calculation

          k = 0.0395 0.0395 0.0395 ( 21031 PWs)   bands (ev):

   -78.4369 -78.4361 -78.4361 -78.4361 -78.4353 -78.4353 -78.4353 -78.4345
   -44.2066 -44.2066 -44.2066 -44.2053 -44.2053 -44.2053 -44.2052 -44.2051
   -44.2051 -44.2036 -44.2036 -44.2034 -44.1881 -44.1880 -44.1880 -44.1870
   -44.1870 -44.1870 -44.1869 -44.1869 -44.1868 -44.1858 -44.1858 -44.1858
     1.8869   2.6831   2.6831   2.7674   2.7674   2.7674   2.8049   2.8049
     2.8050   2.8054   2.8055   2.8055   2.9667   2.9667   2.9669   2.9675
     2.9729   2.9729   3.5511   3.5512   3.5512   3.5591   3.5591   3.5592
     3.6231   3.6232   3.6232   3.6238   3.6238   3.6239   3.9440   3.9452
     3.9452   3.9796   3.9796   3.9796   4.2403   4.2404   4.2404   4.2670
     4.2670   5.7431   5.7431   5.7431   6.5945   6.5945   6.5945   8.2480
     8.2480   8.2480   8.7529   8.7529   8.7529   9.4749

          k = 0.0395 0.0395 0.1184 ( 21048 PWs)   bands (ev):

   -78.4369 -78.4362 -78.4361 -78.4361 -78.4354 -78.4354 -78.4353 -78.4346
   -44.2066 -44.2066 -44.2056 -44.2053 -44.2053 -44.2051 -44.2051 -44.2041
   -44.2040 -44.2036 -44.2036 -44.2024 -44.1893 -44.1882 -44.1881 -44.1880
   -44.1880 -44.1871 -44.1871 -44.1869 -44.1869 -44.1868 -44.1859 -44.1859
     1.9721   2.6903   2.7236   2.7750   2.7792   2.7979   2.8027   2.8027
     2.8148   2.8149   2.8866   2.8866   2.9568   2.9569   2.9573   3.0037
     3.0061   3.0371   3.4854   3.4854   3.5609   3.5610   3.5724   3.5756
     3.5763   3.5810   3.6193   3.6194   3.6438   3.6438   3.9197   3.9203
     3.9470   3.9570   3.9570   3.9775   4.1577   4.1578   4.1804   4.2422
     4.2656   4.9801   5.8188   5.8188   6.6852   6.6852   7.5196   7.6271
     7.6271   8.3401   8.6158   8.6158   8.8725   9.5462

          k = 0.0395 0.0395 0.1973 ( 21047 PWs)   bands (ev):

   -78.4368 -78.4363 -78.4360 -78.4360 -78.4355 -78.4355 -78.4352 -78.4347
   -44.2064 -44.2064 -44.2054 -44.2054 -44.2049 -44.2049 -44.2039 -44.2038
   -44.2035 -44.2020 -44.2019 -44.2006 -44.1914 -44.1903 -44.1901 -44.1888
   -44.1879 -44.1879 -44.1872 -44.1872 -44.1868 -44.1868 -44.1860 -44.1860
     2.1292   2.7039   2.7156   2.7838   2.8017   2.8151   2.8328   2.8329
     2.8717   2.8717   2.9338   2.9384   2.9385   3.0426   3.0426   3.0675
     3.0699   3.1717   3.3703   3.3703   3.4902   3.4908   3.5683   3.5684
     3.6109   3.6117   3.6119   3.6226   3.6819   3.6819   3.8743   3.8743
     3.9151   3.9151   3.9509   3.9735   3.9972   3.9973   4.0203   4.2456
     4.2628   4.3110   5.9516   5.9516   6.8692   6.8692   7.0882   7.0882
     8.2731   8.2731   8.5134   8.5174   9.1007   9.6923

          k = 0.0395 0.0395 0.2762 ( 21028 PWs)   bands (ev):

   -78.4367 -78.4364 -78.4359 -78.4359 -78.4356 -78.4356 -78.4351 -78.4348
   -44.2061 -44.2061 -44.2056 -44.2056 -44.2047 -44.2047 -44.2042 -44.2041
   -44.2007 -44.1992 -44.1991 -44.1978 -44.1943 -44.1930 -44.1928 -44.1915
   -44.1878 -44.1877 -44.1874 -44.1873 -44.1865 -44.1865 -44.1861 -44.1861
     2.3223   2.6254   2.7224   2.7649   2.8321   2.8572   2.8573   2.9024
     2.9131   2.9132   2.9712   2.9712   2.9867   3.1572   3.1596   3.2231
     3.2231   3.2694   3.2695   3.3519   3.3825   3.3887   3.5784   3.5785
     3.6015   3.6016   3.6301   3.6796   3.7276   3.7276   3.7805   3.7805
     3.7811   3.8108   3.8133   3.8148   3.8596   3.8596   3.9562   3.9683
     4.2498   4.2589   6.1289   6.1289   6.6701   6.6701   7.1419   7.1419
     7.8755   7.8755   8.7529   9.4058   9.4189   9.5815

          k = 0.0395 0.0395-0.3551 ( 21090 PWs)   bands (ev):

   -78.4365 -78.4365 -78.4357 -78.4357 -78.4357 -78.4357 -78.4349 -78.4349
   -44.2059 -44.2059 -44.2059 -44.2059 -44.2045 -44.2045 -44.2044 -44.2044
   -44.1977 -44.1977 -44.1961 -44.1961 -44.1959 -44.1959 -44.1948 -44.1948
   -44.1876 -44.1876 -44.1876 -44.1876 -44.1864 -44.1864 -44.1863 -44.1863
     2.4967   2.4967   2.7435   2.7435   2.8671   2.8671   2.8851   2.8851
     2.8852   2.8852   3.0938   3.0938   3.0938   3.0938   3.2648   3.2648
     3.2674   3.2674   3.2820   3.2820   3.5142   3.5142   3.5142   3.5142
     3.5813   3.5813   3.5899   3.5899   3.5900   3.5900   3.7456   3.7456
     3.7517   3.7517   3.7981   3.7981   3.7981   3.7981   3.9622   3.9622
     4.2544   4.2544   6.3598   6.3598   6.3598   6.3598   7.4861   7.4861
     7.4861   7.4861   9.0495   9.0495   9.8040   9.8040

          k = 0.0395 0.1184 0.1184 ( 21029 PWs)   bands (ev):

   -78.4368 -78.4361 -78.4361 -78.4360 -78.4354 -78.4353 -78.4353 -78.4346
   -44.2065 -44.2055 -44.2055 -44.2053 -44.2051 -44.2042 -44.2041 -44.2039
   -44.2039 -44.2037 -44.2027 -44.2025 -44.1893 -44.1891 -44.1882 -44.1882
   -44.1880 -44.1880 -44.1879 -44.1871 -44.1869 -44.1868 -44.1868 -44.1859
     2.0581   2.7151   2.7454   2.7990   2.7991   2.8142   2.8142   2.8364
     2.8650   2.8650   2.8694   2.9216   2.9470   2.9755   3.0074   3.0268
     3.0269   3.0373   3.4631   3.5064   3.5065   3.5230   3.5713   3.5713
     3.5826   3.5826   3.5968   3.5969   3.6369   3.6427   3.8953   3.9192
     3.9255   3.9336   3.9548   3.9548   4.0867   4.1401   4.1618   4.1619
     4.2194   5.0592   5.0593   5.8897   6.7799   7.0224   7.6080   7.6080
     7.7114   7.7114   8.7306   8.7306   9.0658   9.7599

          k = 0.0395 0.1184 0.1973 ( 21026 PWs)   bands (ev):

   -78.4368 -78.4362 -78.4360 -78.4359 -78.4355 -78.4354 -78.4352 -78.4347
   -44.2063 -44.2053 -44.2053 -44.2050 -44.2043 -44.2040 -44.2038 -44.2034
   -44.2028 -44.2021 -44.2019 -44.2007 -44.1913 -44.1903 -44.1900 -44.1890
   -44.1889 -44.1883 -44.1878 -44.1878 -44.1871 -44.1870 -44.1868 -44.1860
     2.2154   2.7358   2.7583   2.8187   2.8279   2.8337   2.8359   2.8824
     2.8997   2.9001   2.9307   2.9618   3.0079   3.0178   3.0617   3.0624
     3.0993   3.1602   3.3667   3.3947   3.4850   3.5135   3.5170   3.5406
     3.5627   3.5898   3.6238   3.6319   3.6347   3.6785   3.8502   3.8763
     3.8903   3.9126   3.9270   3.9452   3.9505   3.9991   4.0071   4.1685
     4.2001   4.3938   5.2026   6.0169   6.4605   6.9693   7.1657   7.7811
     7.8736   8.3841   8.6068   8.9501   9.0111   9.2287

          k = 0.0395 0.1184 0.2762 ( 21035 PWs)   bands (ev):

   -78.4366 -78.4364 -78.4359 -78.4358 -78.4356 -78.4355 -78.4351 -78.4348
   -44.2061 -44.2055 -44.2050 -44.2047 -44.2045 -44.2042 -44.2036 -44.2030
   -44.2007 -44.1993 -44.1991 -44.1980 -44.1942 -44.1930 -44.1928 -44.1916
   -44.1889 -44.1885 -44.1877 -44.1877 -44.1873 -44.1872 -44.1866 -44.1862
     2.4043   2.6824   2.7564   2.8053   2.8439   2.8653   2.9006   2.9261
     2.9328   2.9776   2.9851   2.9970   2.9986   3.1511   3.1862   3.1945
     3.2276   3.2800   3.2997   3.3333   3.3782   3.4182   3.5259   3.5417
     3.5512   3.5997   3.6221   3.6703   3.6794   3.7174   3.7543   3.7930
     3.7965   3.8079   3.8169   3.8338   3.8568   3.8780   3.9325   3.9458
     4.1761   4.1915   5.4010   6.0077   6.1920   6.7410   7.2462   7.9843
     8.0312   8.1062   8.6930   8.7778   9.2572   9.6724

          k = 0.0395 0.1184-0.3551 ( 21032 PWs)   bands (ev):

   -78.4365 -78.4365 -78.4358 -78.4358 -78.4357 -78.4357 -78.4350 -78.4350
   -44.2058 -44.2058 -44.2048 -44.2048 -44.2045 -44.2045 -44.2033 -44.2033
   -44.1975 -44.1975 -44.1962 -44.1962 -44.1959 -44.1959 -44.1948 -44.1948
   -44.1886 -44.1886 -44.1875 -44.1875 -44.1875 -44.1875 -44.1864 -44.1864
     2.5672   2.5672   2.7798   2.7798   2.8724   2.8724   2.8990   2.8990
     2.9542   2.9542   3.1006   3.1006   3.1131   3.1131   3.2588   3.2588
     3.2835   3.2835   3.2896   3.2896   3.4962   3.4962   3.5151   3.5151
     3.5383   3.5383   3.5722   3.5722   3.6109   3.6109   3.7380   3.7380
     3.7585   3.7585   3.7756   3.7756   3.7949   3.7949   3.9388   3.9388
     4.1838   4.1838   5.6620   5.6620   6.4253   6.4253   7.5930   7.5930
     8.3440   8.3440   8.4062   8.4062   9.6308   9.6308

          k = 0.0395 0.1973 0.1973 ( 21039 PWs)   bands (ev):

   -78.4367 -78.4361 -78.4361 -78.4359 -78.4356 -78.4353 -78.4353 -78.4348
   -44.2061 -44.2052 -44.2050 -44.2041 -44.2032 -44.2032 -44.2023 -44.2023
   -44.2017 -44.2017 -44.2009 -44.2008 -44.1913 -44.1911 -44.1904 -44.1904
   -44.1900 -44.1899 -44.1890 -44.1890 -44.1877 -44.1870 -44.1869 -44.1862
     2.3692   2.7886   2.7887   2.7973   2.8688   2.9025   2.9025   2.9039
     2.9665   2.9769   2.9770   2.9951   2.9952   3.0723   3.1308   3.1397
     3.1398   3.1575   3.3344   3.4309   3.4310   3.4553   3.4750   3.4750
     3.5538   3.5539   3.6305   3.6305   3.6643   3.6773   3.8075   3.8375
     3.8450   3.8743   3.8887   3.9079   3.9079   3.9229   4.0214   4.0215
     4.1196   4.5359   4.5359   5.8591   6.1388   7.1660   7.3170   7.3170
     8.5969   8.5969   8.6713   8.7807   8.7807   9.6327

          k = 0.0395 0.1973 0.2762 ( 21045 PWs)   bands (ev):

   -78.4365 -78.4363 -78.4360 -78.4357 -78.4357 -78.4355 -78.4352 -78.4349
   -44.2059 -44.2053 -44.2049 -44.2044 -44.2030 -44.2025 -44.2015 -44.2010
   -44.2005 -44.1995 -44.1989 -44.1981 -44.1941 -44.1932 -44.1927 -44.1918
   -44.1910 -44.1906 -44.1897 -44.1893 -44.1876 -44.1872 -44.1868 -44.1863
     2.5375   2.7388   2.8174   2.8476   2.8785   2.9293   2.9308   2.9867
     2.9969   3.0170   3.0487   3.0498   3.1133   3.1432   3.1588   3.2301
     3.2386   3.3075   3.3117   3.3342   3.3670   3.4403   3.4411   3.4618
     3.4619   3.5931   3.6398   3.6570   3.6682   3.6855   3.7310   3.7579
     3.7595   3.7880   3.8216   3.8325   3.8516   3.8889   3.9007   4.0063
     4.0370   4.0762   4.7315   5.3681   6.3143   6.8806   7.4484   7.5388
     8.1930   8.2069   8.8956   9.0287   9.6234   9.8483

          k = 0.0395 0.1973-0.3551 ( 21040 PWs)   bands (ev):

   -78.4364 -78.4364 -78.4359 -78.4359 -78.4356 -78.4356 -78.4351 -78.4351
   -44.2056 -44.2056 -44.2046 -44.2046 -44.2027 -44.2027 -44.2012 -44.2012
   -44.1973 -44.1973 -44.1963 -44.1963 -44.1958 -44.1958 -44.1949 -44.1949
   -44.1908 -44.1908 -44.1895 -44.1895 -44.1874 -44.1874 -44.1866 -44.1866
     2.6607   2.6607   2.8482   2.8483   2.8872   2.8872   2.9593   2.9593
     3.0828   3.0828   3.1119   3.1119   3.1481   3.1481   3.2477   3.2477
     3.2818   3.2818   3.3326   3.3326   3.4486   3.4486   3.4587   3.4587
     3.5123   3.5123   3.5512   3.5512   3.6504   3.6504   3.7376   3.7376
     3.7424   3.7424   3.7738   3.7738   3.7890   3.7890   3.8958   3.8958
     4.0539   4.0539   4.9987   4.9987   6.5542   6.5542   7.7988   7.7988
     7.8328   7.8328   9.2608   9.2608   9.3297   9.3297

          k = 0.0395 0.2762 0.2762 ( 21074 PWs)   bands (ev):

   -78.4364 -78.4361 -78.4361 -78.4359 -78.4356 -78.4353 -78.4353 -78.4350
   -44.2056 -44.2052 -44.2051 -44.2046 -44.2003 -44.2003 -44.1998 -44.1997
   -44.1988 -44.1988 -44.1984 -44.1983 -44.1941 -44.1938 -44.1934 -44.1934
   -44.1925 -44.1924 -44.1920 -44.1920 -44.1875 -44.1871 -44.1869 -44.1865
     2.6523   2.7784   2.7784   2.8489   3.0184   3.0184   3.0354   3.0366
     3.0500   3.1196   3.1197   3.1197   3.1604   3.1768   3.2040   3.2851
     3.2851   3.3111   3.3506   3.3506   3.3537   3.3537   3.3653   3.3789
     3.5061   3.5062   3.5516   3.6647   3.6941   3.6941   3.7046   3.7292
     3.7362   3.7374   3.8217   3.8393   3.8443   3.8443   3.8587   3.8587
     3.9626   4.1794   4.1794   4.8369   6.4960   7.0887   7.0887   7.7355
     7.7394   8.4866   8.4866   9.2513  10.0958  10.0959

          k = 0.0395 0.2762-0.3551 ( 21052 PWs)   bands (ev):

   -78.4363 -78.4363 -78.4360 -78.4360 -78.4355 -78.4355 -78.4352 -78.4352
   -44.2054 -44.2054 -44.2048 -44.2048 -44.2000 -44.2000 -44.1985 -44.1985
   -44.1971 -44.1971 -44.1965 -44.1965 -44.1956 -44.1956 -44.1951 -44.1951
   -44.1937 -44.1937 -44.1922 -44.1922 -44.1872 -44.1872 -44.1868 -44.1868
     2.7259   2.7259   2.8147   2.8147   3.0379   3.0379   3.0805   3.0805
     3.1204   3.1204   3.1916   3.1916   3.2398   3.2398   3.2480   3.2480
     3.2692   3.2692   3.3454   3.3454   3.3890   3.3890   3.3942   3.3942
     3.4937   3.4937   3.5075   3.5075   3.7035   3.7035   3.7265   3.7265
     3.7511   3.7511   3.7816   3.7816   3.8237   3.8237   3.8506   3.8506
     3.8954   3.8954   4.4425   4.4425   6.7477   6.7477   7.3711   7.3711
     8.0891   8.0891   8.8467   8.8467  10.3714  10.3714

          k = 0.0395-0.3551-0.3551 ( 21052 PWs)   bands (ev):

   -78.4361 -78.4361 -78.4361 -78.4361 -78.4353 -78.4353 -78.4353 -78.4353
   -44.2052 -44.2052 -44.2050 -44.2050 -44.1969 -44.1969 -44.1968 -44.1968
   -44.1968 -44.1968 -44.1967 -44.1967 -44.1955 -44.1955 -44.1954 -44.1954
   -44.1954 -44.1954 -44.1953 -44.1953 -44.1870 -44.1870 -44.1869 -44.1869
     2.7740   2.7740   2.7740   2.7740   3.1042   3.1042   3.1042   3.1042
     3.2282   3.2282   3.2282   3.2282   3.2608   3.2608   3.2608   3.2608
     3.2823   3.2824   3.2824   3.2824   3.4077   3.4078   3.4078   3.4078
     3.4512   3.4512   3.4513   3.4513   3.7535   3.7535   3.7535   3.7535
     3.7699   3.7699   3.7699   3.7699   3.7836   3.7837   3.7837   3.7837
     4.0420   4.0420   4.0421   4.0421   7.0148   7.0148   7.0148   7.0148
     8.4458   8.4458   8.4458   8.4458  11.2742  11.2742

          k = 0.1184 0.1184 0.1184 ( 21032 PWs)   bands (ev):

   -78.4368 -78.4361 -78.4361 -78.4361 -78.4354 -78.4354 -78.4354 -78.4347
   -44.2054 -44.2054 -44.2054 -44.2041 -44.2041 -44.2041 -44.2040 -44.2040
   -44.2039 -44.2029 -44.2026 -44.2026 -44.1893 -44.1891 -44.1891 -44.1882
   -44.1882 -44.1881 -44.1881 -44.1880 -44.1880 -44.1869 -44.1869 -44.1869
     2.1453   2.7525   2.7525   2.8476   2.8476   2.8476   2.8614   2.8615
     2.8615   2.8921   2.8921   2.8921   2.9938   3.0165   3.0165   3.0166
     3.0395   3.0395   3.4828   3.4829   3.4829   3.5460   3.5460   3.5461
     3.5894   3.5894   3.5894   3.5951   3.5951   3.5952   3.8939   3.8997
     3.8997   3.9311   3.9311   3.9311   4.0923   4.0924   4.0924   4.1378
     4.1378   5.1358   5.1358   5.1358   7.1089   7.1089   7.1089   7.6975
     7.6975   7.6975   9.1823   9.1823   9.1823   9.2178

          k = 0.1184 0.1184 0.1973 ( 21044 PWs)   bands (ev):

   -78.4367 -78.4362 -78.4360 -78.4360 -78.4355 -78.4355 -78.4353 -78.4348
   -44.2052 -44.2052 -44.2042 -44.2042 -44.2039 -44.2038 -44.2033 -44.2029
   -44.2029 -44.2020 -44.2019 -44.2008 -44.1913 -44.1903 -44.1901 -44.1890
   -44.1890 -44.1889 -44.1883 -44.1882 -44.1879 -44.1879 -44.1871 -44.1871
     2.3042   2.7661   2.8360   2.8387   2.8468   2.8687   2.8879   2.8880
     2.9122   2.9122   2.9879   2.9977   2.9978   3.0345   3.0346   3.0857
     3.1015   3.1485   3.3906   3.3906   3.5056   3.5108   3.5125   3.5397
     3.5398   3.5834   3.5835   3.5897   3.6306   3.6306   3.8519   3.8538
     3.8874   3.8874   3.9026   3.9262   3.9555   3.9556   3.9857   4.1010
     4.1333   4.4724   5.2768   5.2769   6.5448   6.5448   7.2758   7.8727
     7.8727   8.6775   8.6969   9.1193   9.1193   9.4055

          k = 0.1184 0.1184 0.2762 ( 21042 PWs)   bands (ev):

   -78.4366 -78.4363 -78.4359 -78.4359 -78.4356 -78.4356 -78.4352 -78.4349
   -44.2050 -44.2050 -44.2044 -44.2044 -44.2037 -44.2036 -44.2031 -44.2031
   -44.2005 -44.1993 -44.1991 -44.1980 -44.1942 -44.1930 -44.1928 -44.1918
   -44.1888 -44.1888 -44.1884 -44.1883 -44.1877 -44.1877 -44.1873 -44.1873
     2.4909   2.7555   2.7845   2.8274   2.8972   2.9132   2.9132   2.9617
     2.9680   2.9681   3.0070   3.0091   3.0091   3.1698   3.1886   3.2023
     3.2023   3.3058   3.3059   3.3145   3.4051   3.4172   3.5049   3.5481
     3.5482   3.5723   3.5724   3.6493   3.6616   3.6617   3.7793   3.7793
     3.7846   3.7886   3.8044   3.8303   3.8303   3.9087   3.9120   3.9667
     4.1104   4.1270   5.4751   5.4751   6.0883   6.0883   7.5161   8.1253
     8.1253   8.2124   8.7942   8.7942   9.7188   9.7636

          k = 0.1184 0.1184-0.3551 ( 21030 PWs)   bands (ev):

   -78.4364 -78.4364 -78.4357 -78.4357 -78.4357 -78.4357 -78.4350 -78.4350
   -44.2047 -44.2047 -44.2047 -44.2047 -44.2034 -44.2034 -44.2033 -44.2033
   -44.1974 -44.1974 -44.1961 -44.1961 -44.1960 -44.1960 -44.1949 -44.1949
   -44.1886 -44.1886 -44.1886 -44.1886 -44.1875 -44.1875 -44.1875 -44.1875
     2.6454   2.6454   2.8058   2.8058   2.9295   2.9296   2.9414   2.9414
     2.9415   2.9415   3.1197   3.1197   3.1197   3.1197   3.2715   3.2715
     3.2852   3.2852   3.2932   3.2932   3.4974   3.4974   3.4974   3.4974
     3.5602   3.5602   3.5603   3.5603   3.5641   3.5641   3.7182   3.7182
     3.7705   3.7705   3.7705   3.7705   3.7788   3.7788   3.9160   3.9160
     4.1193   4.1193   5.7386   5.7386   5.7386   5.7386   7.8271   7.8271
     8.4412   8.4412   8.4412   8.4412  10.1004  10.1004

          k = 0.1184 0.1973 0.1973 ( 21040 PWs)   bands (ev):

   -78.4366 -78.4361 -78.4361 -78.4359 -78.4356 -78.4354 -78.4354 -78.4348
   -44.2050 -44.2041 -44.2040 -44.2031 -44.2031 -44.2030 -44.2022 -44.2021
   -44.2018 -44.2018 -44.2009 -44.2009 -44.1912 -44.1910 -44.1904 -44.1904
   -44.1900 -44.1899 -44.1891 -44.1891 -44.1888 -44.1882 -44.1880 -44.1872
     2.4628   2.8241   2.8623   2.8623   2.8757   2.9322   2.9322   2.9607
     2.9862   2.9881   2.9902   2.9902   3.0188   3.0974   3.1026   3.1278
     3.1278   3.1539   3.3600   3.4246   3.4247   3.4809   3.4982   3.4982
     3.5490   3.5491   3.5823   3.5823   3.6165   3.6268   3.8105   3.8414
     3.8515   3.8557   3.8612   3.8816   3.8816   3.9198   3.9699   3.9700
     4.0486   4.6121   4.6121   5.4166   5.9446   6.7081   6.7081   8.0515
     8.1220   8.8720   8.8720   9.3271   9.3271   9.7451

          k = 0.1184 0.1973 0.2762 ( 21073 PWs)   bands (ev):

   -78.4365 -78.4362 -78.4360 -78.4358 -78.4357 -78.4355 -78.4353 -78.4350
   -44.2048 -44.2043 -44.2038 -44.2033 -44.2029 -44.2024 -44.2016 -44.2011
   -44.2004 -44.1994 -44.1990 -44.1982 -44.1940 -44.1931 -44.1928 -44.1919
   -44.1910 -44.1905 -44.1898 -44.1893 -44.1887 -44.1883 -44.1879 -44.1875
     2.6318   2.8185   2.8644   2.8881   2.9415   2.9467   2.9583   3.0125
     3.0215   3.0267   3.0368   3.0587   3.1016   3.1679   3.1691   3.2147
     3.2349   3.2918   3.3205   3.3371   3.4000   3.4305   3.4567   3.4658
     3.4858   3.5865   3.5896   3.6077   3.6370   3.6392   3.7305   3.7511
     3.7583   3.7831   3.7996   3.8085   3.8234   3.8662   3.8712   3.9846
     4.0155   4.0851   4.8087   5.4522   5.6172   6.2446   6.9451   7.6459
     8.3086   8.9898   9.1218   9.6201   9.7262   9.9406

          k = 0.1184 0.1973-0.3551 ( 21044 PWs)   bands (ev):

   -78.4364 -78.4363 -78.4358 -78.4358 -78.4356 -78.4356 -78.4351 -78.4351
   -44.2046 -44.2045 -44.2035 -44.2035 -44.2027 -44.2027 -44.2013 -44.2013
   -44.1972 -44.1972 -44.1962 -44.1962 -44.1959 -44.1959 -44.1950 -44.1950
   -44.1907 -44.1907 -44.1895 -44.1895 -44.1885 -44.1885 -44.1877 -44.1877
     2.7474   2.7474   2.8991   2.8991   2.9176   2.9176   2.9871   2.9871
     3.0691   3.0691   3.1312   3.1312   3.1544   3.1544   3.2665   3.2665
     3.2840   3.2840   3.3302   3.3302   3.4604   3.4604   3.4728   3.4728
     3.4968   3.4968   3.5454   3.5454   3.6012   3.6012   3.7014   3.7014
     3.7327   3.7327   3.7610   3.7610   3.8080   3.8080   3.8803   3.8803
     3.9990   3.9990   5.0794   5.0794   5.8869   5.8869   7.2558   7.2558
     8.6297   8.6297   9.4260   9.4260   9.9794   9.9794

          k = 0.1184 0.2762 0.2762 ( 21056 PWs)   bands (ev):

   -78.4364 -78.4361 -78.4361 -78.4358 -78.4357 -78.4354 -78.4354 -78.4351
   -44.2046 -44.2041 -44.2040 -44.2035 -44.2001 -44.2001 -44.1997 -44.1996
   -44.1988 -44.1988 -44.1984 -44.1983 -44.1939 -44.1937 -44.1933 -44.1933
   -44.1926 -44.1925 -44.1921 -44.1921 -44.1885 -44.1881 -44.1880 -44.1876
     2.7410   2.8519   2.8520   2.9180   3.0429   3.0429   3.0528   3.0562
     3.0580   3.1271   3.1290   3.1291   3.1645   3.1874   3.2078   3.2652
     3.2653   3.3067   3.3505   3.3506   3.3702   3.3877   3.3877   3.3963
     3.5009   3.5010   3.5440   3.6440   3.6440   3.6549   3.6619   3.7054
     3.7267   3.7282   3.8098   3.8129   3.8129   3.8210   3.8211   3.8342
     3.9080   4.2604   4.2605   4.9227   5.8245   6.4733   6.4733   7.1652
     8.5712   9.2675   9.2675   9.9985  10.1898  10.1898

          k = 0.1184 0.2762-0.3551 ( 21058 PWs)   bands (ev):

   -78.4362 -78.4362 -78.4359 -78.4359 -78.4355 -78.4355 -78.4352 -78.4352
   -44.2043 -44.2043 -44.2038 -44.2037 -44.1999 -44.1999 -44.1986 -44.1986
   -44.1970 -44.1970 -44.1965 -44.1965 -44.1957 -44.1957 -44.1952 -44.1952
   -44.1935 -44.1935 -44.1923 -44.1923 -44.1883 -44.1883 -44.1879 -44.1879
     2.8049   2.8049   2.8853   2.8853   3.0612   3.0612   3.0901   3.0901
     3.1377   3.1377   3.1974   3.1974   3.2307   3.2308   3.2599   3.2599
     3.2725   3.2725   3.3793   3.3793   3.3851   3.3851   3.3964   3.3964
     3.4819   3.4819   3.5055   3.5055   3.6542   3.6542   3.6977   3.6977
     3.7073   3.7073   3.7495   3.7495   3.7982   3.7982   3.8507   3.8507
     3.9205   3.9205   4.5272   4.5272   6.1045   6.1045   6.7772   6.7772
     8.8988   8.8988   9.6113   9.6113  10.4700  10.4700

          k = 0.1184-0.3551-0.3551 ( 21124 PWs)   bands (ev):

   -78.4361 -78.4361 -78.4361 -78.4361 -78.4354 -78.4354 -78.4354 -78.4354
   -44.2042 -44.2042 -44.2040 -44.2040 -44.1969 -44.1969 -44.1968 -44.1968
   -44.1967 -44.1967 -44.1967 -44.1967 -44.1956 -44.1956 -44.1955 -44.1955
   -44.1955 -44.1955 -44.1954 -44.1954 -44.1882 -44.1882 -44.1881 -44.1880
     2.8473   2.8473   2.8474   2.8474   3.1226   3.1226   3.1226   3.1226
     3.2333   3.2333   3.2334   3.2334   3.2767   3.2767   3.2768   3.2768
     3.2861   3.2861   3.2862   3.2862   3.4131   3.4131   3.4132   3.4132
     3.4439   3.4439   3.4439   3.4439   3.6968   3.6968   3.6968   3.6968
     3.7370   3.7370   3.7370   3.7370   3.7528   3.7528   3.7528   3.7528
     4.1296   4.1296   4.1296   4.1296   6.3971   6.3971   6.3971   6.3971
     9.2336   9.2336   9.2336   9.2336  11.3800  11.3801

          k = 0.1973 0.1973 0.1973 ( 21068 PWs)   bands (ev):

   -78.4365 -78.4360 -78.4360 -78.4360 -78.4355 -78.4355 -78.4355 -78.4349
   -44.2030 -44.2030 -44.2030 -44.2021 -44.2021 -44.2020 -44.2019 -44.2019
   -44.2019 -44.2012 -44.2011 -44.2011 -44.1912 -44.1909 -44.1909 -44.1902
   -44.1902 -44.1902 -44.1901 -44.1901 -44.1901 -44.1893 -44.1893 -44.1893
     2.6320   2.8888   2.8888   2.9702   2.9703   2.9703   2.9892   2.9892
     2.9892   3.0435   3.0435   3.0435   3.0510   3.1069   3.1069   3.1070
     3.1607   3.1607   3.3926   3.3926   3.3926   3.5287   3.5287   3.5288
     3.5345   3.5346   3.5346   3.5441   3.5441   3.5441   3.8102   3.8102
     3.8319   3.8340   3.8340   3.8341   3.8676   3.8677   3.8677   3.9138
     3.9138   4.7524   4.7524   4.7524   6.1097   6.1097   6.1097   7.5543
     9.0494   9.0494   9.0494   9.9619   9.9619   9.9619

          k = 0.1973 0.1973 0.2762 ( 21065 PWs)   bands (ev):

   -78.4364 -78.4361 -78.4359 -78.4359 -78.4356 -78.4356 -78.4353 -78.4351
   -44.2028 -44.2028 -44.2022 -44.2022 -44.2018 -44.2018 -44.2014 -44.2013
   -44.2002 -44.1993 -44.1992 -44.1984 -44.1938 -44.1930 -44.1928 -44.1920
   -44.1909 -44.1907 -44.1904 -44.1902 -44.1899 -44.1899 -44.1895 -44.1895
     2.8002   2.9068   2.9499   2.9773   3.0136   3.0147   3.0148   3.0459
     3.0572   3.0596   3.0596   3.0895   3.0896   3.1856   3.1856   3.2097
     3.2421   3.2679   3.3408   3.3408   3.3980   3.4443   3.4501   3.5128
     3.5129   3.5266   3.5267   3.5717   3.5717   3.5933   3.7314   3.7363
     3.7363   3.7427   3.7734   3.7734   3.7899   3.8218   3.8413   3.8821
     3.9053   4.2150   4.9546   4.9546   5.6141   5.6141   6.3497   7.0653
     9.3028   9.3028   9.9249   9.9249  10.1194  10.2686

          k = 0.1973 0.1973-0.3551 ( 21042 PWs)   bands (ev):

   -78.4363 -78.4363 -78.4357 -78.4357 -78.4357 -78.4357 -78.4352 -78.4352
   -44.2025 -44.2025 -44.2025 -44.2025 -44.2016 -44.2016 -44.2015 -44.2015
   -44.1970 -44.1970 -44.1961 -44.1961 -44.1960 -44.1960 -44.1951 -44.1951
   -44.1907 -44.1907 -44.1905 -44.1904 -44.1897 -44.1897 -44.1897 -44.1897
     2.9011   2.9011   2.9279   2.9279   3.0388   3.0388   3.0453   3.0453
     3.0454   3.0454   3.1650   3.1650   3.1650   3.1650   3.2844   3.2844
     3.2889   3.2889   3.3398   3.3398   3.4604   3.4604   3.4605   3.4605
     3.5201   3.5201   3.5202   3.5202   3.5322   3.5322   3.6675   3.6675
     3.7152   3.7152   3.7152   3.7152   3.7994   3.7994   3.8946   3.8946
     3.9101   3.9101   5.2339   5.2339   5.2339   5.2339   6.6658   6.6658
     9.6128   9.6128   9.6128   9.6128  10.6463  10.6463

          k = 0.1973 0.2762 0.2762 ( 21045 PWs)   bands (ev):

   -78.4363 -78.4360 -78.4360 -78.4357 -78.4357 -78.4355 -78.4355 -78.4352
   -44.2025 -44.2021 -44.2019 -44.2015 -44.1999 -44.1999 -44.1995 -44.1994
   -44.1990 -44.1990 -44.1985 -44.1985 -44.1937 -44.1935 -44.1931 -44.1931
   -44.1928 -44.1926 -44.1922 -44.1922 -44.1906 -44.1902 -44.1900 -44.1897
     2.9040   2.9846   2.9846   3.0452   3.0679   3.0840   3.0886   3.0887
     3.0975   3.1413   3.1457   3.1481   3.1481   3.2063   3.2385   3.2411
     3.2412   3.3021   3.3462   3.3462   3.3574   3.4366   3.4366   3.4511
     3.4915   3.4916   3.5191   3.5749   3.5752   3.5752   3.6572   3.6728
     3.7049   3.7130   3.7469   3.7469   3.7551   3.7592   3.7592   3.8011
     3.8751   4.4041   4.4042   5.0855   5.1676   5.8501   5.8501   6.5673
     9.5613  10.2066  10.2066  10.3721  10.3721  10.7054

          k = 0.1973 0.2762-0.3551 ( 21098 PWs)   bands (ev):

   -78.4361 -78.4361 -78.4359 -78.4359 -78.4356 -78.4356 -78.4353 -78.4353
   -44.2023 -44.2023 -44.2018 -44.2018 -44.1997 -44.1997 -44.1988 -44.1988
   -44.1968 -44.1968 -44.1963 -44.1963 -44.1959 -44.1959 -44.1954 -44.1954
   -44.1934 -44.1934 -44.1925 -44.1925 -44.1904 -44.1904 -44.1899 -44.1899
     2.9479   2.9479   3.0151   3.0151   3.1038   3.1038   3.1087   3.1087
     3.1667   3.1667   3.2064   3.2064   3.2103   3.2103   3.2757   3.2757
     3.2935   3.2935   3.3815   3.3815   3.3991   3.3991   3.4295   3.4295
     3.4594   3.4594   3.5029   3.5029   3.5776   3.5776   3.6442   3.6442
     3.6723   3.6723   3.6955   3.6955   3.7453   3.7453   3.7634   3.7634
     4.0315   4.0315   4.6840   4.6840   5.4599   5.4599   6.1645   6.1645
     9.8790   9.8790  10.5528  10.5528  10.6611  10.6611

          k = 0.1973-0.3551-0.3551 ( 21080 PWs)   bands (ev):

   -78.4360 -78.4360 -78.4360 -78.4360 -78.4355 -78.4355 -78.4355 -78.4355
   -44.2021 -44.2021 -44.2020 -44.2020 -44.1967 -44.1967 -44.1966 -44.1966
   -44.1965 -44.1965 -44.1965 -44.1965 -44.1957 -44.1957 -44.1956 -44.1956
   -44.1956 -44.1956 -44.1955 -44.1955 -44.1902 -44.1902 -44.1901 -44.1901
     2.9815   2.9815   2.9815   2.9815   3.1557   3.1557   3.1557   3.1557
     3.2405   3.2405   3.2406   3.2406   3.2930   3.2930   3.2931   3.2931
     3.2982   3.2982   3.2983   3.2983   3.4287   3.4287   3.4288   3.4288
     3.4326   3.4326   3.4326   3.4326   3.6263   3.6263   3.6263   3.6263
     3.6732   3.6732   3.6732   3.6732   3.6963   3.6963   3.6963   3.6963
     4.2770   4.2770   4.2770   4.2770   5.7654   5.7654   5.7654   5.7654
    10.2069  10.2069  10.2069  10.2069  11.5862  11.5862

          k = 0.2762 0.2762 0.2762 ( 21062 PWs)   bands (ev):

   -78.4362 -78.4359 -78.4359 -78.4359 -78.4356 -78.4356 -78.4356 -78.4353
   -44.1998 -44.1998 -44.1998 -44.1994 -44.1994 -44.1992 -44.1992 -44.1991
   -44.1991 -44.1989 -44.1987 -44.1987 -44.1936 -44.1933 -44.1933 -44.1931
   -44.1931 -44.1929 -44.1929 -44.1928 -44.1928 -44.1924 -44.1924 -44.1924
     3.0841   3.0841   3.1245   3.1246   3.1246   3.1378   3.1428   3.1469
     3.1469   3.1469   3.1880   3.1880   3.1880   3.2169   3.2169   3.2170
     3.3085   3.3085   3.3369   3.3369   3.3370   3.4647   3.4647   3.4648
     3.4942   3.4942   3.4942   3.5221   3.5221   3.5222   3.6518   3.6518
     3.6528   3.6528   3.6528   3.6828   3.6828   3.6931   3.6931   3.6931
     3.9774   4.6137   4.6137   4.6137   5.3222   5.3222   5.3222   6.0535
    10.6307  10.6307  10.6307  11.0065  11.0065  11.0065

          k = 0.2762 0.2762-0.3551 ( 21038 PWs)   bands (ev):

   -78.4360 -78.4360 -78.4357 -78.4357 -78.4357 -78.4357 -78.4355 -78.4354
   -44.1995 -44.1995 -44.1995 -44.1995 -44.1991 -44.1990 -44.1989 -44.1989
   -44.1965 -44.1965 -44.1962 -44.1962 -44.1960 -44.1960 -44.1956 -44.1955
   -44.1932 -44.1932 -44.1930 -44.1930 -44.1927 -44.1927 -44.1927 -44.1927
     3.1035   3.1035   3.1516   3.1516   3.1553   3.1553   3.1728   3.1728
     3.1728   3.1728   3.2169   3.2169   3.2169   3.2169   3.2727   3.2727
     3.3217   3.3217   3.3885   3.3885   3.3984   3.3984   3.3984   3.3984
     3.5003   3.5003   3.5044   3.5044   3.5044   3.5044   3.6021   3.6021
     3.6335   3.6335   3.6335   3.6335   3.6485   3.6486   3.6779   3.6779
     4.2077   4.2077   4.9118   4.9118   4.9118   4.9118   5.6405   5.6405
    10.9324  10.9324  10.9324  10.9324  11.3816  11.3816

          k = 0.2762-0.3551-0.3551 ( 21056 PWs)   bands (ev):

   -78.4359 -78.4359 -78.4359 -78.4359 -78.4356 -78.4356 -78.4356 -78.4356
   -44.1993 -44.1993 -44.1992 -44.1992 -44.1965 -44.1965 -44.1964 -44.1964
   -44.1963 -44.1963 -44.1962 -44.1962 -44.1959 -44.1959 -44.1958 -44.1958
   -44.1958 -44.1958 -44.1957 -44.1957 -44.1930 -44.1930 -44.1928 -44.1928
     3.1481   3.1481   3.1482   3.1482   3.1948   3.1948   3.1948   3.1948
     3.2434   3.2434   3.2435   3.2435   3.3014   3.3014   3.3015   3.3015
     3.3097   3.3097   3.3097   3.3097   3.3967   3.3967   3.3968   3.3968
     3.4779   3.4779   3.4780   3.4780   3.5675   3.5675   3.5676   3.5676
     3.5921   3.5921   3.5921   3.5921   3.6235   3.6235   3.6236   3.6236
     4.4918   4.4918   4.4919   4.4919   5.2248   5.2248   5.2248   5.2248
    11.2562  11.2562  11.2562  11.2563  11.8826  11.8826

          k =-0.3551-0.3551-0.3551 ( 21008 PWs)   bands (ev):

   -78.4357 -78.4357 -78.4357 -78.4357 -78.4357 -78.4357 -78.4357 -78.4357
   -44.1962 -44.1962 -44.1962 -44.1962 -44.1962 -44.1962 -44.1960 -44.1960
   -44.1960 -44.1960 -44.1960 -44.1960 -44.1960 -44.1960 -44.1960 -44.1960
   -44.1960 -44.1960 -44.1960 -44.1960 -44.1958 -44.1958 -44.1958 -44.1958
     3.2253   3.2253   3.2254   3.2254   3.2254   3.2254   3.2254   3.2254
     3.3086   3.3086   3.3086   3.3086   3.3086   3.3086   3.3086   3.3086
     3.3086   3.3086   3.3087   3.3087   3.3087   3.3087   3.3087   3.3087
     3.5462   3.5462   3.5462   3.5462   3.5462   3.5462   3.5462   3.5462
     3.5462   3.5462   3.5463   3.5463   3.5463   3.5463   3.5463   3.5463
     4.8005   4.8005   4.8006   4.8006   4.8006   4.8006   4.8006   4.8006
    12.2556  12.2556  12.2556  12.2556  12.2556  12.2556

     the Fermi energy is     4.1337 ev

!    total energy              =   -4094.86748184 Ry

     total all-electron energy =    -80735.080909 Ry
     estimated scf accuracy    <       0.00000012 Ry
     smearing contrib. (-TS)   =       0.18577913 Ry
     internal energy E=F+TS    =   -4095.05326097 Ry

     The total energy is F=E-TS. E is the sum of the following terms:
     one-electron contribution =   -1376.93550367 Ry
     hartree contribution      =     720.36166694 Ry
     xc contribution           =    -245.18488434 Ry
     ewald contribution        =   -1151.58669394 Ry
     one-center paw contrib.   =   -2041.70784595 Ry

     convergence has been achieved in  19 iterations

     Forces acting on atoms (cartesian axes, Ry/au):

     atom    1 type  1   force =     0.00000000    0.00000000    0.00000000
     atom    2 type  1   force =     0.00000000    0.00000000    0.00000000
     atom    3 type  1   force =     0.00000000    0.00000000    0.00000000
     atom    4 type  1   force =     0.00000000    0.00000000    0.00000000
     atom    5 type  1   force =     0.00000000    0.00000000    0.00000000
     atom    6 type  1   force =     0.00000000    0.00000000    0.00000000
     atom    7 type  1   force =     0.00000000    0.00000000    0.00000000
     atom    8 type  1   force =     0.00000000    0.00000000    0.00000000

     Total force =     0.000000     Total SCF correction =     0.000000


     Computing stress (Cartesian axis) and pressure

          total   stress  (Ry/bohr**3)                   (kbar)     P=     -120.03
  -0.00081593   0.00000000   0.00000000         -120.03        0.00        0.00
   0.00000000  -0.00081593   0.00000000            0.00     -120.03        0.00
   0.00000000   0.00000000  -0.00081593            0.00        0.00     -120.03


     Writing output data file /scratch/HQBHBAWsVAjHIaJr.save/
 
     init_run     :      1.93s CPU      2.08s WALL (       1 calls)
     electrons    :     96.20s CPU     98.55s WALL (       1 calls)
     forces       :      0.43s CPU      0.45s WALL (       1 calls)
     stress       :      0.93s CPU      0.94s WALL (       1 calls)

     Called by init_run:
     wfcinit      :      1.53s CPU      1.59s WALL (       1 calls)
     potinit      :      0.12s CPU      0.16s WALL (       1 calls)
     hinit0       :      0.08s CPU      0.08s WALL (       1 calls)

     Called by electrons:
     c_bands      :     81.12s CPU     82.69s WALL (      19 calls)
     sum_band     :     13.12s CPU     13.65s WALL (      19 calls)
     v_of_rho     :      0.23s CPU      0.25s WALL (      20 calls)
     newd         :      0.31s CPU      0.41s WALL (      20 calls)
     PAW_pot      :      1.13s CPU      1.20s WALL (      20 calls)
     mix_rho      :      0.23s CPU      0.29s WALL (      19 calls)

     Called by c_bands:
     init_us_2    :      0.33s CPU      0.35s WALL (    1435 calls)
     cegterg      :     79.36s CPU     80.89s WALL (     665 calls)

     Called by *egterg:
     cdiaghg      :      8.91s CPU      8.97s WALL (    1849 calls)
     h_psi        :     58.40s CPU     59.82s WALL (    1884 calls)
     s_psi        :      0.86s CPU      0.87s WALL (    1884 calls)
     g_psi        :      0.08s CPU      0.08s WALL (    1184 calls)

     Called by h_psi:
     h_psi:calbec :      3.07s CPU      3.10s WALL (    1884 calls)
     vloc_psi     :     54.07s CPU     55.45s WALL (    1884 calls)
     add_vuspsi   :      1.08s CPU      1.09s WALL (    1884 calls)

     General routines
     calbec       :      4.67s CPU      4.74s WALL (    2724 calls)
     fft          :      0.26s CPU      0.27s WALL (     283 calls)
     ffts         :      0.02s CPU      0.03s WALL (      39 calls)
     fftw         :     63.79s CPU     65.48s WALL (  318966 calls)
     interpolate  :      0.05s CPU      0.05s WALL (      20 calls)
 
     Parallel routines
     fft_scatt_xy :      2.43s CPU      2.47s WALL (  319288 calls)
     fft_scatt_yz :     57.02s CPU     58.60s WALL (  319288 calls)
 
     PWSCF        :   1m43.16s CPU   1m46.51s WALL

 
   This run was terminated on:   3:49:27  30Nov2021            

=------------------------------------------------------------------------------=
   JOB DONE.
=------------------------------------------------------------------------------=
