
     Program PWSCF v.6.7MaX starts on 30Nov2021 at  3:56:30 

     This program is part of the open-source Quantum ESPRESSO suite
     for quantum simulation of materials; please cite
         "P. Giannozzi et al., J. Phys.:Condens. Matter 21 395502 (2009);
         "P. Giannozzi et al., J. Phys.:Condens. Matter 29 465901 (2017);
          URL http://www.quantum-espresso.org", 
     in publications or presentations arising from this work. More details at
     http://www.quantum-espresso.org/quote

     Parallel version (MPI & OpenMP), running on      72 processor cores
     Number of MPI processes:                72
     Threads/MPI process:                     1

     MPI processes distributed on     1 nodes
     R & G space division:  proc/nbgrp/npool/nimage =      72
     Reading input from sc_15.in
Warning: card &CELL ignored
Warning: card CELL_DYNAMICS = 'BFGS', ignored
Warning: card CELL_FACTOR = 2.0, ignored
Warning: card PRESS = 0.0, ignored
Warning: card / ignored

     Current dimensions of program PWSCF are:
     Max number of different atomic species (ntypx) = 10
     Max number of k-points (npk) =  40000
     Max angular momentum in pseudopotentials (lmaxx) =  3
     file Pd.pbe-spn-kjpaw_psl.1.0.0.UPF: wavefunction(s)  4S 5S 4D renormalized

     Subspace diagonalization in iterative solution of the eigenvalue problem:
     one sub-group per band group will be used
     ELPA distributed-memory algorithm (size of sub-group:  8*  8 procs)

     Found symmetry operation: I + (  0.0000  0.0000 -0.5000)
     This is a supercell, fractional translations are disabled
     Message from routine setup:
     using ibrav=0 with symmetry is DISCOURAGED, use correct ibrav instead
 
     Parallelization info
     --------------------
     sticks:   dense  smooth     PW     G-vecs:    dense   smooth      PW
     Min         109      72     19                 7281     3912     551
     Max         110      73     20                 7287     3917     556
     Sum        7861    5193   1413               524481   281849   39847
 


     bravais-lattice index     =            0
     lattice parameter (alat)  =       9.0720  a.u.
     unit-cell volume          =    3484.0109 (a.u.)^3
     number of atoms/cell      =            8
     number of atomic types    =            1
     number of electrons       =       144.00
     number of Kohn-Sham states=           86
     kinetic-energy cutoff     =      71.0000  Ry
     charge density cutoff     =     430.0000  Ry
     scf convergence threshold =      1.0E-06
     mixing beta               =       0.1000
     number of iterations used =           10  TF        mixing
     Exchange-correlation= SLA  PW   PBX  PBC
                           (   1   4   3   4   0   0   0)

     celldm(1)=   9.072000  celldm(2)=   0.000000  celldm(3)=   0.000000
     celldm(4)=   0.000000  celldm(5)=   0.000000  celldm(6)=   0.000000

     crystal axes: (cart. coord. in units of alat)
               a(1) = (   1.671053   0.000000   0.000000 )  
               a(2) = (   0.000000   1.671053   0.000000 )  
               a(3) = (   0.000000   0.000000   1.671053 )  

     reciprocal axes: (cart. coord. in units 2 pi/alat)
               b(1) = (  0.598425  0.000000  0.000000 )  
               b(2) = (  0.000000  0.598425  0.000000 )  
               b(3) = (  0.000000  0.000000  0.598425 )  


     PseudoPot. # 1 for Pd read from file:
     /rds/homes/b/bxp912/pp/Pd.pbe-spn-kjpaw_psl.1.0.0.UPF
     MD5 check sum: 790f2ebce206edfd9790dcb9844eca51
     Pseudo is Projector augmented-wave + core cor, Zval = 18.0
     Generated using &quot;atomic&quot; code by A. Dal Corso  v.6.3
     Shape of augmentation charge: PSQ
     Using radial grid of 1235 points,  6 beta functions with: 
                l(1) =   0
                l(2) =   0
                l(3) =   1
                l(4) =   1
                l(5) =   2
                l(6) =   2
     Q(r) pseudized with 0 coefficients 


     atomic species   valence    mass     pseudopotential
        Pd            18.00   106.42000     Pd( 1.00)

     48 Sym. Ops., with inversion, found



   Cartesian axes

     site n.     atom                  positions (alat units)
         1           Pd  tau(   1) = (   0.0000000   0.0000000   0.0000000  )
         2           Pd  tau(   2) = (   0.0000000   0.0000000   0.8355263  )
         3           Pd  tau(   3) = (   0.0000000   0.8355263   0.0000000  )
         4           Pd  tau(   4) = (   0.0000000   0.8355263   0.8355263  )
         5           Pd  tau(   5) = (   0.8355263   0.0000000   0.0000000  )
         6           Pd  tau(   6) = (   0.8355263   0.0000000   0.8355263  )
         7           Pd  tau(   7) = (   0.8355263   0.8355263   0.0000000  )
         8           Pd  tau(   8) = (   0.8355263   0.8355263   0.8355263  )

     number of k points=    35  Marzari-Vanderbilt smearing, width (Ry)=  0.0400
                       cart. coord. in units 2pi/alat
        k(    1) = (   0.0332458   0.0332458   0.0332458), wk =   0.0219479
        k(    2) = (   0.0332458   0.0332458   0.0997375), wk =   0.0658436
        k(    3) = (   0.0332458   0.0332458   0.1662292), wk =   0.0658436
        k(    4) = (   0.0332458   0.0332458   0.2327209), wk =   0.0658436
        k(    5) = (   0.0332458   0.0332458  -0.2992126), wk =   0.0329218
        k(    6) = (   0.0332458   0.0997375   0.0997375), wk =   0.0658436
        k(    7) = (   0.0332458   0.0997375   0.1662292), wk =   0.1316872
        k(    8) = (   0.0332458   0.0997375   0.2327209), wk =   0.1316872
        k(    9) = (   0.0332458   0.0997375  -0.2992126), wk =   0.0658436
        k(   10) = (   0.0332458   0.1662292   0.1662292), wk =   0.0658436
        k(   11) = (   0.0332458   0.1662292   0.2327209), wk =   0.1316872
        k(   12) = (   0.0332458   0.1662292  -0.2992126), wk =   0.0658436
        k(   13) = (   0.0332458   0.2327209   0.2327209), wk =   0.0658436
        k(   14) = (   0.0332458   0.2327209  -0.2992126), wk =   0.0658436
        k(   15) = (   0.0332458  -0.2992126  -0.2992126), wk =   0.0164609
        k(   16) = (   0.0997375   0.0997375   0.0997375), wk =   0.0219479
        k(   17) = (   0.0997375   0.0997375   0.1662292), wk =   0.0658436
        k(   18) = (   0.0997375   0.0997375   0.2327209), wk =   0.0658436
        k(   19) = (   0.0997375   0.0997375  -0.2992126), wk =   0.0329218
        k(   20) = (   0.0997375   0.1662292   0.1662292), wk =   0.0658436
        k(   21) = (   0.0997375   0.1662292   0.2327209), wk =   0.1316872
        k(   22) = (   0.0997375   0.1662292  -0.2992126), wk =   0.0658436
        k(   23) = (   0.0997375   0.2327209   0.2327209), wk =   0.0658436
        k(   24) = (   0.0997375   0.2327209  -0.2992126), wk =   0.0658436
        k(   25) = (   0.0997375  -0.2992126  -0.2992126), wk =   0.0164609
        k(   26) = (   0.1662292   0.1662292   0.1662292), wk =   0.0219479
        k(   27) = (   0.1662292   0.1662292   0.2327209), wk =   0.0658436
        k(   28) = (   0.1662292   0.1662292  -0.2992126), wk =   0.0329218
        k(   29) = (   0.1662292   0.2327209   0.2327209), wk =   0.0658436
        k(   30) = (   0.1662292   0.2327209  -0.2992126), wk =   0.0658436
        k(   31) = (   0.1662292  -0.2992126  -0.2992126), wk =   0.0164609
        k(   32) = (   0.2327209   0.2327209   0.2327209), wk =   0.0219479
        k(   33) = (   0.2327209   0.2327209  -0.2992126), wk =   0.0329218
        k(   34) = (   0.2327209  -0.2992126  -0.2992126), wk =   0.0164609
        k(   35) = (  -0.2992126  -0.2992126  -0.2992126), wk =   0.0027435

     Dense  grid:   524481 G-vectors     FFT dimensions: ( 108, 108, 108)

     Smooth grid:   281849 G-vectors     FFT dimensions: (  81,  81,  81)

     Estimated max dynamical RAM per process >      54.05 MB

     Estimated total dynamical RAM >       3.80 GB

     Initial potential from superposition of free atoms

     starting charge  143.99694, renormalised to  144.00000
     Starting wfcs are   80 randomized atomic wfcs +    6 random wfcs
     Checking if some PAW data can be deallocated... 

     total cpu time spent up to now is        5.4 secs

     Self-consistent Calculation

     iteration #  1     ecut=    71.00 Ry     beta= 0.10
     Davidson diagonalization with overlap
     ethr =  1.00E-02,  avg # of iterations =  4.4

     total cpu time spent up to now is       12.5 secs

     total energy              =   -4095.32219909 Ry
     estimated scf accuracy    <       5.83265657 Ry

     iteration #  2     ecut=    71.00 Ry     beta= 0.10
     Davidson diagonalization with overlap
     ethr =  4.05E-03,  avg # of iterations =  1.1

     total cpu time spent up to now is       18.5 secs

     total energy              =   -4093.83470533 Ry
     estimated scf accuracy    <       4.32646563 Ry

     iteration #  3     ecut=    71.00 Ry     beta= 0.10
     Davidson diagonalization with overlap
     ethr =  3.00E-03,  avg # of iterations =  2.1

     total cpu time spent up to now is       26.4 secs

     total energy              =   -4094.23390132 Ry
     estimated scf accuracy    <       1.92157894 Ry

     iteration #  4     ecut=    71.00 Ry     beta= 0.10
     Davidson diagonalization with overlap
     ethr =  1.33E-03,  avg # of iterations =  1.2

     total cpu time spent up to now is       34.0 secs

     total energy              =   -4094.26827678 Ry
     estimated scf accuracy    <       0.71772477 Ry

     iteration #  5     ecut=    71.00 Ry     beta= 0.10
     Davidson diagonalization with overlap
     ethr =  4.98E-04,  avg # of iterations =  1.4

     total cpu time spent up to now is       41.4 secs

     total energy              =   -4094.21565503 Ry
     estimated scf accuracy    <       0.19128552 Ry

     iteration #  6     ecut=    71.00 Ry     beta= 0.10
     Davidson diagonalization with overlap
     ethr =  1.33E-04,  avg # of iterations =  3.1

     total cpu time spent up to now is       51.0 secs

     total energy              =   -4094.49483916 Ry
     estimated scf accuracy    <       2.43837769 Ry

     iteration #  7     ecut=    71.00 Ry     beta= 0.10
     Davidson diagonalization with overlap
     ethr =  1.33E-04,  avg # of iterations =  1.0

     total cpu time spent up to now is       57.9 secs

     total energy              =   -4094.38735337 Ry
     estimated scf accuracy    <       2.02670914 Ry

     iteration #  8     ecut=    71.00 Ry     beta= 0.10
     Davidson diagonalization with overlap
     ethr =  1.33E-04,  avg # of iterations =  1.0

     total cpu time spent up to now is       64.7 secs

     total energy              =   -4094.36645619 Ry
     estimated scf accuracy    <       1.27787171 Ry

     iteration #  9     ecut=    71.00 Ry     beta= 0.10
     Davidson diagonalization with overlap
     ethr =  1.33E-04,  avg # of iterations =  1.0

     total cpu time spent up to now is       71.2 secs

     total energy              =   -4094.32589226 Ry
     estimated scf accuracy    <       2.08688203 Ry

     iteration # 10     ecut=    71.00 Ry     beta= 0.10
     Davidson diagonalization with overlap
     ethr =  1.33E-04,  avg # of iterations =  1.0

     total cpu time spent up to now is       77.3 secs

     total energy              =   -4094.24219875 Ry
     estimated scf accuracy    <       0.79843599 Ry

     iteration # 11     ecut=    71.00 Ry     beta= 0.10
     Davidson diagonalization with overlap
     ethr =  1.33E-04,  avg # of iterations =  1.6

     total cpu time spent up to now is       83.9 secs

     total energy              =   -4094.25260653 Ry
     estimated scf accuracy    <       0.29393251 Ry

     iteration # 12     ecut=    71.00 Ry     beta= 0.10
     Davidson diagonalization with overlap
     ethr =  1.33E-04,  avg # of iterations =  1.0

     total cpu time spent up to now is       90.1 secs

     total energy              =   -4094.23449148 Ry
     estimated scf accuracy    <       0.24707464 Ry

     iteration # 13     ecut=    71.00 Ry     beta= 0.10
     Davidson diagonalization with overlap
     ethr =  1.33E-04,  avg # of iterations =  1.1

     total cpu time spent up to now is       96.4 secs

     total energy              =   -4094.20593799 Ry
     estimated scf accuracy    <       0.16154974 Ry

     iteration # 14     ecut=    71.00 Ry     beta= 0.10
     Davidson diagonalization with overlap
     ethr =  1.12E-04,  avg # of iterations =  1.3

     total cpu time spent up to now is      103.9 secs

     total energy              =   -4094.21526658 Ry
     estimated scf accuracy    <       0.03586608 Ry

     iteration # 15     ecut=    71.00 Ry     beta= 0.10
     Davidson diagonalization with overlap
     ethr =  2.49E-05,  avg # of iterations =  1.2

     total cpu time spent up to now is      110.0 secs

     total energy              =   -4094.21227596 Ry
     estimated scf accuracy    <       0.01859902 Ry

     iteration # 16     ecut=    71.00 Ry     beta= 0.10
     Davidson diagonalization with overlap
     ethr =  1.29E-05,  avg # of iterations =  2.9

     total cpu time spent up to now is      116.7 secs

     total energy              =   -4094.21414184 Ry
     estimated scf accuracy    <       0.00784791 Ry

     iteration # 17     ecut=    71.00 Ry     beta= 0.10
     Davidson diagonalization with overlap
     ethr =  5.45E-06,  avg # of iterations =  2.2

     total cpu time spent up to now is      122.9 secs

     total energy              =   -4094.21434519 Ry
     estimated scf accuracy    <       0.00997854 Ry

     iteration # 18     ecut=    71.00 Ry     beta= 0.10
     Davidson diagonalization with overlap
     ethr =  5.45E-06,  avg # of iterations =  1.5

     total cpu time spent up to now is      129.8 secs

     total energy              =   -4094.21442454 Ry
     estimated scf accuracy    <       0.00077098 Ry

     iteration # 19     ecut=    71.00 Ry     beta= 0.10
     Davidson diagonalization with overlap
     c_bands:  1 eigenvalues not converged
     ethr =  5.35E-07,  avg # of iterations =  4.2

     total cpu time spent up to now is      138.6 secs

     total energy              =   -4094.21446812 Ry
     estimated scf accuracy    <       0.01164602 Ry

     iteration # 20     ecut=    71.00 Ry     beta= 0.10
     Davidson diagonalization with overlap
     ethr =  5.35E-07,  avg # of iterations =  2.3

     total cpu time spent up to now is      147.3 secs

     total energy              =   -4094.21452858 Ry
     estimated scf accuracy    <       0.00199265 Ry

     iteration # 21     ecut=    71.00 Ry     beta= 0.10
     Davidson diagonalization with overlap
     ethr =  5.35E-07,  avg # of iterations =  1.0

     total cpu time spent up to now is      153.5 secs

     total energy              =   -4094.21454925 Ry
     estimated scf accuracy    <       0.00045584 Ry

     iteration # 22     ecut=    71.00 Ry     beta= 0.10
     Davidson diagonalization with overlap
     ethr =  3.17E-07,  avg # of iterations =  1.0

     total cpu time spent up to now is      160.2 secs

     total energy              =   -4094.21451440 Ry
     estimated scf accuracy    <       0.00023335 Ry

     iteration # 23     ecut=    71.00 Ry     beta= 0.10
     Davidson diagonalization with overlap
     ethr =  1.62E-07,  avg # of iterations =  1.3

     total cpu time spent up to now is      166.2 secs

     total energy              =   -4094.21454021 Ry
     estimated scf accuracy    <       0.00000392 Ry

     iteration # 24     ecut=    71.00 Ry     beta= 0.10
     Davidson diagonalization with overlap
     ethr =  2.72E-09,  avg # of iterations =  3.4

     total cpu time spent up to now is      174.2 secs

     total energy              =   -4094.21454411 Ry
     estimated scf accuracy    <       0.00000706 Ry

     iteration # 25     ecut=    71.00 Ry     beta= 0.10
     Davidson diagonalization with overlap
     ethr =  2.72E-09,  avg # of iterations =  2.0

     total cpu time spent up to now is      181.9 secs

     total energy              =   -4094.21454679 Ry
     estimated scf accuracy    <       0.00000522 Ry

     iteration # 26     ecut=    71.00 Ry     beta= 0.10
     Davidson diagonalization with overlap
     ethr =  2.72E-09,  avg # of iterations =  2.0

     total cpu time spent up to now is      187.9 secs

     End of self-consistent calculation

          k = 0.0332 0.0332 0.0332 ( 35225 PWs)   bands (ev):

   -81.4082 -81.4082 -81.4082 -81.4081 -81.4080 -81.4080 -81.4080 -81.4077
   -47.2141 -47.2141 -47.2141 -47.2141 -47.2141 -47.2141 -47.2140 -47.2140
   -47.2140 -47.2138 -47.2138 -47.2137 -47.2124 -47.2124 -47.2124 -47.2123
   -47.2123 -47.2123 -47.2123 -47.2123 -47.2123 -47.2121 -47.2121 -47.2121
    -0.3407  -0.0555  -0.0555  -0.0101  -0.0101  -0.0101   0.0126   0.0126
     0.0126   0.0247   0.0247   0.0247   0.0604   0.0604   0.0604   0.0792
     0.0808   0.0808   0.2984   0.2984   0.2984   0.3000   0.3000   0.3000
     0.3233   0.3233   0.3233   0.3235   0.3235   0.3236   0.4490   0.4494
     0.4494   0.4625   0.4625   0.4625   0.5811   0.5811   0.5811   0.5908
     0.5908   1.7819   1.7819   1.7819   3.2417   3.2417   3.2417   3.3666
     3.3667   3.3667   4.8275   4.8277   4.8278   5.0494

          k = 0.0332 0.0332 0.0997 ( 35216 PWs)   bands (ev):

   -81.4082 -81.4082 -81.4082 -81.4081 -81.4080 -81.4080 -81.4080 -81.4077
   -47.2141 -47.2141 -47.2141 -47.2141 -47.2140 -47.2140 -47.2140 -47.2140
   -47.2139 -47.2138 -47.2138 -47.2137 -47.2126 -47.2124 -47.2124 -47.2124
   -47.2124 -47.2123 -47.2123 -47.2123 -47.2123 -47.2122 -47.2121 -47.2121
    -0.2853  -0.0528  -0.0356  -0.0128  -0.0007  -0.0007   0.0152   0.0167
     0.0273   0.0273   0.0566   0.0566   0.0567   0.0568   0.0759   0.0919
     0.0933   0.0941   0.2783   0.2783   0.3009   0.3009   0.3070   0.3070
     0.3072   0.3087   0.3220   0.3220   0.3315   0.3315   0.4399   0.4400
     0.4501   0.4539   0.4539   0.4617   0.5530   0.5530   0.5589   0.5817
     0.5902   1.4622   1.8172   1.8173   3.0711   3.0711   3.3101   3.3101
     3.4092   3.6793   4.6398   4.6403   4.7315   4.8903

          k = 0.0332 0.0332 0.1662 ( 35213 PWs)   bands (ev):

   -81.4082 -81.4082 -81.4082 -81.4081 -81.4080 -81.4080 -81.4080 -81.4077
   -47.2141 -47.2141 -47.2141 -47.2141 -47.2140 -47.2140 -47.2138 -47.2138
   -47.2138 -47.2137 -47.2137 -47.2135 -47.2127 -47.2125 -47.2125 -47.2124
   -47.2124 -47.2123 -47.2123 -47.2123 -47.2123 -47.2123 -47.2121 -47.2121
    -0.1926  -0.0477  -0.0180  -0.0029   0.0087   0.0087   0.0205   0.0243
     0.0498   0.0498   0.0557   0.0557   0.0682   0.1186   0.1193   0.1242
     0.1243   0.1513   0.2412   0.2412   0.2771   0.2773   0.3036   0.3036
     0.3192   0.3193   0.3232   0.3252   0.3468   0.3468   0.4226   0.4228
     0.4378   0.4378   0.4516   0.4602   0.4974   0.4974   0.4987   0.5829
     0.5892   1.0733   1.8914   1.8914   2.7264   2.7264   3.4425   3.4425
     3.4963   4.3038   4.3775   4.3994   4.3994   4.9680

          k = 0.0332 0.0332 0.2327 ( 35234 PWs)   bands (ev):

   -81.4082 -81.4082 -81.4082 -81.4081 -81.4080 -81.4080 -81.4080 -81.4077
   -47.2141 -47.2141 -47.2141 -47.2141 -47.2140 -47.2140 -47.2138 -47.2138
   -47.2135 -47.2135 -47.2135 -47.2133 -47.2130 -47.2129 -47.2128 -47.2126
   -47.2124 -47.2124 -47.2123 -47.2123 -47.2123 -47.2123 -47.2121 -47.2121
    -0.1116  -0.0408  -0.0288  -0.0250   0.0189   0.0189   0.0345   0.0405
     0.0405   0.0579   0.0953   0.0953   0.1536   0.1543   0.1584   0.1926
     0.1926   0.2178   0.2178   0.2294   0.2382   0.2405   0.3072   0.3072
     0.3156   0.3156   0.3448   0.3475   0.3672   0.3672   0.3993   0.4006
     0.4163   0.4163   0.4173   0.4177   0.4177   0.4536   0.4582   0.5844
     0.5877   0.7098   2.0112   2.0112   2.4244   2.4244   3.6309   3.6309
     3.6318   4.0692   4.1281   4.1281   5.0208   5.2008

          k = 0.0332 0.0332-0.2992 ( 35200 PWs)   bands (ev):

   -81.4082 -81.4082 -81.4082 -81.4081 -81.4080 -81.4080 -81.4080 -81.4077
   -47.2141 -47.2141 -47.2141 -47.2140 -47.2140 -47.2140 -47.2138 -47.2138
   -47.2133 -47.2132 -47.2132 -47.2131 -47.2131 -47.2131 -47.2130 -47.2128
   -47.2124 -47.2124 -47.2124 -47.2123 -47.2123 -47.2123 -47.2121 -47.2121
    -0.0628  -0.0627  -0.0329  -0.0329   0.0297   0.0298   0.0298   0.0298
     0.0462   0.0462   0.1428   0.1428   0.1428   0.1428   0.1947   0.1948
     0.1955   0.1955   0.3114   0.3114   0.3114   0.3114   0.3191   0.3191
     0.3191   0.3191   0.3247   0.3248   0.3573   0.3574   0.3732   0.3732
     0.3923   0.3923   0.3924   0.3924   0.4126   0.4126   0.4559   0.4559
     0.5861   0.5861   2.1861   2.1861   2.1862   2.1862   3.8209   3.8211
     3.8644   3.8644   3.8645   3.8645   5.3818   5.3820

          k = 0.0332 0.0997 0.0997 ( 35210 PWs)   bands (ev):

   -81.4082 -81.4082 -81.4082 -81.4081 -81.4080 -81.4080 -81.4080 -81.4077
   -47.2141 -47.2141 -47.2140 -47.2140 -47.2140 -47.2140 -47.2139 -47.2139
   -47.2139 -47.2138 -47.2137 -47.2137 -47.2126 -47.2125 -47.2125 -47.2124
   -47.2124 -47.2124 -47.2123 -47.2123 -47.2123 -47.2122 -47.2122 -47.2121
    -0.2291  -0.0399  -0.0272  -0.0041  -0.0041   0.0183   0.0312   0.0312
     0.0414   0.0478   0.0479   0.0531   0.0779   0.0847   0.0881   0.0881
     0.0941   0.1066   0.2737   0.2869   0.2872   0.2873   0.3055   0.3055
     0.3095   0.3095   0.3155   0.3156   0.3292   0.3311   0.4309   0.4398
     0.4418   0.4450   0.4530   0.4530   0.5275   0.5438   0.5540   0.5540
     0.5734   1.5018   1.5019   1.8535   2.7922   3.1162   3.1163   3.3781
     3.7433   3.7433   4.4425   4.7059   4.7061   5.2080

          k = 0.0332 0.0997 0.1662 ( 35198 PWs)   bands (ev):

   -81.4082 -81.4082 -81.4082 -81.4081 -81.4080 -81.4080 -81.4080 -81.4077
   -47.2141 -47.2141 -47.2140 -47.2140 -47.2139 -47.2139 -47.2138 -47.2138
   -47.2137 -47.2137 -47.2137 -47.2135 -47.2127 -47.2126 -47.2125 -47.2125
   -47.2124 -47.2124 -47.2124 -47.2123 -47.2123 -47.2123 -47.2122 -47.2121
    -0.1394  -0.0299  -0.0109   0.0048   0.0256   0.0319   0.0358   0.0385
     0.0459   0.0592   0.0689   0.0804   0.0811   0.1156   0.1164   0.1312
     0.1357   0.1472   0.2414   0.2511   0.2753   0.2859   0.2864   0.3025
     0.3036   0.3122   0.3259   0.3273   0.3311   0.3456   0.4144   0.4235
     0.4284   0.4368   0.4425   0.4514   0.4767   0.4903   0.4997   0.5559
     0.5664   1.1151   1.5835   1.9294   2.4517   2.7722   3.2080   3.5099
     3.8683   4.1009   4.3657   4.4650   4.7957   4.8342

          k = 0.0332 0.0997 0.2327 ( 35201 PWs)   bands (ev):

   -81.4082 -81.4082 -81.4082 -81.4081 -81.4080 -81.4080 -81.4080 -81.4077
   -47.2141 -47.2141 -47.2140 -47.2140 -47.2139 -47.2139 -47.2138 -47.2137
   -47.2135 -47.2135 -47.2134 -47.2133 -47.2130 -47.2129 -47.2128 -47.2126
   -47.2125 -47.2124 -47.2124 -47.2123 -47.2123 -47.2123 -47.2122 -47.2121
    -0.0747  -0.0220  -0.0202   0.0118   0.0148   0.0365   0.0484   0.0487
     0.0708   0.0715   0.0984   0.1072   0.1513   0.1652   0.1717   0.1920
     0.1943   0.2198   0.2233   0.2237   0.2368   0.2515   0.2894   0.2985
     0.3157   0.3238   0.3240   0.3480   0.3504   0.3658   0.3953   0.4020
     0.4028   0.4066   0.4114   0.4152   0.4235   0.4446   0.4493   0.5582
     0.5633   0.7529   1.7128   2.0515   2.1449   2.4693   3.3490   3.6976
     3.7946   4.0482   4.1938   4.5319   5.0176   5.0818

          k = 0.0332 0.0997-0.2992 ( 35198 PWs)   bands (ev):

   -81.4082 -81.4082 -81.4082 -81.4081 -81.4080 -81.4080 -81.4080 -81.4077
   -47.2140 -47.2140 -47.2140 -47.2140 -47.2139 -47.2139 -47.2138 -47.2137
   -47.2133 -47.2132 -47.2132 -47.2131 -47.2131 -47.2131 -47.2130 -47.2129
   -47.2125 -47.2125 -47.2124 -47.2123 -47.2123 -47.2123 -47.2122 -47.2121
    -0.0412  -0.0411  -0.0069  -0.0068   0.0257   0.0258   0.0596   0.0596
     0.0604   0.0605   0.1452   0.1452   0.1528   0.1528   0.1926   0.1926
     0.2049   0.2050   0.2939   0.2939   0.3092   0.3093   0.3191   0.3191
     0.3198   0.3198   0.3207   0.3207   0.3297   0.3297   0.3732   0.3733
     0.3846   0.3847   0.3911   0.3912   0.4460   0.4460   0.4609   0.4609
     0.5607   0.5608   1.8976   1.8978   2.2289   2.2290   3.5433   3.5436
     3.9304   3.9306   4.2740   4.2741   5.2454   5.2455

          k = 0.0332 0.1662 0.1662 ( 35186 PWs)   bands (ev):

   -81.4082 -81.4082 -81.4082 -81.4081 -81.4080 -81.4080 -81.4080 -81.4077
   -47.2140 -47.2140 -47.2140 -47.2138 -47.2138 -47.2138 -47.2138 -47.2137
   -47.2137 -47.2137 -47.2135 -47.2135 -47.2127 -47.2127 -47.2126 -47.2126
   -47.2125 -47.2125 -47.2124 -47.2123 -47.2123 -47.2123 -47.2123 -47.2121
    -0.0767  -0.0030  -0.0030   0.0283   0.0387   0.0531   0.0659   0.0659
     0.0737   0.0944   0.0966   0.1007   0.1007   0.1190   0.1395   0.1396
     0.1544   0.1696   0.2334   0.2623   0.2684   0.2684   0.2719   0.2719
     0.3030   0.3030   0.3283   0.3283   0.3407   0.3451   0.4012   0.4112
     0.4234   0.4275   0.4347   0.4351   0.4351   0.4605   0.5035   0.5035
     0.5372   1.2008   1.2009   2.0085   2.1070   2.8652   2.8652   3.6406
     3.7643   4.4868   4.4868   4.5927   4.5928   5.2727

          k = 0.0332 0.1662 0.2327 ( 35173 PWs)   bands (ev):

   -81.4082 -81.4082 -81.4082 -81.4081 -81.4080 -81.4080 -81.4080 -81.4077
   -47.2140 -47.2140 -47.2140 -47.2138 -47.2138 -47.2137 -47.2137 -47.2135
   -47.2135 -47.2135 -47.2134 -47.2133 -47.2129 -47.2129 -47.2128 -47.2127
   -47.2126 -47.2126 -47.2125 -47.2124 -47.2123 -47.2123 -47.2123 -47.2121
    -0.0476  -0.0143   0.0069   0.0291   0.0462   0.0749   0.0823   0.0942
     0.1000   0.1041   0.1292   0.1299   0.1477   0.1834   0.1865   0.1960
     0.2074   0.2153   0.2307   0.2328   0.2384   0.2585   0.2673   0.2690
     0.2886   0.3228   0.3317   0.3391   0.3503   0.3619   0.3737   0.3894
     0.3955   0.3957   0.4077   0.4133   0.4284   0.4314   0.4328   0.5081
     0.5215   0.8404   1.3365   1.7898   2.1350   2.5606   3.0082   3.4580
     3.8271   4.3216   4.6623   4.7756   5.1325   5.2018

          k = 0.0332 0.1662-0.2992 ( 35192 PWs)   bands (ev):

   -81.4082 -81.4082 -81.4082 -81.4081 -81.4080 -81.4080 -81.4080 -81.4077
   -47.2140 -47.2140 -47.2140 -47.2138 -47.2138 -47.2137 -47.2137 -47.2135
   -47.2133 -47.2132 -47.2132 -47.2132 -47.2131 -47.2131 -47.2130 -47.2129
   -47.2127 -47.2126 -47.2125 -47.2124 -47.2123 -47.2123 -47.2123 -47.2121
    -0.0291  -0.0290   0.0180   0.0181   0.0634   0.0635   0.0849   0.0850
     0.1165   0.1166   0.1494   0.1494   0.1718   0.1718   0.1884   0.1884
     0.2233   0.2233   0.2623   0.2624   0.2891   0.2891   0.2976   0.2976
     0.3112   0.3112   0.3153   0.3153   0.3355   0.3356   0.3753   0.3753
     0.3756   0.3756   0.3890   0.3890   0.4299   0.4300   0.5137   0.5137
     0.5424   0.5424   1.5309   1.5310   2.3167   2.3169   3.2047   3.2049
     4.0588   4.0590   4.8834   4.8835   5.0035   5.0035

          k = 0.0332 0.2327 0.2327 ( 35177 PWs)   bands (ev):

   -81.4082 -81.4082 -81.4082 -81.4081 -81.4080 -81.4080 -81.4080 -81.4077
   -47.2140 -47.2140 -47.2140 -47.2138 -47.2136 -47.2135 -47.2135 -47.2135
   -47.2134 -47.2134 -47.2133 -47.2132 -47.2129 -47.2129 -47.2129 -47.2128
   -47.2128 -47.2128 -47.2126 -47.2126 -47.2123 -47.2123 -47.2123 -47.2121
    -0.0317  -0.0041  -0.0041   0.0190   0.1088   0.1115   0.1115   0.1173
     0.1525   0.1528   0.1618   0.1668   0.1668   0.1880   0.2040   0.2040
     0.2157   0.2277   0.2278   0.2291   0.2482   0.2483   0.2570   0.2696
     0.2897   0.2897   0.3218   0.3534   0.3534   0.3573   0.3574   0.3652
     0.3706   0.3991   0.4083   0.4108   0.4108   0.4409   0.4409   0.4758
     0.4800   0.9805   0.9806   1.4585   2.2669   2.7020   2.7020   3.1509
     4.0122   4.5045   4.5047   4.9929   5.3758   5.3758

          k = 0.0332 0.2327-0.2992 ( 35206 PWs)   bands (ev):

   -81.4082 -81.4082 -81.4082 -81.4081 -81.4080 -81.4080 -81.4080 -81.4077
   -47.2141 -47.2140 -47.2140 -47.2138 -47.2136 -47.2135 -47.2134 -47.2133
   -47.2133 -47.2132 -47.2132 -47.2132 -47.2131 -47.2131 -47.2131 -47.2129
   -47.2129 -47.2128 -47.2128 -47.2126 -47.2123 -47.2123 -47.2123 -47.2121
    -0.0173  -0.0172   0.0074   0.0075   0.1185   0.1186   0.1436   0.1437
     0.1534   0.1534   0.1845   0.1845   0.1860   0.1861   0.1981   0.1982
     0.2236   0.2236   0.2479   0.2479   0.2572   0.2572   0.2638   0.2638
     0.2918   0.2919   0.3008   0.3008   0.3568   0.3568   0.3781   0.3781
     0.3783   0.3783   0.3862   0.3863   0.4079   0.4080   0.4548   0.4548
     0.6813   0.6814   1.1851   1.1852   2.4540   2.4542   2.8976   2.8979
     4.2427   4.2428   4.7330   4.7330   5.5935   5.5936

          k = 0.0332-0.2992-0.2992 ( 35196 PWs)   bands (ev):

   -81.4082 -81.4082 -81.4082 -81.4081 -81.4080 -81.4080 -81.4080 -81.4077
   -47.2141 -47.2141 -47.2141 -47.2138 -47.2132 -47.2132 -47.2132 -47.2132
   -47.2132 -47.2132 -47.2132 -47.2132 -47.2131 -47.2131 -47.2131 -47.2131
   -47.2131 -47.2130 -47.2129 -47.2129 -47.2123 -47.2123 -47.2123 -47.2121
    -0.0048  -0.0047  -0.0047  -0.0046   0.1480   0.1480   0.1480   0.1480
     0.1904   0.1904   0.1904   0.1904   0.2094   0.2095   0.2095   0.2095
     0.2303   0.2303   0.2303   0.2303   0.2508   0.2508   0.2508   0.2509
     0.2764   0.2764   0.2764   0.2764   0.3778   0.3778   0.3778   0.3779
     0.3865   0.3865   0.3865   0.3866   0.4039   0.4040   0.4040   0.4040
     0.8961   0.8961   0.8961   0.8962   2.6462   2.6465   2.6465   2.6466
     4.4720   4.4720   4.4721   4.4723   6.3099   6.3100

          k = 0.0997 0.0997 0.0997 ( 35183 PWs)   bands (ev):

   -81.4082 -81.4082 -81.4082 -81.4081 -81.4080 -81.4080 -81.4080 -81.4077
   -47.2140 -47.2140 -47.2140 -47.2140 -47.2139 -47.2139 -47.2139 -47.2139
   -47.2139 -47.2137 -47.2136 -47.2136 -47.2125 -47.2125 -47.2125 -47.2124
   -47.2124 -47.2124 -47.2124 -47.2124 -47.2123 -47.2122 -47.2122 -47.2122
    -0.1702  -0.0245  -0.0245   0.0154   0.0154   0.0155   0.0452   0.0452
     0.0452   0.0687   0.0687   0.0687   0.0843   0.0843   0.0843   0.0936
     0.1070   0.1070   0.2825   0.2825   0.2825   0.2960   0.2960   0.2960
     0.3130   0.3130   0.3130   0.3149   0.3149   0.3149   0.4312   0.4321
     0.4321   0.4441   0.4441   0.4441   0.5289   0.5289   0.5289   0.5430
     0.5430   1.5422   1.5422   1.5423   2.8394   2.8395   2.8395   3.8072
     3.8072   3.8072   4.1720   5.0098   5.2666   5.2681

          k = 0.0997 0.0997 0.1662 ( 35221 PWs)   bands (ev):

   -81.4082 -81.4082 -81.4082 -81.4081 -81.4080 -81.4080 -81.4080 -81.4077
   -47.2140 -47.2140 -47.2140 -47.2139 -47.2139 -47.2139 -47.2138 -47.2138
   -47.2138 -47.2137 -47.2137 -47.2135 -47.2127 -47.2126 -47.2126 -47.2125
   -47.2125 -47.2124 -47.2124 -47.2124 -47.2124 -47.2124 -47.2122 -47.2122
    -0.0804  -0.0195   0.0101   0.0314   0.0323   0.0324   0.0516   0.0523
     0.0721   0.0721   0.0774   0.0774   0.0920   0.1262   0.1265   0.1265
     0.1315   0.1430   0.2512   0.2512   0.2836   0.2855   0.2948   0.2949
     0.2982   0.3109   0.3109   0.3131   0.3297   0.3297   0.4141   0.4171
     0.4274   0.4274   0.4336   0.4423   0.4791   0.4791   0.4852   0.5312
     0.5414   1.1577   1.6254   1.6254   2.4998   2.4998   2.9350   3.8390
     3.9320   3.9320   4.4274   4.8596   4.8596   5.3845

          k = 0.0997 0.0997 0.2327 ( 35208 PWs)   bands (ev):

   -81.4082 -81.4082 -81.4082 -81.4081 -81.4080 -81.4080 -81.4080 -81.4077
   -47.2140 -47.2140 -47.2140 -47.2139 -47.2139 -47.2139 -47.2137 -47.2137
   -47.2135 -47.2135 -47.2134 -47.2133 -47.2129 -47.2129 -47.2128 -47.2126
   -47.2125 -47.2125 -47.2125 -47.2124 -47.2123 -47.2123 -47.2122 -47.2122
    -0.0290  -0.0127   0.0031   0.0287   0.0448   0.0448   0.0618   0.0675
     0.0675   0.0832   0.1102   0.1102   0.1597   0.1656   0.1866   0.1954
     0.1954   0.2169   0.2236   0.2236   0.2473   0.2508   0.2983   0.2983
     0.3070   0.3070   0.3167   0.3364   0.3485   0.3485   0.3900   0.4054
     0.4054   0.4064   0.4066   0.4088   0.4088   0.4365   0.4399   0.5339
     0.5393   0.7967   1.7566   1.7566   2.1924   2.1924   3.0807   3.5337
     4.1117   4.1117   4.5953   4.5953   5.1429   5.5555

          k = 0.0997 0.0997-0.2992 ( 35204 PWs)   bands (ev):

   -81.4082 -81.4082 -81.4082 -81.4081 -81.4080 -81.4080 -81.4080 -81.4077
   -47.2140 -47.2140 -47.2139 -47.2139 -47.2139 -47.2139 -47.2137 -47.2137
   -47.2133 -47.2132 -47.2132 -47.2131 -47.2131 -47.2131 -47.2130 -47.2129
   -47.2125 -47.2125 -47.2125 -47.2124 -47.2123 -47.2123 -47.2122 -47.2122
    -0.0049  -0.0048   0.0020   0.0020   0.0564   0.0565   0.0565   0.0565
     0.0726   0.0726   0.1551   0.1551   0.1552   0.1552   0.1993   0.1993
     0.2056   0.2056   0.3024   0.3024   0.3024   0.3024   0.3098   0.3099
     0.3099   0.3099   0.3170   0.3170   0.3195   0.3195   0.3630   0.3630
     0.3825   0.3825   0.3825   0.3825   0.4360   0.4360   0.5046   0.5046
     0.5367   0.5367   1.9435   1.9436   1.9437   1.9437   3.2795   3.2797
     4.3373   4.3373   4.3374   4.3374   5.5506   5.5508

          k = 0.0997 0.1662 0.1662 ( 35209 PWs)   bands (ev):

   -81.4082 -81.4082 -81.4082 -81.4081 -81.4080 -81.4080 -81.4080 -81.4077
   -47.2140 -47.2139 -47.2139 -47.2138 -47.2138 -47.2138 -47.2138 -47.2137
   -47.2137 -47.2137 -47.2136 -47.2135 -47.2127 -47.2127 -47.2126 -47.2126
   -47.2125 -47.2125 -47.2125 -47.2124 -47.2124 -47.2124 -47.2124 -47.2122
    -0.0253   0.0257   0.0257   0.0309   0.0698   0.0706   0.0711   0.0788
     0.0788   0.0976   0.1074   0.1105   0.1105   0.1312   0.1353   0.1353
     0.1527   0.1591   0.2434   0.2681   0.2681   0.2722   0.2811   0.2811
     0.3013   0.3013   0.3117   0.3117   0.3247   0.3288   0.4015   0.4099
     0.4173   0.4206   0.4254   0.4254   0.4378   0.4594   0.4829   0.4829
     0.5098   1.2450   1.2450   1.7113   2.1564   2.5968   2.5969   3.5091
     4.0564   4.5485   4.5485   4.9843   4.9844   5.3379

          k = 0.0997 0.1662 0.2327 ( 35191 PWs)   bands (ev):

   -81.4082 -81.4082 -81.4082 -81.4081 -81.4080 -81.4080 -81.4080 -81.4077
   -47.2140 -47.2139 -47.2139 -47.2138 -47.2137 -47.2137 -47.2137 -47.2136
   -47.2135 -47.2135 -47.2134 -47.2133 -47.2129 -47.2129 -47.2128 -47.2127
   -47.2126 -47.2126 -47.2125 -47.2125 -47.2124 -47.2124 -47.2124 -47.2122
    -0.0087   0.0164   0.0374   0.0510   0.0601   0.0875   0.0907   0.0964
     0.1058   0.1157   0.1250   0.1327   0.1585   0.1847   0.1882   0.2004
     0.2087   0.2224   0.2322   0.2340   0.2451   0.2671   0.2683   0.2767
     0.2873   0.3149   0.3209   0.3226   0.3344   0.3437   0.3804   0.3842
     0.3876   0.3928   0.4030   0.4118   0.4160   0.4225   0.4358   0.4872
     0.4976   0.8860   1.3828   1.8392   1.8462   2.2885   2.7448   3.2028
     4.2357   4.7191   4.7240   5.1637   5.1948   5.2628

          k = 0.0997 0.1662-0.2992 ( 35228 PWs)   bands (ev):

   -81.4082 -81.4082 -81.4082 -81.4081 -81.4080 -81.4080 -81.4080 -81.4077
   -47.2140 -47.2140 -47.2140 -47.2138 -47.2138 -47.2138 -47.2137 -47.2135
   -47.2133 -47.2132 -47.2132 -47.2132 -47.2131 -47.2131 -47.2130 -47.2129
   -47.2127 -47.2126 -47.2125 -47.2125 -47.2124 -47.2124 -47.2124 -47.2122
     0.0047   0.0048   0.0489   0.0490   0.0700   0.0701   0.0971   0.0971
     0.1124   0.1125   0.1592   0.1593   0.1741   0.1741   0.1972   0.1973
     0.2218   0.2218   0.2719   0.2720   0.2897   0.2897   0.2957   0.2957
     0.3077   0.3077   0.3085   0.3085   0.3193   0.3193   0.3600   0.3600
     0.3704   0.3704   0.3788   0.3788   0.4187   0.4187   0.4919   0.4919
     0.5886   0.5886   1.5792   1.5793   2.0369   2.0371   2.9462   2.9464
     4.4611   4.4612   4.9452   4.9453   5.3884   5.3885

          k = 0.0997 0.2327 0.2327 ( 35195 PWs)   bands (ev):

   -81.4082 -81.4082 -81.4082 -81.4081 -81.4080 -81.4080 -81.4080 -81.4077
   -47.2140 -47.2140 -47.2139 -47.2137 -47.2135 -47.2135 -47.2135 -47.2135
   -47.2134 -47.2134 -47.2133 -47.2133 -47.2130 -47.2129 -47.2128 -47.2128
   -47.2128 -47.2128 -47.2126 -47.2126 -47.2125 -47.2124 -47.2124 -47.2122
     0.0029   0.0272   0.0272   0.0501   0.1110   0.1228   0.1228   0.1279
     0.1488   0.1635   0.1642   0.1712   0.1712   0.1954   0.1976   0.1976
     0.2138   0.2403   0.2403   0.2407   0.2489   0.2489   0.2614   0.2620
     0.2878   0.2878   0.3178   0.3372   0.3372   0.3414   0.3563   0.3577
     0.3672   0.3811   0.3974   0.3997   0.3997   0.4241   0.4241   0.4574
     0.5213   1.0285   1.0285   1.5086   1.9859   2.4357   2.4358   2.8949
     4.4146   4.8975   4.8976   5.3790   5.4369   5.4369

          k = 0.0997 0.2327-0.2992 ( 35190 PWs)   bands (ev):

   -81.4082 -81.4082 -81.4082 -81.4081 -81.4080 -81.4080 -81.4080 -81.4077
   -47.2139 -47.2139 -47.2139 -47.2137 -47.2135 -47.2135 -47.2135 -47.2133
   -47.2132 -47.2132 -47.2132 -47.2132 -47.2131 -47.2131 -47.2130 -47.2129
   -47.2129 -47.2128 -47.2128 -47.2126 -47.2125 -47.2124 -47.2124 -47.2122
     0.0153   0.0153   0.0387   0.0388   0.1294   0.1295   0.1468   0.1468
     0.1630   0.1630   0.1807   0.1808   0.1935   0.1936   0.2002   0.2002
     0.2360   0.2361   0.2460   0.2461   0.2581   0.2581   0.2645   0.2646
     0.2906   0.2907   0.2963   0.2963   0.3411   0.3412   0.3621   0.3621
     0.3678   0.3678   0.3747   0.3747   0.3960   0.3961   0.4356   0.4356
     0.7306   0.7306   1.2348   1.2349   2.1811   2.1813   2.6373   2.6374
     4.6396   4.6397   5.1220   5.1220   5.6548   5.6549

          k = 0.0997-0.2992-0.2992 ( 35188 PWs)   bands (ev):

   -81.4082 -81.4082 -81.4082 -81.4081 -81.4080 -81.4080 -81.4080 -81.4077
   -47.2139 -47.2139 -47.2139 -47.2137 -47.2133 -47.2132 -47.2132 -47.2132
   -47.2132 -47.2132 -47.2131 -47.2131 -47.2131 -47.2131 -47.2131 -47.2131
   -47.2130 -47.2130 -47.2129 -47.2129 -47.2124 -47.2124 -47.2124 -47.2122
     0.0270   0.0271   0.0271   0.0272   0.1577   0.1577   0.1577   0.1577
     0.1981   0.1981   0.1981   0.1981   0.2107   0.2108   0.2108   0.2108
     0.2319   0.2319   0.2319   0.2319   0.2518   0.2519   0.2519   0.2519
     0.2738   0.2739   0.2739   0.2739   0.3614   0.3614   0.3614   0.3614
     0.3751   0.3751   0.3751   0.3752   0.3882   0.3883   0.3883   0.3883
     0.9465   0.9465   0.9465   0.9466   2.3803   2.3805   2.3805   2.3806
     4.8643   4.8643   4.8643   4.8644   6.3734   6.3734

          k = 0.1662 0.1662 0.1662 ( 35208 PWs)   bands (ev):

   -81.4082 -81.4082 -81.4082 -81.4081 -81.4080 -81.4080 -81.4080 -81.4077
   -47.2138 -47.2138 -47.2138 -47.2138 -47.2138 -47.2138 -47.2137 -47.2137
   -47.2137 -47.2135 -47.2135 -47.2135 -47.2127 -47.2127 -47.2127 -47.2126
   -47.2126 -47.2126 -47.2126 -47.2126 -47.2126 -47.2124 -47.2124 -47.2124
     0.0357   0.0357   0.0650   0.0650   0.0650   0.1035   0.1035   0.1035
     0.1234   0.1276   0.1276   0.1276   0.1396   0.1415   0.1415   0.1416
     0.1544   0.1544   0.2595   0.2595   0.2595   0.2907   0.2907   0.2907
     0.2960   0.2960   0.2960   0.3000   0.3000   0.3000   0.3982   0.3982
     0.4074   0.4074   0.4074   0.4278   0.4421   0.4421   0.4421   0.4573
     0.4573   1.3354   1.3354   1.3354   2.2557   2.2558   2.2558   3.1811
     4.6695   4.6695   4.6695   5.4651   5.4651   5.7735

          k = 0.1662 0.1662 0.2327 ( 35185 PWs)   bands (ev):

   -81.4082 -81.4082 -81.4082 -81.4081 -81.4080 -81.4080 -81.4080 -81.4077
   -47.2138 -47.2138 -47.2138 -47.2137 -47.2137 -47.2137 -47.2135 -47.2135
   -47.2135 -47.2135 -47.2134 -47.2133 -47.2129 -47.2128 -47.2128 -47.2127
   -47.2126 -47.2126 -47.2126 -47.2126 -47.2126 -47.2126 -47.2124 -47.2124
     0.0422   0.0578   0.0686   0.0897   0.0897   0.1114   0.1173   0.1173
     0.1195   0.1267   0.1379   0.1379   0.1754   0.1864   0.1989   0.1989
     0.2002   0.2348   0.2348   0.2493   0.2636   0.2638   0.2771   0.2866
     0.2866   0.2936   0.2936   0.3156   0.3168   0.3168   0.3727   0.3842
     0.3842   0.3848   0.3858   0.3858   0.3957   0.4039   0.4466   0.4543
     0.4862   0.9790   1.4770   1.4770   1.9388   1.9388   2.4069   2.8726
     4.8449   4.8449   5.3168   5.3168   5.3827   5.6474

          k = 0.1662 0.1662-0.2992 ( 35208 PWs)   bands (ev):

   -81.4082 -81.4082 -81.4082 -81.4081 -81.4080 -81.4080 -81.4080 -81.4077
   -47.2138 -47.2138 -47.2138 -47.2138 -47.2137 -47.2137 -47.2136 -47.2135
   -47.2132 -47.2132 -47.2132 -47.2132 -47.2131 -47.2131 -47.2130 -47.2129
   -47.2127 -47.2126 -47.2126 -47.2126 -47.2126 -47.2126 -47.2124 -47.2124
     0.0499   0.0499   0.0948   0.0949   0.1049   0.1050   0.1050   0.1051
     0.1199   0.1200   0.1779   0.1779   0.1779   0.1780   0.2090   0.2090
     0.2242   0.2242   0.2863   0.2863   0.2864   0.2864   0.2865   0.2865
     0.2936   0.2937   0.2937   0.2937   0.3022   0.3022   0.3441   0.3441
     0.3623   0.3623   0.3623   0.3623   0.3994   0.3994   0.4507   0.4507
     0.6804   0.6804   1.6768   1.6769   1.6770   1.6770   2.6122   2.6124
     5.0663   5.0663   5.0663   5.0663   5.8750   6.1483

          k = 0.1662 0.2327 0.2327 ( 35196 PWs)   bands (ev):

   -81.4082 -81.4082 -81.4082 -81.4081 -81.4080 -81.4080 -81.4080 -81.4077
   -47.2138 -47.2138 -47.2137 -47.2135 -47.2135 -47.2135 -47.2135 -47.2135
   -47.2135 -47.2134 -47.2133 -47.2133 -47.2130 -47.2129 -47.2129 -47.2129
   -47.2128 -47.2128 -47.2127 -47.2126 -47.2126 -47.2126 -47.2126 -47.2124
     0.0601   0.0810   0.0810   0.1072   0.1152   0.1425   0.1443   0.1443
     0.1470   0.1686   0.1817   0.1818   0.1844   0.1893   0.1893   0.2077
     0.2113   0.2462   0.2482   0.2483   0.2595   0.2595   0.2616   0.2680
     0.2844   0.2844   0.3041   0.3111   0.3111   0.3134   0.3499   0.3542
     0.3614   0.3619   0.3770   0.3797   0.3797   0.3913   0.3913   0.4135
     0.6110   1.1261   1.1261   1.6098   1.6233   2.0907   2.0907   2.5610
     5.0202   5.4932   5.4933   5.5568   5.5568   5.9255

          k = 0.1662 0.2327-0.2992 ( 35180 PWs)   bands (ev):

   -81.4082 -81.4082 -81.4082 -81.4081 -81.4080 -81.4080 -81.4080 -81.4077
   -47.2138 -47.2137 -47.2137 -47.2135 -47.2135 -47.2135 -47.2134 -47.2133
   -47.2132 -47.2132 -47.2132 -47.2131 -47.2131 -47.2131 -47.2130 -47.2129
   -47.2129 -47.2129 -47.2128 -47.2126 -47.2126 -47.2126 -47.2126 -47.2124
     0.0710   0.0711   0.0952   0.0953   0.1499   0.1499   0.1538   0.1539
     0.1728   0.1728   0.1817   0.1818   0.2036   0.2036   0.2094   0.2094
     0.2435   0.2435   0.2564   0.2564   0.2592   0.2592   0.2637   0.2638
     0.2854   0.2854   0.2885   0.2885   0.3140   0.3140   0.3384   0.3384
     0.3495   0.3495   0.3545   0.3545   0.3751   0.3752   0.3984   0.3984
     0.8297   0.8297   1.3354   1.3355   1.8270   1.8271   2.2978   2.2979
     5.2417   5.2418   5.7155   5.7155   5.7753   5.7754

          k = 0.1662-0.2992-0.2992 ( 35188 PWs)   bands (ev):

   -81.4082 -81.4082 -81.4082 -81.4081 -81.4080 -81.4080 -81.4080 -81.4077
   -47.2137 -47.2137 -47.2137 -47.2135 -47.2133 -47.2133 -47.2133 -47.2133
   -47.2132 -47.2132 -47.2131 -47.2131 -47.2131 -47.2131 -47.2131 -47.2131
   -47.2130 -47.2130 -47.2129 -47.2129 -47.2126 -47.2126 -47.2126 -47.2124
     0.0838   0.0839   0.0839   0.0840   0.1759   0.1759   0.1759   0.1759
     0.2097   0.2097   0.2097   0.2097   0.2132   0.2133   0.2133   0.2133
     0.2341   0.2341   0.2341   0.2341   0.2568   0.2568   0.2568   0.2568
     0.2683   0.2683   0.2683   0.2683   0.3349   0.3349   0.3349   0.3349
     0.3541   0.3541   0.3541   0.3541   0.3579   0.3580   0.3580   0.3580
     1.0482   1.0482   1.0482   1.0483   2.0334   2.0336   2.0336   2.0337
     5.4634   5.4634   5.4635   5.4635   6.4976   6.4978

          k = 0.2327 0.2327 0.2327 ( 35172 PWs)   bands (ev):

   -81.4082 -81.4082 -81.4082 -81.4081 -81.4080 -81.4080 -81.4080 -81.4077
   -47.2135 -47.2135 -47.2135 -47.2135 -47.2135 -47.2135 -47.2134 -47.2134
   -47.2134 -47.2133 -47.2133 -47.2132 -47.2130 -47.2130 -47.2129 -47.2128
   -47.2128 -47.2128 -47.2128 -47.2128 -47.2128 -47.2126 -47.2126 -47.2126
     0.1210   0.1210   0.1352   0.1352   0.1352   0.1680   0.1733   0.1733
     0.1733   0.1795   0.1795   0.1795   0.2059   0.2059   0.2059   0.2129
     0.2129   0.2398   0.2398   0.2398   0.2671   0.2781   0.2781   0.2781
     0.2817   0.2817   0.2817   0.2887   0.2887   0.2887   0.3478   0.3478
     0.3478   0.3499   0.3499   0.3516   0.3516   0.3544   0.3544   0.3544
     0.7618   1.2779   1.2779   1.2779   1.7644   1.7644   1.7644   2.2439
     5.7310   5.7310   5.7310   6.1063   6.1064   6.1065

          k = 0.2327 0.2327-0.2992 ( 35182 PWs)   bands (ev):

   -81.4082 -81.4082 -81.4082 -81.4081 -81.4080 -81.4080 -81.4080 -81.4077
   -47.2135 -47.2135 -47.2135 -47.2135 -47.2135 -47.2134 -47.2133 -47.2133
   -47.2132 -47.2132 -47.2132 -47.2131 -47.2131 -47.2131 -47.2130 -47.2129
   -47.2129 -47.2129 -47.2129 -47.2129 -47.2129 -47.2129 -47.2127 -47.2126
     0.1278   0.1279   0.1644   0.1644   0.1644   0.1644   0.1715   0.1716
     0.1764   0.1765   0.2061   0.2062   0.2062   0.2062   0.2235   0.2235
     0.2456   0.2457   0.2550   0.2550   0.2587   0.2587   0.2587   0.2587
     0.2843   0.2843   0.2843   0.2843   0.2848   0.2848   0.3193   0.3193
     0.3315   0.3315   0.3315   0.3315   0.3488   0.3488   0.3491   0.3491
     0.9853   0.9854   1.4901   1.4901   1.4902   1.4902   1.9755   1.9756
     5.9501   5.9501   5.9501   5.9501   6.3334   6.3335

          k = 0.2327-0.2992-0.2992 ( 35204 PWs)   bands (ev):

   -81.4082 -81.4082 -81.4082 -81.4081 -81.4080 -81.4080 -81.4080 -81.4077
   -47.2135 -47.2135 -47.2135 -47.2133 -47.2133 -47.2133 -47.2133 -47.2132
   -47.2132 -47.2132 -47.2132 -47.2132 -47.2131 -47.2131 -47.2131 -47.2131
   -47.2131 -47.2130 -47.2129 -47.2129 -47.2129 -47.2129 -47.2129 -47.2127
     0.1532   0.1533   0.1533   0.1533   0.1996   0.1996   0.1996   0.1996
     0.2161   0.2162   0.2162   0.2162   0.2173   0.2174   0.2174   0.2174
     0.2334   0.2335   0.2335   0.2335   0.2560   0.2561   0.2561   0.2561
     0.2718   0.2719   0.2719   0.2719   0.3083   0.3083   0.3083   0.3083
     0.3191   0.3191   0.3191   0.3191   0.3267   0.3267   0.3267   0.3267
     1.2054   1.2055   1.2055   1.2056   1.7032   1.7033   1.7033   1.7034
     6.1700   6.1700   6.1701   6.1701   6.6777   6.6788

          k =-0.2992-0.2992-0.2992 ( 35208 PWs)   bands (ev):

   -81.4082 -81.4082 -81.4082 -81.4081 -81.4080 -81.4080 -81.4080 -81.4077
   -47.2133 -47.2133 -47.2133 -47.2132 -47.2132 -47.2132 -47.2132 -47.2132
   -47.2132 -47.2132 -47.2132 -47.2132 -47.2132 -47.2132 -47.2131 -47.2131
   -47.2131 -47.2131 -47.2131 -47.2131 -47.2130 -47.2129 -47.2129 -47.2129
     0.2182   0.2182   0.2184   0.2184   0.2184   0.2184   0.2184   0.2184
     0.2184   0.2184   0.2184   0.2184   0.2184   0.2184   0.2184   0.2184
     0.2222   0.2222   0.2222   0.2222   0.2222   0.2223   0.2223   0.2223
     0.2973   0.2973   0.2973   0.2973   0.2973   0.2974   0.2974   0.2974
     0.2974   0.2974   0.2974   0.2974   0.2974   0.2974   0.2974   0.2974
     1.4235   1.4236   1.4236   1.4236   1.4237   1.4237   1.4237   1.4238
     6.9045   6.9046   6.9047   6.9049   6.9050   6.9054

     the Fermi energy is     0.7522 ev

!    total energy              =   -4094.21454887 Ry

     total all-electron energy =    -80734.427976 Ry
     estimated scf accuracy    <       0.00000060 Ry
     smearing contrib. (-TS)   =       0.20777943 Ry
     internal energy E=F+TS    =   -4094.42232830 Ry

     The total energy is F=E-TS. E is the sum of the following terms:
     one-electron contribution =   -1705.50253134 Ry
     hartree contribution      =     868.69608508 Ry
     xc contribution           =    -245.71879786 Ry
     ewald contribution        =    -970.23445867 Ry
     one-center paw contrib.   =   -2041.66262551 Ry

     convergence has been achieved in  26 iterations

     Forces acting on atoms (cartesian axes, Ry/au):

     atom    1 type  1   force =     0.00000000    0.00000000    0.00000000
     atom    2 type  1   force =     0.00000000    0.00000000    0.00000000
     atom    3 type  1   force =     0.00000000    0.00000000    0.00000000
     atom    4 type  1   force =     0.00000000    0.00000000    0.00000000
     atom    5 type  1   force =     0.00000000    0.00000000    0.00000000
     atom    6 type  1   force =     0.00000000    0.00000000    0.00000000
     atom    7 type  1   force =     0.00000000    0.00000000    0.00000000
     atom    8 type  1   force =     0.00000000    0.00000000    0.00000000

     Total force =     0.000000     Total SCF correction =     0.000000


     Computing stress (Cartesian axis) and pressure

          total   stress  (Ry/bohr**3)                   (kbar)     P=      -40.42
  -0.00027475   0.00000000   0.00000000          -40.42        0.00        0.00
   0.00000000  -0.00027475   0.00000000            0.00      -40.42        0.00
   0.00000000   0.00000000  -0.00027475            0.00        0.00      -40.42


     Writing output data file /scratch/HCYeTWrTLGKVDqUT.save/
 
     init_run     :      2.51s CPU      2.63s WALL (       1 calls)
     electrons    :    179.14s CPU    182.58s WALL (       1 calls)
     forces       :      0.58s CPU      0.61s WALL (       1 calls)
     stress       :      1.41s CPU      1.43s WALL (       1 calls)

     Called by init_run:
     wfcinit      :      2.07s CPU      2.12s WALL (       1 calls)
     potinit      :      0.10s CPU      0.12s WALL (       1 calls)
     hinit0       :      0.06s CPU      0.06s WALL (       1 calls)

     Called by electrons:
     c_bands      :    149.50s CPU    151.91s WALL (      26 calls)
     sum_band     :     26.63s CPU     27.22s WALL (      26 calls)
     v_of_rho     :      0.46s CPU      0.50s WALL (      27 calls)
     newd         :      0.61s CPU      0.81s WALL (      27 calls)
     PAW_pot      :      1.54s CPU      1.72s WALL (      27 calls)
     mix_rho      :      0.28s CPU      0.30s WALL (      26 calls)

     Called by c_bands:
     init_us_2    :      0.81s CPU      0.86s WALL (    1925 calls)
     cegterg      :    145.56s CPU    147.84s WALL (     910 calls)

     Called by *egterg:
     cdiaghg      :     13.47s CPU     13.82s WALL (    2566 calls)
     h_psi        :    107.25s CPU    108.94s WALL (    2601 calls)
     s_psi        :      1.80s CPU      1.84s WALL (    2601 calls)
     g_psi        :      0.16s CPU      0.17s WALL (    1656 calls)

     Called by h_psi:
     h_psi:calbec :      4.73s CPU      4.77s WALL (    2601 calls)
     vloc_psi     :     99.97s CPU    101.57s WALL (    2601 calls)
     add_vuspsi   :      2.13s CPU      2.15s WALL (    2601 calls)

     General routines
     calbec       :      7.40s CPU      7.47s WALL (    3686 calls)
     fft          :      0.59s CPU      0.61s WALL (     374 calls)
     ffts         :      0.03s CPU      0.03s WALL (      53 calls)
     fftw         :    118.58s CPU    120.39s WALL (  417338 calls)
     interpolate  :      0.05s CPU      0.05s WALL (      27 calls)
 
     Parallel routines
     fft_scatt_xy :      8.08s CPU      8.19s WALL (  417765 calls)
     fft_scatt_yz :     87.16s CPU     88.55s WALL (  417765 calls)
 
     PWSCF        :   3m 7.99s CPU   3m12.37s WALL

 
   This run was terminated on:   3:59:42  30Nov2021            

=------------------------------------------------------------------------------=
   JOB DONE.
=------------------------------------------------------------------------------=
