
     Program PWSCF v.6.7MaX starts on 30Nov2021 at  4:27:49 

     This program is part of the open-source Quantum ESPRESSO suite
     for quantum simulation of materials; please cite
         "P. Giannozzi et al., J. Phys.:Condens. Matter 21 395502 (2009);
         "P. Giannozzi et al., J. Phys.:Condens. Matter 29 465901 (2017);
          URL http://www.quantum-espresso.org", 
     in publications or presentations arising from this work. More details at
     http://www.quantum-espresso.org/quote

     Parallel version (MPI & OpenMP), running on      72 processor cores
     Number of MPI processes:                72
     Threads/MPI process:                     1

     MPI processes distributed on     1 nodes
     R & G space division:  proc/nbgrp/npool/nimage =      72
     Reading input from sc_20.in
Warning: card &CELL ignored
Warning: card CELL_DYNAMICS = 'BFGS', ignored
Warning: card CELL_FACTOR = 2.0, ignored
Warning: card PRESS = 0.0, ignored
Warning: card / ignored

     Current dimensions of program PWSCF are:
     Max number of different atomic species (ntypx) = 10
     Max number of k-points (npk) =  40000
     Max angular momentum in pseudopotentials (lmaxx) =  3
     file Pd.pbe-spn-kjpaw_psl.1.0.0.UPF: wavefunction(s)  4S 5S 4D renormalized

     Subspace diagonalization in iterative solution of the eigenvalue problem:
     one sub-group per band group will be used
     ELPA distributed-memory algorithm (size of sub-group:  8*  8 procs)

     Found symmetry operation: I + (  0.0000  0.0000 -0.5000)
     This is a supercell, fractional translations are disabled
     Message from routine setup:
     using ibrav=0 with symmetry is DISCOURAGED, use correct ibrav instead
 
     Parallelization info
     --------------------
     sticks:   dense  smooth     PW     G-vecs:    dense   smooth      PW
     Min         156     103     27                12486     6697     927
     Max         157     104     28                12491     6704     934
     Sum       11245    7433   2001               899139   482385   67043
 


     bravais-lattice index     =            0
     lattice parameter (alat)  =       9.0720  a.u.
     unit-cell volume          =    5973.0907 (a.u.)^3
     number of atoms/cell      =            8
     number of atomic types    =            1
     number of electrons       =       144.00
     number of Kohn-Sham states=           86
     kinetic-energy cutoff     =      71.0000  Ry
     charge density cutoff     =     430.0000  Ry
     scf convergence threshold =      1.0E-06
     mixing beta               =       0.1000
     number of iterations used =           10  TF        mixing
     Exchange-correlation= SLA  PW   PBX  PBC
                           (   1   4   3   4   0   0   0)

     celldm(1)=   9.072000  celldm(2)=   0.000000  celldm(3)=   0.000000
     celldm(4)=   0.000000  celldm(5)=   0.000000  celldm(6)=   0.000000

     crystal axes: (cart. coord. in units of alat)
               a(1) = (   2.000000   0.000000   0.000000 )  
               a(2) = (   0.000000   2.000000   0.000000 )  
               a(3) = (   0.000000   0.000000   2.000000 )  

     reciprocal axes: (cart. coord. in units 2 pi/alat)
               b(1) = (  0.500000  0.000000  0.000000 )  
               b(2) = (  0.000000  0.500000  0.000000 )  
               b(3) = (  0.000000  0.000000  0.500000 )  


     PseudoPot. # 1 for Pd read from file:
     /rds/homes/b/bxp912/pp/Pd.pbe-spn-kjpaw_psl.1.0.0.UPF
     MD5 check sum: 790f2ebce206edfd9790dcb9844eca51
     Pseudo is Projector augmented-wave + core cor, Zval = 18.0
     Generated using &quot;atomic&quot; code by A. Dal Corso  v.6.3
     Shape of augmentation charge: PSQ
     Using radial grid of 1235 points,  6 beta functions with: 
                l(1) =   0
                l(2) =   0
                l(3) =   1
                l(4) =   1
                l(5) =   2
                l(6) =   2
     Q(r) pseudized with 0 coefficients 


     atomic species   valence    mass     pseudopotential
        Pd            18.00   106.42000     Pd( 1.00)

     48 Sym. Ops., with inversion, found



   Cartesian axes

     site n.     atom                  positions (alat units)
         1           Pd  tau(   1) = (   0.0000000   0.0000000   0.0000000  )
         2           Pd  tau(   2) = (   0.0000000   0.0000000   1.0000000  )
         3           Pd  tau(   3) = (   0.0000000   1.0000000   0.0000000  )
         4           Pd  tau(   4) = (   0.0000000   1.0000000   1.0000000  )
         5           Pd  tau(   5) = (   1.0000000   0.0000000   0.0000000  )
         6           Pd  tau(   6) = (   1.0000000   0.0000000   1.0000000  )
         7           Pd  tau(   7) = (   1.0000000   1.0000000   0.0000000  )
         8           Pd  tau(   8) = (   1.0000000   1.0000000   1.0000000  )

     number of k points=    35  Marzari-Vanderbilt smearing, width (Ry)=  0.0400
                       cart. coord. in units 2pi/alat
        k(    1) = (   0.0277778   0.0277778   0.0277778), wk =   0.0219479
        k(    2) = (   0.0277778   0.0277778   0.0833333), wk =   0.0658436
        k(    3) = (   0.0277778   0.0277778   0.1388889), wk =   0.0658436
        k(    4) = (   0.0277778   0.0277778   0.1944444), wk =   0.0658436
        k(    5) = (   0.0277778   0.0277778  -0.2500000), wk =   0.0329218
        k(    6) = (   0.0277778   0.0833333   0.0833333), wk =   0.0658436
        k(    7) = (   0.0277778   0.0833333   0.1388889), wk =   0.1316872
        k(    8) = (   0.0277778   0.0833333   0.1944444), wk =   0.1316872
        k(    9) = (   0.0277778   0.0833333  -0.2500000), wk =   0.0658436
        k(   10) = (   0.0277778   0.1388889   0.1388889), wk =   0.0658436
        k(   11) = (   0.0277778   0.1388889   0.1944444), wk =   0.1316872
        k(   12) = (   0.0277778   0.1388889  -0.2500000), wk =   0.0658436
        k(   13) = (   0.0277778   0.1944444   0.1944444), wk =   0.0658436
        k(   14) = (   0.0277778   0.1944444  -0.2500000), wk =   0.0658436
        k(   15) = (   0.0277778  -0.2500000  -0.2500000), wk =   0.0164609
        k(   16) = (   0.0833333   0.0833333   0.0833333), wk =   0.0219479
        k(   17) = (   0.0833333   0.0833333   0.1388889), wk =   0.0658436
        k(   18) = (   0.0833333   0.0833333   0.1944444), wk =   0.0658436
        k(   19) = (   0.0833333   0.0833333  -0.2500000), wk =   0.0329218
        k(   20) = (   0.0833333   0.1388889   0.1388889), wk =   0.0658436
        k(   21) = (   0.0833333   0.1388889   0.1944444), wk =   0.1316872
        k(   22) = (   0.0833333   0.1388889  -0.2500000), wk =   0.0658436
        k(   23) = (   0.0833333   0.1944444   0.1944444), wk =   0.0658436
        k(   24) = (   0.0833333   0.1944444  -0.2500000), wk =   0.0658436
        k(   25) = (   0.0833333  -0.2500000  -0.2500000), wk =   0.0164609
        k(   26) = (   0.1388889   0.1388889   0.1388889), wk =   0.0219479
        k(   27) = (   0.1388889   0.1388889   0.1944444), wk =   0.0658436
        k(   28) = (   0.1388889   0.1388889  -0.2500000), wk =   0.0329218
        k(   29) = (   0.1388889   0.1944444   0.1944444), wk =   0.0658436
        k(   30) = (   0.1388889   0.1944444  -0.2500000), wk =   0.0658436
        k(   31) = (   0.1388889  -0.2500000  -0.2500000), wk =   0.0164609
        k(   32) = (   0.1944444   0.1944444   0.1944444), wk =   0.0219479
        k(   33) = (   0.1944444   0.1944444  -0.2500000), wk =   0.0329218
        k(   34) = (   0.1944444  -0.2500000  -0.2500000), wk =   0.0164609
        k(   35) = (  -0.2500000  -0.2500000  -0.2500000), wk =   0.0027435

     Dense  grid:   899139 G-vectors     FFT dimensions: ( 120, 120, 120)

     Smooth grid:   482385 G-vectors     FFT dimensions: ( 100, 100, 100)

     Estimated max dynamical RAM per process >      90.74 MB

     Estimated total dynamical RAM >       6.38 GB

     Initial potential from superposition of free atoms

     starting charge  143.99694, renormalised to  144.00000
     Starting wfcs are   80 randomized atomic wfcs +    6 random wfcs
     Checking if some PAW data can be deallocated... 

     total cpu time spent up to now is        5.7 secs

     Self-consistent Calculation

     iteration #  1     ecut=    71.00 Ry     beta= 0.10
     Davidson diagonalization with overlap
     ethr =  1.00E-02,  avg # of iterations =  5.3

     total cpu time spent up to now is       16.2 secs

     total energy              =   -4095.35735752 Ry
     estimated scf accuracy    <       6.24724123 Ry

     iteration #  2     ecut=    71.00 Ry     beta= 0.10
     Davidson diagonalization with overlap
     ethr =  4.34E-03,  avg # of iterations =  1.0

     total cpu time spent up to now is       23.9 secs

     total energy              =   -4093.91575110 Ry
     estimated scf accuracy    <       4.67657747 Ry

     iteration #  3     ecut=    71.00 Ry     beta= 0.10
     Davidson diagonalization with overlap
     ethr =  3.25E-03,  avg # of iterations =  2.0

     total cpu time spent up to now is       34.8 secs

     total energy              =   -4093.85375941 Ry
     estimated scf accuracy    <       3.18959658 Ry

     iteration #  4     ecut=    71.00 Ry     beta= 0.10
     Davidson diagonalization with overlap
     ethr =  2.21E-03,  avg # of iterations =  1.4

     total cpu time spent up to now is       42.5 secs

     total energy              =   -4094.03469922 Ry
     estimated scf accuracy    <       1.73149136 Ry

     iteration #  5     ecut=    71.00 Ry     beta= 0.10
     Davidson diagonalization with overlap
     ethr =  1.20E-03,  avg # of iterations =  1.4

     total cpu time spent up to now is       51.1 secs

     total energy              =   -4094.02355148 Ry
     estimated scf accuracy    <       0.64630598 Ry

     iteration #  6     ecut=    71.00 Ry     beta= 0.10
     Davidson diagonalization with overlap
     ethr =  4.49E-04,  avg # of iterations =  2.9

     total cpu time spent up to now is       60.5 secs

     total energy              =   -4094.01333052 Ry
     estimated scf accuracy    <       0.34250836 Ry

     iteration #  7     ecut=    71.00 Ry     beta= 0.10
     Davidson diagonalization with overlap
     ethr =  2.38E-04,  avg # of iterations =  4.1

     total cpu time spent up to now is       73.5 secs

     total energy              =   -4094.20106532 Ry
     estimated scf accuracy    <      15.87332629 Ry

     iteration #  8     ecut=    71.00 Ry     beta= 0.10
     Davidson diagonalization with overlap
     ethr =  2.38E-04,  avg # of iterations =  1.3

     total cpu time spent up to now is       81.3 secs

     total energy              =   -4094.31526613 Ry
     estimated scf accuracy    <       4.46958889 Ry

     iteration #  9     ecut=    71.00 Ry     beta= 0.10
     Davidson diagonalization with overlap
     ethr =  2.38E-04,  avg # of iterations =  1.1

     total cpu time spent up to now is       88.6 secs

     total energy              =   -4094.36067799 Ry
     estimated scf accuracy    <       2.90203972 Ry

     iteration # 10     ecut=    71.00 Ry     beta= 0.10
     Davidson diagonalization with overlap
     ethr =  2.38E-04,  avg # of iterations =  1.0

     total cpu time spent up to now is       96.5 secs

     total energy              =   -4094.39324244 Ry
     estimated scf accuracy    <       3.99133766 Ry

     iteration # 11     ecut=    71.00 Ry     beta= 0.10
     Davidson diagonalization with overlap
     ethr =  2.38E-04,  avg # of iterations =  1.0

     total cpu time spent up to now is      104.5 secs

     total energy              =   -4094.45068987 Ry
     estimated scf accuracy    <       4.24664514 Ry

     iteration # 12     ecut=    71.00 Ry     beta= 0.10
     Davidson diagonalization with overlap
     ethr =  2.38E-04,  avg # of iterations =  1.0

     total cpu time spent up to now is      111.9 secs

     total energy              =   -4093.95834504 Ry
     estimated scf accuracy    <       4.35067228 Ry

     iteration # 13     ecut=    71.00 Ry     beta= 0.10
     Davidson diagonalization with overlap
     ethr =  2.38E-04,  avg # of iterations =  2.2

     total cpu time spent up to now is      122.2 secs

     total energy              =   -4093.99297383 Ry
     estimated scf accuracy    <       1.60545849 Ry

     iteration # 14     ecut=    71.00 Ry     beta= 0.10
     Davidson diagonalization with overlap
     ethr =  2.38E-04,  avg # of iterations =  1.5

     total cpu time spent up to now is      131.0 secs

     total energy              =   -4094.03995300 Ry
     estimated scf accuracy    <       1.03915286 Ry

     iteration # 15     ecut=    71.00 Ry     beta= 0.10
     Davidson diagonalization with overlap
     ethr =  2.38E-04,  avg # of iterations =  1.1

     total cpu time spent up to now is      139.7 secs

     total energy              =   -4094.05684702 Ry
     estimated scf accuracy    <       0.47555833 Ry

     iteration # 16     ecut=    71.00 Ry     beta= 0.10
     Davidson diagonalization with overlap
     ethr =  2.38E-04,  avg # of iterations =  1.0

     total cpu time spent up to now is      148.5 secs

     total energy              =   -4093.92084067 Ry
     estimated scf accuracy    <       0.90411256 Ry

     iteration # 17     ecut=    71.00 Ry     beta= 0.10
     Davidson diagonalization with overlap
     ethr =  2.38E-04,  avg # of iterations =  2.2

     total cpu time spent up to now is      158.5 secs

     total energy              =   -4093.91285522 Ry
     estimated scf accuracy    <       1.51476876 Ry

     iteration # 18     ecut=    71.00 Ry     beta= 0.10
     Davidson diagonalization with overlap
     ethr =  2.38E-04,  avg # of iterations =  2.0

     total cpu time spent up to now is      169.0 secs

     total energy              =   -4093.97964786 Ry
     estimated scf accuracy    <       0.27869275 Ry

     iteration # 19     ecut=    71.00 Ry     beta= 0.10
     Davidson diagonalization with overlap
     ethr =  1.94E-04,  avg # of iterations =  1.1

     total cpu time spent up to now is      176.5 secs

     total energy              =   -4093.98042388 Ry
     estimated scf accuracy    <       0.20366986 Ry

     iteration # 20     ecut=    71.00 Ry     beta= 0.10
     Davidson diagonalization with overlap
     ethr =  1.41E-04,  avg # of iterations =  1.4

     total cpu time spent up to now is      185.1 secs

     total energy              =   -4094.00247924 Ry
     estimated scf accuracy    <       0.24521267 Ry

     iteration # 21     ecut=    71.00 Ry     beta= 0.10
     Davidson diagonalization with overlap
     ethr =  1.41E-04,  avg # of iterations =  1.7

     total cpu time spent up to now is      192.8 secs

     total energy              =   -4094.03959895 Ry
     estimated scf accuracy    <       0.85238251 Ry

     iteration # 22     ecut=    71.00 Ry     beta= 0.10
     Davidson diagonalization with overlap
     ethr =  1.41E-04,  avg # of iterations =  1.0

     negative rho (up, down):  4.142E-05 0.000E+00

     total cpu time spent up to now is      201.0 secs

     total energy              =   -4094.19297945 Ry
     estimated scf accuracy    <       0.97932103 Ry

     iteration # 23     ecut=    71.00 Ry     beta= 0.10
     Davidson diagonalization with overlap
     ethr =  1.41E-04,  avg # of iterations =  2.2

     total cpu time spent up to now is      211.0 secs

     total energy              =   -4093.88146650 Ry
     estimated scf accuracy    <       3.87871197 Ry

     iteration # 24     ecut=    71.00 Ry     beta= 0.10
     Davidson diagonalization with overlap
     ethr =  1.41E-04,  avg # of iterations =  2.0

     total cpu time spent up to now is      221.4 secs

     total energy              =   -4094.02674973 Ry
     estimated scf accuracy    <       0.96192455 Ry

     iteration # 25     ecut=    71.00 Ry     beta= 0.10
     Davidson diagonalization with overlap
     ethr =  1.41E-04,  avg # of iterations =  2.0

     total cpu time spent up to now is      230.1 secs

     total energy              =   -4094.05481898 Ry
     estimated scf accuracy    <       0.78753420 Ry

     iteration # 26     ecut=    71.00 Ry     beta= 0.10
     Davidson diagonalization with overlap
     ethr =  1.41E-04,  avg # of iterations =  1.0

     total cpu time spent up to now is      238.0 secs

     total energy              =   -4094.04277380 Ry
     estimated scf accuracy    <       1.13071020 Ry

     iteration # 27     ecut=    71.00 Ry     beta= 0.10
     Davidson diagonalization with overlap
     ethr =  1.41E-04,  avg # of iterations =  1.0

     total cpu time spent up to now is      246.5 secs

     total energy              =   -4093.99584615 Ry
     estimated scf accuracy    <       1.01057822 Ry

     iteration # 28     ecut=    71.00 Ry     beta= 0.10
     Davidson diagonalization with overlap
     ethr =  1.41E-04,  avg # of iterations =  1.2

     total cpu time spent up to now is      254.7 secs

     total energy              =   -4093.98014339 Ry
     estimated scf accuracy    <       0.53613398 Ry

     iteration # 29     ecut=    71.00 Ry     beta= 0.10
     Davidson diagonalization with overlap
     ethr =  1.41E-04,  avg # of iterations =  2.0

     total cpu time spent up to now is      264.0 secs

     total energy              =   -4094.01106368 Ry
     estimated scf accuracy    <       0.83454559 Ry

     iteration # 30     ecut=    71.00 Ry     beta= 0.10
     Davidson diagonalization with overlap
     ethr =  1.41E-04,  avg # of iterations =  2.0

     total cpu time spent up to now is      272.8 secs

     total energy              =   -4093.93163271 Ry
     estimated scf accuracy    <       0.47987137 Ry

     iteration # 31     ecut=    71.00 Ry     beta= 0.10
     Davidson diagonalization with overlap
     ethr =  1.41E-04,  avg # of iterations =  2.2

     total cpu time spent up to now is      282.6 secs

     total energy              =   -4093.94241440 Ry
     estimated scf accuracy    <       0.41179792 Ry

     iteration # 32     ecut=    71.00 Ry     beta= 0.10
     Davidson diagonalization with overlap
     ethr =  1.41E-04,  avg # of iterations =  1.0

     total cpu time spent up to now is      290.4 secs

     total energy              =   -4093.94955229 Ry
     estimated scf accuracy    <       0.68638206 Ry

     iteration # 33     ecut=    71.00 Ry     beta= 0.10
     Davidson diagonalization with overlap
     ethr =  1.41E-04,  avg # of iterations =  1.0

     total cpu time spent up to now is      298.4 secs

     total energy              =   -4093.91588697 Ry
     estimated scf accuracy    <       0.63097837 Ry

     iteration # 34     ecut=    71.00 Ry     beta= 0.10
     Davidson diagonalization with overlap
     ethr =  1.41E-04,  avg # of iterations =  1.0

     total cpu time spent up to now is      306.4 secs

     total energy              =   -4093.92304248 Ry
     estimated scf accuracy    <       0.00441266 Ry

     iteration # 35     ecut=    71.00 Ry     beta= 0.10
     Davidson diagonalization with overlap
     ethr =  3.06E-06,  avg # of iterations =  7.4

     total cpu time spent up to now is      317.7 secs

     total energy              =   -4093.94066161 Ry
     estimated scf accuracy    <       0.63922542 Ry

     iteration # 36     ecut=    71.00 Ry     beta= 0.10
     Davidson diagonalization with overlap
     ethr =  3.06E-06,  avg # of iterations =  3.1

     total cpu time spent up to now is      326.9 secs

     total energy              =   -4093.92612689 Ry
     estimated scf accuracy    <       0.67077919 Ry

     iteration # 37     ecut=    71.00 Ry     beta= 0.10
     Davidson diagonalization with overlap
     ethr =  3.06E-06,  avg # of iterations =  2.7

     total cpu time spent up to now is      336.2 secs

     total energy              =   -4093.93764782 Ry
     estimated scf accuracy    <       0.31167538 Ry

     iteration # 38     ecut=    71.00 Ry     beta= 0.10
     Davidson diagonalization with overlap
     ethr =  3.06E-06,  avg # of iterations =  2.0

     total cpu time spent up to now is      344.8 secs

     total energy              =   -4093.96680891 Ry
     estimated scf accuracy    <       0.67680200 Ry

     iteration # 39     ecut=    71.00 Ry     beta= 0.10
     Davidson diagonalization with overlap
     ethr =  3.06E-06,  avg # of iterations =  4.5

     total cpu time spent up to now is      354.2 secs

     total energy              =   -4093.98713273 Ry
     estimated scf accuracy    <       0.38875317 Ry

     iteration # 40     ecut=    71.00 Ry     beta= 0.10
     Davidson diagonalization with overlap
     c_bands:  1 eigenvalues not converged
     ethr =  3.06E-06,  avg # of iterations =  7.6

     total cpu time spent up to now is      366.8 secs

     total energy              =   -4093.97037927 Ry
     estimated scf accuracy    <       0.25829735 Ry

     iteration # 41     ecut=    71.00 Ry     beta= 0.10
     Davidson diagonalization with overlap
     ethr =  3.06E-06,  avg # of iterations =  2.4

     total cpu time spent up to now is      376.2 secs

     total energy              =   -4093.94387865 Ry
     estimated scf accuracy    <       0.31722465 Ry

     iteration # 42     ecut=    71.00 Ry     beta= 0.10
     Davidson diagonalization with overlap
     ethr =  3.06E-06,  avg # of iterations =  6.2

     total cpu time spent up to now is      388.2 secs

     total energy              =   -4093.91435250 Ry
     estimated scf accuracy    <       0.58681765 Ry

     iteration # 43     ecut=    71.00 Ry     beta= 0.10
     Davidson diagonalization with overlap
     ethr =  3.06E-06,  avg # of iterations =  5.9

     total cpu time spent up to now is      398.6 secs

     total energy              =   -4093.91757216 Ry
     estimated scf accuracy    <       0.01765679 Ry

     iteration # 44     ecut=    71.00 Ry     beta= 0.10
     Davidson diagonalization with overlap
     ethr =  3.06E-06,  avg # of iterations =  4.4

     total cpu time spent up to now is      409.4 secs

     total energy              =   -4093.95072643 Ry
     estimated scf accuracy    <       0.57221652 Ry

     iteration # 45     ecut=    71.00 Ry     beta= 0.10
     Davidson diagonalization with overlap
     ethr =  3.06E-06,  avg # of iterations =  1.0

     total cpu time spent up to now is      416.8 secs

     total energy              =   -4093.95338813 Ry
     estimated scf accuracy    <       0.62485520 Ry

     iteration # 46     ecut=    71.00 Ry     beta= 0.10
     Davidson diagonalization with overlap
     ethr =  3.06E-06,  avg # of iterations =  1.0

     total cpu time spent up to now is      424.8 secs

     total energy              =   -4093.94130048 Ry
     estimated scf accuracy    <       0.58152179 Ry

     iteration # 47     ecut=    71.00 Ry     beta= 0.10
     Davidson diagonalization with overlap
     ethr =  3.06E-06,  avg # of iterations =  2.0

     total cpu time spent up to now is      433.3 secs

     total energy              =   -4093.91698771 Ry
     estimated scf accuracy    <       0.66354824 Ry

     iteration # 48     ecut=    71.00 Ry     beta= 0.10
     Davidson diagonalization with overlap
     ethr =  3.06E-06,  avg # of iterations =  4.4

     total cpu time spent up to now is      443.7 secs

     total energy              =   -4093.92355976 Ry
     estimated scf accuracy    <       0.01541686 Ry

     iteration # 49     ecut=    71.00 Ry     beta= 0.10
     Davidson diagonalization with overlap
     ethr =  3.06E-06,  avg # of iterations =  1.0

     total cpu time spent up to now is      451.2 secs

     total energy              =   -4093.92368774 Ry
     estimated scf accuracy    <       0.00082579 Ry

     iteration # 50     ecut=    71.00 Ry     beta= 0.10
     Davidson diagonalization with overlap
     ethr =  5.73E-07,  avg # of iterations =  1.0

     total cpu time spent up to now is      458.4 secs

     total energy              =   -4093.92361537 Ry
     estimated scf accuracy    <       0.00285104 Ry

     iteration # 51     ecut=    71.00 Ry     beta= 0.10
     Davidson diagonalization with overlap
     ethr =  5.73E-07,  avg # of iterations =  1.0

     total cpu time spent up to now is      466.5 secs

     total energy              =   -4093.92365090 Ry
     estimated scf accuracy    <       0.00112413 Ry

     iteration # 52     ecut=    71.00 Ry     beta= 0.10
     Davidson diagonalization with overlap
     ethr =  5.73E-07,  avg # of iterations =  1.0

     total cpu time spent up to now is      474.2 secs

     total energy              =   -4093.92386041 Ry
     estimated scf accuracy    <       0.00174131 Ry

     iteration # 53     ecut=    71.00 Ry     beta= 0.10
     Davidson diagonalization with overlap
     ethr =  5.73E-07,  avg # of iterations =  1.2

     total cpu time spent up to now is      482.0 secs

     total energy              =   -4093.92284259 Ry
     estimated scf accuracy    <       0.03955533 Ry

     iteration # 54     ecut=    71.00 Ry     beta= 0.10
     Davidson diagonalization with overlap
     ethr =  5.73E-07,  avg # of iterations =  2.0

     total cpu time spent up to now is      490.0 secs

     total energy              =   -4093.92370963 Ry
     estimated scf accuracy    <       0.01300876 Ry

     iteration # 55     ecut=    71.00 Ry     beta= 0.10
     Davidson diagonalization with overlap
     ethr =  5.73E-07,  avg # of iterations =  1.0

     total cpu time spent up to now is      497.8 secs

     total energy              =   -4093.92372384 Ry
     estimated scf accuracy    <       0.00377823 Ry

     iteration # 56     ecut=    71.00 Ry     beta= 0.10
     Davidson diagonalization with overlap
     ethr =  5.73E-07,  avg # of iterations =  1.0

     total cpu time spent up to now is      505.7 secs

     total energy              =   -4093.92368291 Ry
     estimated scf accuracy    <       0.00254432 Ry

     iteration # 57     ecut=    71.00 Ry     beta= 0.10
     Davidson diagonalization with overlap
     ethr =  5.73E-07,  avg # of iterations =  1.0

     total cpu time spent up to now is      513.4 secs

     total energy              =   -4093.92371524 Ry
     estimated scf accuracy    <       0.00005935 Ry

     iteration # 58     ecut=    71.00 Ry     beta= 0.10
     Davidson diagonalization with overlap
     ethr =  4.12E-08,  avg # of iterations =  1.5

     total cpu time spent up to now is      521.8 secs

     total energy              =   -4093.92361344 Ry
     estimated scf accuracy    <       0.00682438 Ry

     iteration # 59     ecut=    71.00 Ry     beta= 0.10
     Davidson diagonalization with overlap
     ethr =  4.12E-08,  avg # of iterations =  1.6

     total cpu time spent up to now is      529.5 secs

     total energy              =   -4093.92370298 Ry
     estimated scf accuracy    <       0.00017995 Ry

     iteration # 60     ecut=    71.00 Ry     beta= 0.10
     Davidson diagonalization with overlap
     ethr =  4.12E-08,  avg # of iterations =  1.0

     total cpu time spent up to now is      536.6 secs

     total energy              =   -4093.92370429 Ry
     estimated scf accuracy    <       0.00000520 Ry

     iteration # 61     ecut=    71.00 Ry     beta= 0.10
     Davidson diagonalization with overlap
     ethr =  3.61E-09,  avg # of iterations =  1.0

     total cpu time spent up to now is      544.4 secs

     End of self-consistent calculation

          k = 0.0278 0.0278 0.0278 ( 60421 PWs)   bands (ev):

   -83.0022 -83.0021 -83.0021 -83.0021 -83.0021 -83.0021 -83.0021 -83.0020
   -48.8399 -48.8398 -48.8398 -48.8398 -48.8398 -48.8398 -48.8397 -48.8397
   -48.8397 -48.8397 -48.8397 -48.8397 -48.8396 -48.8396 -48.8396 -48.8396
   -48.8396 -48.8396 -48.8396 -48.8396 -48.8396 -48.8396 -48.8395 -48.8395
    -1.6371  -1.6371  -1.6230  -1.6230  -1.6230  -1.6006  -1.6006  -1.6006
    -1.5911  -1.5911  -1.5911  -1.5823  -1.5819  -1.5819  -1.5781  -1.5781
    -1.5781  -1.5109  -1.5109  -1.5109  -1.5106  -1.5106  -1.5106  -1.5094
    -1.5031  -1.5031  -1.5031  -1.5030  -1.5030  -1.5030  -1.4590  -1.4589
    -1.4589  -1.4544  -1.4544  -1.4544  -1.4076  -1.4076  -1.4076  -1.4044
    -1.4044  -0.5089  -0.5089  -0.5088   0.3039   0.3039   0.3039   1.0876
     1.5027   1.5027   1.5027   2.4512   2.4524   2.4524

          k = 0.0278 0.0278 0.0833 ( 60427 PWs)   bands (ev):

   -83.0022 -83.0021 -83.0021 -83.0021 -83.0021 -83.0021 -83.0021 -83.0020
   -48.8399 -48.8399 -48.8398 -48.8398 -48.8398 -48.8397 -48.8397 -48.8397
   -48.8397 -48.8397 -48.8397 -48.8397 -48.8396 -48.8396 -48.8396 -48.8396
   -48.8396 -48.8396 -48.8396 -48.8396 -48.8396 -48.8396 -48.8396 -48.8395
    -1.6362  -1.6308  -1.6239  -1.6182  -1.6182  -1.5994  -1.5955  -1.5955
    -1.5923  -1.5923  -1.5832  -1.5810  -1.5792  -1.5775  -1.5774  -1.5685
    -1.5685  -1.5166  -1.5166  -1.5103  -1.5103  -1.5081  -1.5080  -1.5079
    -1.5075  -1.5035  -1.5035  -1.5002  -1.5002  -1.4746  -1.4621  -1.4610
    -1.4586  -1.4574  -1.4574  -1.4547  -1.4164  -1.4164  -1.4149  -1.4074
    -1.4046  -0.6169  -0.4818  -0.4817   0.2118   0.2118   0.3319   1.0021
     1.5430   1.5430   1.6923   2.3601   2.3601   2.4897

          k = 0.0278 0.0278 0.1389 ( 60354 PWs)   bands (ev):

   -83.0022 -83.0021 -83.0021 -83.0021 -83.0021 -83.0021 -83.0021 -83.0020
   -48.8398 -48.8398 -48.8398 -48.8397 -48.8397 -48.8397 -48.8397 -48.8397
   -48.8397 -48.8397 -48.8397 -48.8397 -48.8396 -48.8396 -48.8396 -48.8396
   -48.8396 -48.8396 -48.8396 -48.8396 -48.8396 -48.8396 -48.8396 -48.8395
    -1.6346  -1.6255  -1.6217  -1.6120  -1.6120  -1.5973  -1.5947  -1.5946
    -1.5865  -1.5859  -1.5859  -1.5853  -1.5690  -1.5688  -1.5571  -1.5484
    -1.5484  -1.5274  -1.5274  -1.5174  -1.5173  -1.5094  -1.5094  -1.5044
    -1.5044  -1.5021  -1.5018  -1.4947  -1.4947  -1.4687  -1.4681  -1.4630
    -1.4630  -1.4582  -1.4552  -1.4349  -1.4335  -1.4335  -1.4070  -1.4049
    -1.3984  -0.7854  -0.4265  -0.4265   0.0680   0.0680   0.3882   0.8672
     1.6217   1.6217   2.0234   2.2111   2.2112   2.5656

          k = 0.0278 0.0278 0.1944 ( 60317 PWs)   bands (ev):

   -83.0022 -83.0021 -83.0021 -83.0021 -83.0021 -83.0021 -83.0021 -83.0020
   -48.8398 -48.8398 -48.8398 -48.8397 -48.8397 -48.8397 -48.8397 -48.8397
   -48.8397 -48.8397 -48.8396 -48.8396 -48.8396 -48.8396 -48.8396 -48.8396
   -48.8396 -48.8396 -48.8396 -48.8396 -48.8396 -48.8395 -48.8395 -48.8395
    -1.6325  -1.6276  -1.6122  -1.6066  -1.6066  -1.5979  -1.5979  -1.5945
    -1.5940  -1.5881  -1.5728  -1.5728  -1.5572  -1.5570  -1.5417  -1.5417
    -1.5303  -1.5297  -1.5271  -1.5198  -1.5198  -1.5082  -1.5082  -1.5056
    -1.5055  -1.4943  -1.4940  -1.4874  -1.4874  -1.4765  -1.4760  -1.4705
    -1.4705  -1.4625  -1.4581  -1.4581  -1.4575  -1.4559  -1.4065  -1.4054
    -1.2864  -0.9688  -0.3416  -0.3415  -0.0865  -0.0865   0.4730   0.7205
     1.7355   1.7355   2.0422   2.0422   2.4494   2.6744

          k = 0.0278 0.0278-0.2500 ( 60400 PWs)   bands (ev):

   -83.0022 -83.0021 -83.0021 -83.0021 -83.0021 -83.0021 -83.0021 -83.0020
   -48.8399 -48.8398 -48.8398 -48.8397 -48.8397 -48.8397 -48.8397 -48.8397
   -48.8397 -48.8397 -48.8397 -48.8396 -48.8396 -48.8396 -48.8396 -48.8396
   -48.8396 -48.8396 -48.8396 -48.8396 -48.8396 -48.8396 -48.8396 -48.8395
    -1.6301  -1.6300  -1.6028  -1.6028  -1.6019  -1.6019  -1.6019  -1.6019
    -1.5913  -1.5913  -1.5575  -1.5575  -1.5575  -1.5575  -1.5437  -1.5437
    -1.5435  -1.5435  -1.5069  -1.5069  -1.5069  -1.5069  -1.4947  -1.4947
    -1.4883  -1.4883  -1.4883  -1.4883  -1.4854  -1.4854  -1.4850  -1.4850
    -1.4787  -1.4787  -1.4787  -1.4787  -1.4567  -1.4567  -1.4060  -1.4060
    -1.1406  -1.1405  -0.2270  -0.2270  -0.2269  -0.2268   0.5852   0.5854
     1.8787   1.8787   1.8788   1.8788   2.8084   2.8101

          k = 0.0278 0.0833 0.0833 ( 60348 PWs)   bands (ev):

   -83.0022 -83.0021 -83.0021 -83.0021 -83.0021 -83.0021 -83.0021 -83.0020
   -48.8398 -48.8398 -48.8398 -48.8397 -48.8397 -48.8397 -48.8397 -48.8397
   -48.8397 -48.8397 -48.8397 -48.8397 -48.8396 -48.8396 -48.8396 -48.8396
   -48.8396 -48.8396 -48.8396 -48.8396 -48.8396 -48.8395 -48.8395 -48.8395
    -1.6329  -1.6257  -1.6191  -1.6191  -1.6118  -1.5944  -1.5944  -1.5935
    -1.5906  -1.5805  -1.5805  -1.5797  -1.5775  -1.5730  -1.5716  -1.5715
    -1.5608  -1.5173  -1.5148  -1.5135  -1.5134  -1.5086  -1.5086  -1.5072
    -1.5072  -1.5051  -1.5051  -1.5009  -1.5003  -1.4679  -1.4624  -1.4616
    -1.4605  -1.4577  -1.4577  -1.4357  -1.4246  -1.4199  -1.4161  -1.4161
    -1.4101  -0.5890  -0.5890  -0.4544   0.1185   0.2402   0.2402   0.9162
     1.5831   1.7319   1.7319   2.3988   2.3989   2.5355

          k = 0.0278 0.0833 0.1389 ( 60348 PWs)   bands (ev):

   -83.0022 -83.0021 -83.0021 -83.0021 -83.0021 -83.0021 -83.0021 -83.0020
   -48.8398 -48.8398 -48.8398 -48.8397 -48.8397 -48.8397 -48.8397 -48.8397
   -48.8397 -48.8397 -48.8397 -48.8396 -48.8396 -48.8396 -48.8396 -48.8396
   -48.8396 -48.8396 -48.8396 -48.8396 -48.8396 -48.8396 -48.8395 -48.8395
    -1.6306  -1.6207  -1.6157  -1.6130  -1.6033  -1.5958  -1.5924  -1.5850
    -1.5829  -1.5813  -1.5809  -1.5773  -1.5697  -1.5646  -1.5585  -1.5517
    -1.5436  -1.5271  -1.5240  -1.5179  -1.5148  -1.5142  -1.5095  -1.5075
    -1.5064  -1.5015  -1.5015  -1.4995  -1.4951  -1.4733  -1.4679  -1.4662
    -1.4633  -1.4613  -1.4582  -1.4408  -1.4378  -1.4330  -1.4156  -1.4123
    -1.3641  -0.7565  -0.5322  -0.3986  -0.0274   0.0968   0.2972   0.7806
     1.6617   1.8095   2.0623   2.2500   2.3940   2.4745

          k = 0.0278 0.0833 0.1944 ( 60341 PWs)   bands (ev):

   -83.0022 -83.0021 -83.0021 -83.0021 -83.0021 -83.0021 -83.0021 -83.0020
   -48.8398 -48.8398 -48.8398 -48.8397 -48.8397 -48.8397 -48.8397 -48.8397
   -48.8397 -48.8397 -48.8397 -48.8396 -48.8396 -48.8396 -48.8396 -48.8396
   -48.8396 -48.8396 -48.8396 -48.8396 -48.8396 -48.8396 -48.8396 -48.8395
    -1.6282  -1.6230  -1.6077  -1.6049  -1.5991  -1.5962  -1.5897  -1.5863
    -1.5851  -1.5835  -1.5719  -1.5685  -1.5579  -1.5532  -1.5412  -1.5384
    -1.5313  -1.5296  -1.5250  -1.5233  -1.5174  -1.5136  -1.5108  -1.5052
    -1.5026  -1.4995  -1.4937  -1.4922  -1.4878  -1.4813  -1.4758  -1.4737
    -1.4708  -1.4647  -1.4641  -1.4606  -1.4589  -1.4569  -1.4149  -1.4133
    -1.2539  -0.9389  -0.4451  -0.3132  -0.1845  -0.0576   0.3831   0.6329
     1.7753   1.9219   2.0814   2.2258   2.4875   2.5840

          k = 0.0278 0.0833-0.2500 ( 60332 PWs)   bands (ev):

   -83.0022 -83.0021 -83.0021 -83.0021 -83.0021 -83.0021 -83.0021 -83.0020
   -48.8398 -48.8398 -48.8398 -48.8397 -48.8397 -48.8397 -48.8397 -48.8397
   -48.8397 -48.8397 -48.8396 -48.8396 -48.8396 -48.8396 -48.8396 -48.8396
   -48.8396 -48.8396 -48.8396 -48.8396 -48.8396 -48.8396 -48.8396 -48.8395
    -1.6256  -1.6255  -1.6031  -1.6030  -1.5945  -1.5945  -1.5907  -1.5907
    -1.5866  -1.5866  -1.5567  -1.5567  -1.5536  -1.5536  -1.5443  -1.5443
    -1.5400  -1.5400  -1.5122  -1.5122  -1.5040  -1.5039  -1.4963  -1.4963
    -1.4930  -1.4930  -1.4904  -1.4904  -1.4896  -1.4896  -1.4848  -1.4848
    -1.4800  -1.4800  -1.4792  -1.4792  -1.4598  -1.4597  -1.4142  -1.4141
    -1.1095  -1.1095  -0.3278  -0.3277  -0.1982  -0.1981   0.4965   0.4966
     1.9181   1.9182   2.0635   2.0636   2.7196   2.7197

          k = 0.0278 0.1389 0.1389 ( 60316 PWs)   bands (ev):

   -83.0022 -83.0021 -83.0021 -83.0021 -83.0021 -83.0021 -83.0021 -83.0020
   -48.8398 -48.8398 -48.8398 -48.8397 -48.8397 -48.8397 -48.8397 -48.8397
   -48.8397 -48.8397 -48.8396 -48.8396 -48.8396 -48.8396 -48.8396 -48.8396
   -48.8396 -48.8396 -48.8396 -48.8396 -48.8396 -48.8395 -48.8395 -48.8395
    -1.6268  -1.6149  -1.6149  -1.6037  -1.5981  -1.5902  -1.5831  -1.5831
    -1.5744  -1.5725  -1.5693  -1.5611  -1.5611  -1.5580  -1.5580  -1.5567
    -1.5320  -1.5284  -1.5228  -1.5190  -1.5190  -1.5177  -1.5177  -1.5083
    -1.5083  -1.5007  -1.5007  -1.4966  -1.4954  -1.4807  -1.4721  -1.4680
    -1.4665  -1.4639  -1.4639  -1.4552  -1.4482  -1.4321  -1.4321  -1.4217
    -1.2941  -0.6976  -0.6975  -0.3421  -0.1768   0.1546   0.1546   0.6437
     1.7399   2.1385   2.1385   2.3261   2.3263   2.6928

          k = 0.0278 0.1389 0.1944 ( 60343 PWs)   bands (ev):

   -83.0022 -83.0021 -83.0021 -83.0021 -83.0021 -83.0021 -83.0021 -83.0020
   -48.8398 -48.8398 -48.8398 -48.8397 -48.8397 -48.8397 -48.8397 -48.8397
   -48.8397 -48.8397 -48.8397 -48.8396 -48.8396 -48.8396 -48.8396 -48.8396
   -48.8396 -48.8396 -48.8396 -48.8396 -48.8396 -48.8396 -48.8395 -48.8395
    -1.6236  -1.6174  -1.6097  -1.6013  -1.5901  -1.5806  -1.5786  -1.5751
    -1.5703  -1.5667  -1.5651  -1.5603  -1.5592  -1.5458  -1.5403  -1.5342
    -1.5335  -1.5311  -1.5282  -1.5234  -1.5204  -1.5192  -1.5120  -1.5092
    -1.5006  -1.4996  -1.4972  -1.4930  -1.4898  -1.4886  -1.4795  -1.4760
    -1.4752  -1.4714  -1.4706  -1.4664  -1.4646  -1.4550  -1.4308  -1.4267
    -1.1871  -0.8777  -0.6073  -0.3382  -0.2558   0.0006   0.2416   0.4945
     1.8531   2.1582   2.2491   2.4364   2.5493   2.5625

          k = 0.0278 0.1389-0.2500 ( 60346 PWs)   bands (ev):

   -83.0022 -83.0021 -83.0021 -83.0021 -83.0021 -83.0021 -83.0021 -83.0020
   -48.8398 -48.8398 -48.8398 -48.8397 -48.8397 -48.8397 -48.8397 -48.8397
   -48.8397 -48.8397 -48.8397 -48.8396 -48.8396 -48.8396 -48.8396 -48.8396
   -48.8396 -48.8396 -48.8396 -48.8396 -48.8396 -48.8396 -48.8395 -48.8395
    -1.6204  -1.6204  -1.6053  -1.6052  -1.5778  -1.5778  -1.5776  -1.5776
    -1.5706  -1.5706  -1.5554  -1.5554  -1.5462  -1.5462  -1.5456  -1.5456
    -1.5334  -1.5334  -1.5220  -1.5219  -1.5024  -1.5024  -1.5002  -1.5002
    -1.4996  -1.4996  -1.4983  -1.4983  -1.4947  -1.4947  -1.4841  -1.4841
    -1.4799  -1.4799  -1.4791  -1.4790  -1.4655  -1.4655  -1.4292  -1.4292
    -1.0458  -1.0458  -0.4860  -0.4859  -0.1402  -0.1401   0.3564   0.3566
     1.9954   1.9955   2.3889   2.3889   2.5739   2.5739

          k = 0.0278 0.1944 0.1944 ( 60302 PWs)   bands (ev):

   -83.0022 -83.0021 -83.0021 -83.0021 -83.0021 -83.0021 -83.0021 -83.0020
   -48.8398 -48.8398 -48.8398 -48.8397 -48.8397 -48.8397 -48.8397 -48.8397
   -48.8397 -48.8397 -48.8396 -48.8396 -48.8396 -48.8396 -48.8396 -48.8396
   -48.8396 -48.8396 -48.8396 -48.8396 -48.8396 -48.8396 -48.8395 -48.8395
    -1.6196  -1.6126  -1.6125  -1.6045  -1.5725  -1.5681  -1.5681  -1.5662
    -1.5599  -1.5583  -1.5491  -1.5423  -1.5423  -1.5420  -1.5380  -1.5380
    -1.5357  -1.5335  -1.5329  -1.5329  -1.5217  -1.5217  -1.5114  -1.5114
    -1.5033  -1.5002  -1.4941  -1.4920  -1.4920  -1.4906  -1.4882  -1.4845
    -1.4845  -1.4753  -1.4732  -1.4723  -1.4723  -1.4522  -1.4522  -1.4398
    -1.0845  -0.7839  -0.7838  -0.5047  -0.1686   0.0883   0.0883   0.3436
     1.9656   2.2689   2.2691   2.5671   2.6713   2.6714

          k = 0.0278 0.1944-0.2500 ( 60322 PWs)   bands (ev):

   -83.0022 -83.0021 -83.0021 -83.0021 -83.0021 -83.0021 -83.0021 -83.0020
   -48.8398 -48.8398 -48.8398 -48.8397 -48.8397 -48.8397 -48.8397 -48.8397
   -48.8397 -48.8397 -48.8397 -48.8396 -48.8396 -48.8396 -48.8396 -48.8396
   -48.8396 -48.8396 -48.8396 -48.8396 -48.8396 -48.8396 -48.8396 -48.8395
    -1.6159  -1.6159  -1.6083  -1.6082  -1.5660  -1.5659  -1.5560  -1.5560
    -1.5540  -1.5540  -1.5471  -1.5471  -1.5460  -1.5460  -1.5360  -1.5360
    -1.5345  -1.5345  -1.5243  -1.5243  -1.5163  -1.5163  -1.5113  -1.5113
    -1.5080  -1.5080  -1.5035  -1.5035  -1.4909  -1.4908  -1.4832  -1.4832
    -1.4808  -1.4808  -1.4742  -1.4742  -1.4732  -1.4732  -1.4478  -1.4478
    -0.9478  -0.9477  -0.6578  -0.6577  -0.0525  -0.0523   0.2042   0.2043
     2.1072   2.1072   2.4083   2.4083   2.8080   2.8081

          k = 0.0278-0.2500-0.2500 ( 60304 PWs)   bands (ev):

   -83.0022 -83.0021 -83.0021 -83.0021 -83.0021 -83.0021 -83.0021 -83.0020
   -48.8398 -48.8398 -48.8398 -48.8397 -48.8397 -48.8397 -48.8397 -48.8397
   -48.8397 -48.8397 -48.8397 -48.8396 -48.8396 -48.8396 -48.8396 -48.8396
   -48.8396 -48.8396 -48.8396 -48.8396 -48.8396 -48.8396 -48.8396 -48.8395
    -1.6119  -1.6119  -1.6119  -1.6119  -1.5551  -1.5551  -1.5551  -1.5551
    -1.5460  -1.5460  -1.5460  -1.5460  -1.5347  -1.5346  -1.5346  -1.5346
    -1.5239  -1.5239  -1.5239  -1.5239  -1.5232  -1.5232  -1.5232  -1.5232
    -1.5138  -1.5138  -1.5138  -1.5138  -1.4832  -1.4832  -1.4832  -1.4832
    -1.4809  -1.4809  -1.4809  -1.4809  -1.4642  -1.4642  -1.4642  -1.4641
    -0.8164  -0.8164  -0.8164  -0.8162   0.0638   0.0640   0.0640   0.0641
     2.2477   2.2477   2.2479   2.2479   3.2277   3.2277

          k = 0.0833 0.0833 0.0833 ( 60286 PWs)   bands (ev):

   -83.0022 -83.0021 -83.0021 -83.0021 -83.0021 -83.0021 -83.0021 -83.0020
   -48.8398 -48.8398 -48.8398 -48.8397 -48.8397 -48.8397 -48.8397 -48.8397
   -48.8397 -48.8397 -48.8397 -48.8397 -48.8396 -48.8396 -48.8396 -48.8396
   -48.8396 -48.8396 -48.8396 -48.8396 -48.8395 -48.8395 -48.8395 -48.8395
    -1.6249  -1.6249  -1.6127  -1.6127  -1.6127  -1.5896  -1.5896  -1.5896
    -1.5817  -1.5817  -1.5817  -1.5761  -1.5731  -1.5731  -1.5640  -1.5640
    -1.5640  -1.5142  -1.5142  -1.5142  -1.5116  -1.5116  -1.5116  -1.5058
    -1.5058  -1.5058  -1.5053  -1.5053  -1.5053  -1.4687  -1.4648  -1.4648
    -1.4608  -1.4608  -1.4608  -1.4243  -1.4243  -1.4243  -1.4202  -1.4202
    -1.4013  -0.5609  -0.5609  -0.5608   0.1473   0.1473   0.1473   0.8299
     1.7714   1.7714   1.7714   2.5728   2.5808   2.5821

          k = 0.0833 0.0833 0.1389 ( 60344 PWs)   bands (ev):

   -83.0022 -83.0021 -83.0021 -83.0021 -83.0021 -83.0021 -83.0021 -83.0020
   -48.8398 -48.8398 -48.8398 -48.8397 -48.8397 -48.8397 -48.8397 -48.8397
   -48.8397 -48.8397 -48.8397 -48.8396 -48.8396 -48.8396 -48.8396 -48.8396
   -48.8396 -48.8396 -48.8396 -48.8396 -48.8396 -48.8396 -48.8395 -48.8395
    -1.6234  -1.6143  -1.6129  -1.6043  -1.6043  -1.5877  -1.5842  -1.5842
    -1.5803  -1.5803  -1.5766  -1.5701  -1.5661  -1.5647  -1.5598  -1.5471
    -1.5471  -1.5237  -1.5237  -1.5150  -1.5144  -1.5117  -1.5117  -1.5083
    -1.5065  -1.5065  -1.5057  -1.4999  -1.4999  -1.4742  -1.4709  -1.4665
    -1.4665  -1.4647  -1.4613  -1.4403  -1.4403  -1.4396  -1.4237  -1.4207
    -1.3301  -0.7273  -0.5036  -0.5036   0.0018   0.0019   0.2052   0.6934
     1.8489   1.8489   2.1010   2.4323   2.4329   2.6475

          k = 0.0833 0.0833 0.1944 ( 60357 PWs)   bands (ev):

   -83.0022 -83.0021 -83.0021 -83.0021 -83.0021 -83.0021 -83.0021 -83.0020
   -48.8398 -48.8398 -48.8398 -48.8397 -48.8397 -48.8397 -48.8397 -48.8397
   -48.8397 -48.8397 -48.8397 -48.8396 -48.8396 -48.8396 -48.8396 -48.8396
   -48.8396 -48.8396 -48.8396 -48.8396 -48.8396 -48.8396 -48.8396 -48.8396
    -1.6213  -1.6164  -1.6004  -1.5973  -1.5973  -1.5875  -1.5875  -1.5850
    -1.5791  -1.5785  -1.5676  -1.5676  -1.5547  -1.5533  -1.5378  -1.5378
    -1.5328  -1.5266  -1.5252  -1.5212  -1.5211  -1.5105  -1.5105  -1.5077
    -1.5077  -1.5004  -1.4976  -1.4926  -1.4926  -1.4823  -1.4791  -1.4741
    -1.4741  -1.4665  -1.4639  -1.4630  -1.4630  -1.4621  -1.4229  -1.4213
    -1.2213  -0.9087  -0.4160  -0.4160  -0.1551  -0.1550   0.2921   0.5445
     1.9610   1.9610   2.2645   2.2646   2.5256   2.7559

          k = 0.0833 0.0833-0.2500 ( 60388 PWs)   bands (ev):

   -83.0022 -83.0021 -83.0021 -83.0021 -83.0021 -83.0021 -83.0021 -83.0020
   -48.8399 -48.8398 -48.8398 -48.8397 -48.8397 -48.8397 -48.8397 -48.8397
   -48.8397 -48.8397 -48.8397 -48.8397 -48.8396 -48.8396 -48.8396 -48.8396
   -48.8396 -48.8396 -48.8396 -48.8396 -48.8396 -48.8396 -48.8396 -48.8396
    -1.6189  -1.6188  -1.5919  -1.5919  -1.5919  -1.5918  -1.5888  -1.5887
    -1.5821  -1.5820  -1.5529  -1.5529  -1.5529  -1.5529  -1.5415  -1.5415
    -1.5401  -1.5401  -1.5091  -1.5091  -1.5091  -1.5091  -1.4978  -1.4978
    -1.4933  -1.4933  -1.4933  -1.4933  -1.4914  -1.4914  -1.4884  -1.4884
    -1.4815  -1.4815  -1.4815  -1.4815  -1.4630  -1.4630  -1.4221  -1.4221
    -1.0782  -1.0782  -0.2985  -0.2984  -0.2984  -0.2983   0.4068   0.4070
     2.1025   2.1025   2.1025   2.1025   2.8910   2.9083

          k = 0.0833 0.1389 0.1389 ( 60326 PWs)   bands (ev):

   -83.0022 -83.0021 -83.0021 -83.0021 -83.0021 -83.0021 -83.0021 -83.0020
   -48.8398 -48.8398 -48.8398 -48.8397 -48.8397 -48.8397 -48.8397 -48.8397
   -48.8397 -48.8397 -48.8397 -48.8396 -48.8396 -48.8396 -48.8396 -48.8396
   -48.8396 -48.8396 -48.8396 -48.8396 -48.8396 -48.8396 -48.8395 -48.8395
    -1.6172  -1.6060  -1.6060  -1.6029  -1.5911  -1.5865  -1.5786  -1.5786
    -1.5716  -1.5704  -1.5651  -1.5625  -1.5625  -1.5573  -1.5538  -1.5538
    -1.5360  -1.5250  -1.5194  -1.5174  -1.5174  -1.5158  -1.5158  -1.5088
    -1.5088  -1.5057  -1.5057  -1.5015  -1.5002  -1.4806  -1.4725  -1.4721
    -1.4700  -1.4671  -1.4671  -1.4545  -1.4486  -1.4394  -1.4393  -1.4311
    -1.2606  -0.6680  -0.6679  -0.4456  -0.1470   0.0606   0.0607   0.5555
     1.9260   2.1771   2.1771   2.5076   2.5078   2.7306

          k = 0.0833 0.1389 0.1944 ( 60375 PWs)   bands (ev):

   -83.0022 -83.0021 -83.0021 -83.0021 -83.0021 -83.0021 -83.0021 -83.0020
   -48.8398 -48.8398 -48.8398 -48.8397 -48.8397 -48.8397 -48.8397 -48.8397
   -48.8397 -48.8397 -48.8397 -48.8396 -48.8396 -48.8396 -48.8396 -48.8396
   -48.8396 -48.8396 -48.8396 -48.8396 -48.8396 -48.8396 -48.8396 -48.8396
    -1.6139  -1.6083  -1.5993  -1.5898  -1.5887  -1.5796  -1.5761  -1.5709
    -1.5670  -1.5654  -1.5632  -1.5595  -1.5554  -1.5464  -1.5369  -1.5353
    -1.5328  -1.5272  -1.5272  -1.5200  -1.5198  -1.5171  -1.5161  -1.5090
    -1.5046  -1.5021  -1.5011  -1.4977  -1.4936  -1.4896  -1.4801  -1.4794
    -1.4749  -1.4748  -1.4716  -1.4700  -1.4680  -1.4612  -1.4382  -1.4351
    -1.1545  -0.8471  -0.5772  -0.3572  -0.3080  -0.0958   0.1489   0.4048
     2.0378   2.2876   2.3404   2.5874   2.6005   2.6170

          k = 0.0833 0.1389-0.2500 ( 60352 PWs)   bands (ev):

   -83.0022 -83.0021 -83.0021 -83.0021 -83.0021 -83.0021 -83.0021 -83.0020
   -48.8398 -48.8398 -48.8398 -48.8397 -48.8397 -48.8397 -48.8397 -48.8397
   -48.8397 -48.8397 -48.8397 -48.8396 -48.8396 -48.8396 -48.8396 -48.8396
   -48.8396 -48.8396 -48.8396 -48.8396 -48.8396 -48.8396 -48.8396 -48.8396
    -1.6110  -1.6110  -1.5941  -1.5940  -1.5750  -1.5750  -1.5735  -1.5734
    -1.5718  -1.5718  -1.5515  -1.5515  -1.5455  -1.5455  -1.5422  -1.5422
    -1.5339  -1.5339  -1.5187  -1.5186  -1.5039  -1.5039  -1.5015  -1.5015
    -1.5013  -1.5013  -1.4995  -1.4994  -1.4965  -1.4965  -1.4886  -1.4886
    -1.4832  -1.4832  -1.4829  -1.4829  -1.4690  -1.4690  -1.4369  -1.4368
    -1.0142  -1.0141  -0.4557  -0.4556  -0.2392  -0.2390   0.2652   0.2654
     2.1788   2.1789   2.4272   2.4272   2.7534   2.7535

          k = 0.0833 0.1944 0.1944 ( 60311 PWs)   bands (ev):

   -83.0022 -83.0021 -83.0021 -83.0021 -83.0021 -83.0021 -83.0021 -83.0020
   -48.8398 -48.8398 -48.8398 -48.8397 -48.8397 -48.8397 -48.8397 -48.8397
   -48.8397 -48.8397 -48.8396 -48.8396 -48.8396 -48.8396 -48.8396 -48.8396
   -48.8396 -48.8396 -48.8396 -48.8396 -48.8396 -48.8396 -48.8396 -48.8396
    -1.6090  -1.6020  -1.6020  -1.5931  -1.5718  -1.5640  -1.5640  -1.5622
    -1.5609  -1.5544  -1.5483  -1.5408  -1.5408  -1.5397  -1.5397  -1.5385
    -1.5364  -1.5297  -1.5289  -1.5289  -1.5213  -1.5213  -1.5119  -1.5119
    -1.5071  -1.4999  -1.4969  -1.4967  -1.4967  -1.4953  -1.4892  -1.4863
    -1.4849  -1.4797  -1.4769  -1.4759  -1.4759  -1.4588  -1.4588  -1.4481
    -1.0521  -0.7529  -0.7529  -0.4740  -0.2682  -0.0066  -0.0066   0.2522
     2.1491   2.4501   2.4502   2.7092   2.7092   2.7464

          k = 0.0833 0.1944-0.2500 ( 60334 PWs)   bands (ev):

   -83.0022 -83.0021 -83.0021 -83.0021 -83.0021 -83.0021 -83.0021 -83.0020
   -48.8398 -48.8398 -48.8398 -48.8397 -48.8397 -48.8397 -48.8397 -48.8397
   -48.8397 -48.8397 -48.8397 -48.8396 -48.8396 -48.8396 -48.8396 -48.8396
   -48.8396 -48.8396 -48.8396 -48.8396 -48.8396 -48.8396 -48.8396 -48.8396
    -1.6053  -1.6052  -1.5971  -1.5971  -1.5620  -1.5619  -1.5550  -1.5550
    -1.5506  -1.5506  -1.5469  -1.5469  -1.5437  -1.5437  -1.5353  -1.5353
    -1.5305  -1.5305  -1.5249  -1.5249  -1.5160  -1.5160  -1.5109  -1.5109
    -1.5086  -1.5086  -1.5044  -1.5044  -1.4955  -1.4954  -1.4877  -1.4877
    -1.4846  -1.4846  -1.4797  -1.4796  -1.4770  -1.4769  -1.4551  -1.4551
    -0.9160  -0.9160  -0.6268  -0.6267  -0.1498  -0.1496   0.1110   0.1111
     2.2894   2.2894   2.5885   2.5885   2.8457   2.8457

          k = 0.0833-0.2500-0.2500 ( 60308 PWs)   bands (ev):

   -83.0022 -83.0021 -83.0021 -83.0021 -83.0021 -83.0021 -83.0021 -83.0020
   -48.8398 -48.8398 -48.8398 -48.8397 -48.8397 -48.8397 -48.8397 -48.8397
   -48.8397 -48.8397 -48.8396 -48.8396 -48.8396 -48.8396 -48.8396 -48.8396
   -48.8396 -48.8396 -48.8396 -48.8396 -48.8396 -48.8396 -48.8396 -48.8396
    -1.6008  -1.6008  -1.6008  -1.6008  -1.5513  -1.5513  -1.5513  -1.5513
    -1.5428  -1.5428  -1.5428  -1.5428  -1.5342  -1.5342  -1.5342  -1.5342
    -1.5234  -1.5233  -1.5233  -1.5233  -1.5233  -1.5232  -1.5232  -1.5232
    -1.5145  -1.5145  -1.5145  -1.5145  -1.4878  -1.4878  -1.4878  -1.4878
    -1.4847  -1.4847  -1.4847  -1.4846  -1.4708  -1.4708  -1.4708  -1.4707
    -0.7849  -0.7849  -0.7849  -0.7847  -0.0314  -0.0313  -0.0313  -0.0312
     2.4288   2.4288   2.4289   2.4290   3.2643   3.2643

          k = 0.1389 0.1389 0.1389 ( 60355 PWs)   bands (ev):

   -83.0022 -83.0021 -83.0021 -83.0021 -83.0021 -83.0021 -83.0021 -83.0020
   -48.8398 -48.8398 -48.8398 -48.8397 -48.8397 -48.8397 -48.8397 -48.8397
   -48.8397 -48.8397 -48.8397 -48.8397 -48.8396 -48.8396 -48.8396 -48.8396
   -48.8396 -48.8396 -48.8396 -48.8396 -48.8396 -48.8396 -48.8395 -48.8395
    -1.6015  -1.6015  -1.5927  -1.5927  -1.5927  -1.5701  -1.5701  -1.5701
    -1.5648  -1.5648  -1.5648  -1.5641  -1.5572  -1.5572  -1.5434  -1.5434
    -1.5434  -1.5189  -1.5189  -1.5189  -1.5130  -1.5130  -1.5130  -1.5104
    -1.5104  -1.5104  -1.5091  -1.5091  -1.5091  -1.4831  -1.4764  -1.4764
    -1.4732  -1.4732  -1.4732  -1.4535  -1.4535  -1.4535  -1.4492  -1.4492
    -1.1922  -0.6080  -0.6080  -0.6079  -0.0871  -0.0871  -0.0871   0.4157
     2.2530   2.2530   2.2530   2.8044   2.8044   2.8044

          k = 0.1389 0.1389 0.1944 ( 60326 PWs)   bands (ev):

   -83.0022 -83.0021 -83.0021 -83.0021 -83.0021 -83.0021 -83.0021 -83.0020
   -48.8398 -48.8398 -48.8398 -48.8397 -48.8397 -48.8397 -48.8397 -48.8397
   -48.8397 -48.8397 -48.8397 -48.8396 -48.8396 -48.8396 -48.8396 -48.8396
   -48.8396 -48.8396 -48.8396 -48.8396 -48.8396 -48.8396 -48.8395 -48.8395
    -1.5995  -1.5949  -1.5840  -1.5814  -1.5814  -1.5689  -1.5689  -1.5677
    -1.5631  -1.5579  -1.5579  -1.5541  -1.5492  -1.5463  -1.5379  -1.5308
    -1.5308  -1.5239  -1.5239  -1.5210  -1.5208  -1.5137  -1.5137  -1.5111
    -1.5111  -1.5107  -1.5045  -1.5021  -1.5021  -1.4913  -1.4850  -1.4812
    -1.4812  -1.4764  -1.4744  -1.4743  -1.4732  -1.4732  -1.4523  -1.4501
    -1.0879  -0.7850  -0.5166  -0.5166  -0.2474  -0.2473   0.0028   0.2628
     2.3631   2.3631   2.6621   2.6623   2.6752   2.9121

          k = 0.1389 0.1389-0.2500 ( 60344 PWs)   bands (ev):

   -83.0022 -83.0021 -83.0021 -83.0021 -83.0021 -83.0021 -83.0021 -83.0020
   -48.8398 -48.8398 -48.8398 -48.8397 -48.8397 -48.8397 -48.8397 -48.8397
   -48.8397 -48.8397 -48.8397 -48.8396 -48.8396 -48.8396 -48.8396 -48.8396
   -48.8396 -48.8396 -48.8396 -48.8396 -48.8396 -48.8396 -48.8396 -48.8396
    -1.5972  -1.5972  -1.5740  -1.5740  -1.5739  -1.5739  -1.5678  -1.5678
    -1.5653  -1.5653  -1.5442  -1.5442  -1.5442  -1.5442  -1.5371  -1.5371
    -1.5337  -1.5337  -1.5126  -1.5126  -1.5125  -1.5125  -1.5039  -1.5039
    -1.5023  -1.5023  -1.5023  -1.5023  -1.5012  -1.5012  -1.4948  -1.4948
    -1.4881  -1.4881  -1.4881  -1.4881  -1.4754  -1.4754  -1.4512  -1.4512
    -0.9498  -0.9497  -0.3948  -0.3948  -0.3947  -0.3947   0.1211   0.1212
     2.5024   2.5024   2.5024   2.5024   3.0484   3.1006

          k = 0.1389 0.1944 0.1944 ( 60325 PWs)   bands (ev):

   -83.0022 -83.0021 -83.0021 -83.0021 -83.0021 -83.0021 -83.0021 -83.0020
   -48.8398 -48.8398 -48.8398 -48.8397 -48.8397 -48.8397 -48.8397 -48.8397
   -48.8397 -48.8397 -48.8396 -48.8396 -48.8396 -48.8396 -48.8396 -48.8396
   -48.8396 -48.8396 -48.8396 -48.8396 -48.8396 -48.8396 -48.8396 -48.8396
    -1.5907  -1.5839  -1.5839  -1.5723  -1.5706  -1.5626  -1.5563  -1.5563
    -1.5549  -1.5471  -1.5469  -1.5420  -1.5420  -1.5373  -1.5372  -1.5372
    -1.5319  -1.5227  -1.5223  -1.5223  -1.5208  -1.5208  -1.5155  -1.5130
    -1.5130  -1.5052  -1.5052  -1.5040  -1.5039  -1.4997  -1.4893  -1.4889
    -1.4871  -1.4856  -1.4837  -1.4825  -1.4825  -1.4715  -1.4715  -1.4640
    -0.9864  -0.6904  -0.6903  -0.4248  -0.4122  -0.1563  -0.1562   0.1077
     2.4728   2.7705   2.7706   2.7835   2.7835   3.0335

          k = 0.1389 0.1944-0.2500 ( 60366 PWs)   bands (ev):

   -83.0022 -83.0021 -83.0021 -83.0021 -83.0021 -83.0021 -83.0021 -83.0020
   -48.8398 -48.8398 -48.8398 -48.8397 -48.8397 -48.8397 -48.8397 -48.8397
   -48.8397 -48.8397 -48.8397 -48.8396 -48.8396 -48.8396 -48.8396 -48.8396
   -48.8396 -48.8396 -48.8396 -48.8396 -48.8396 -48.8396 -48.8396 -48.8396
    -1.5868  -1.5868  -1.5770  -1.5769  -1.5544  -1.5544  -1.5529  -1.5529
    -1.5500  -1.5499  -1.5425  -1.5425  -1.5373  -1.5373  -1.5342  -1.5342
    -1.5260  -1.5260  -1.5237  -1.5236  -1.5157  -1.5157  -1.5105  -1.5105
    -1.5097  -1.5097  -1.5070  -1.5070  -1.5038  -1.5038  -1.4956  -1.4956
    -1.4913  -1.4913  -1.4895  -1.4895  -1.4839  -1.4838  -1.4691  -1.4691
    -0.8518  -0.8517  -0.5644  -0.5643  -0.3031  -0.3029  -0.0362  -0.0361
     2.6115   2.6115   2.9075   2.9075   2.9197   2.9198

          k = 0.1389-0.2500-0.2500 ( 60352 PWs)   bands (ev):

   -83.0022 -83.0021 -83.0021 -83.0021 -83.0021 -83.0021 -83.0021 -83.0020
   -48.8398 -48.8398 -48.8398 -48.8397 -48.8397 -48.8397 -48.8397 -48.8397
   -48.8397 -48.8397 -48.8397 -48.8396 -48.8396 -48.8396 -48.8396 -48.8396
   -48.8396 -48.8396 -48.8396 -48.8396 -48.8396 -48.8396 -48.8396 -48.8396
    -1.5809  -1.5809  -1.5809  -1.5809  -1.5443  -1.5442  -1.5442  -1.5442
    -1.5376  -1.5376  -1.5376  -1.5376  -1.5335  -1.5335  -1.5335  -1.5335
    -1.5226  -1.5226  -1.5226  -1.5226  -1.5224  -1.5224  -1.5224  -1.5224
    -1.5159  -1.5159  -1.5159  -1.5159  -1.4961  -1.4960  -1.4960  -1.4960
    -1.4917  -1.4917  -1.4917  -1.4917  -1.4836  -1.4836  -1.4836  -1.4835
    -0.7213  -0.7213  -0.7213  -0.7211  -0.1818  -0.1817  -0.1817  -0.1816
     2.7494   2.7494   2.7495   2.7496   3.3359   3.3359

          k = 0.1944 0.1944 0.1944 ( 60406 PWs)   bands (ev):

   -83.0022 -83.0021 -83.0021 -83.0021 -83.0021 -83.0021 -83.0021 -83.0020
   -48.8398 -48.8398 -48.8398 -48.8397 -48.8397 -48.8397 -48.8397 -48.8397
   -48.8397 -48.8397 -48.8397 -48.8397 -48.8396 -48.8396 -48.8396 -48.8396
   -48.8396 -48.8396 -48.8396 -48.8396 -48.8396 -48.8396 -48.8396 -48.8396
    -1.5689  -1.5689  -1.5647  -1.5647  -1.5647  -1.5478  -1.5478  -1.5478
    -1.5465  -1.5434  -1.5434  -1.5434  -1.5372  -1.5372  -1.5293  -1.5293
    -1.5292  -1.5228  -1.5228  -1.5228  -1.5146  -1.5146  -1.5146  -1.5141
    -1.5141  -1.5141  -1.5135  -1.5135  -1.5135  -1.5031  -1.4928  -1.4928
    -1.4912  -1.4912  -1.4912  -1.4886  -1.4886  -1.4886  -1.4865  -1.4865
    -0.8866  -0.5957  -0.5957  -0.5957  -0.3194  -0.3194  -0.3193  -0.0504
     2.8915   2.8915   2.8915   3.1402   3.1403   3.1403

          k = 0.1944 0.1944-0.2500 ( 60384 PWs)   bands (ev):

   -83.0022 -83.0021 -83.0021 -83.0021 -83.0021 -83.0021 -83.0021 -83.0020
   -48.8398 -48.8398 -48.8398 -48.8397 -48.8397 -48.8397 -48.8397 -48.8397
   -48.8397 -48.8397 -48.8397 -48.8396 -48.8396 -48.8396 -48.8396 -48.8396
   -48.8396 -48.8396 -48.8396 -48.8396 -48.8396 -48.8396 -48.8396 -48.8396
    -1.5669  -1.5668  -1.5523  -1.5523  -1.5523  -1.5523  -1.5475  -1.5475
    -1.5443  -1.5443  -1.5329  -1.5329  -1.5329  -1.5329  -1.5309  -1.5309
    -1.5257  -1.5257  -1.5169  -1.5169  -1.5169  -1.5169  -1.5131  -1.5131
    -1.5131  -1.5131  -1.5125  -1.5125  -1.5121  -1.5121  -1.5032  -1.5032
    -1.4988  -1.4988  -1.4988  -1.4987  -1.4929  -1.4929  -1.4876  -1.4876
    -0.7544  -0.7543  -0.4703  -0.4703  -0.4702  -0.4701  -0.1970  -0.1969
     3.0272   3.0272   3.0272   3.0272   3.2750   3.2756

          k = 0.1944-0.2500-0.2500 ( 60356 PWs)   bands (ev):

   -83.0022 -83.0021 -83.0021 -83.0021 -83.0021 -83.0021 -83.0021 -83.0020
   -48.8398 -48.8398 -48.8398 -48.8397 -48.8397 -48.8397 -48.8397 -48.8397
   -48.8397 -48.8397 -48.8397 -48.8396 -48.8396 -48.8396 -48.8396 -48.8396
   -48.8396 -48.8396 -48.8396 -48.8396 -48.8396 -48.8396 -48.8396 -48.8396
    -1.5563  -1.5562  -1.5562  -1.5562  -1.5348  -1.5348  -1.5348  -1.5348
    -1.5332  -1.5332  -1.5332  -1.5332  -1.5326  -1.5326  -1.5326  -1.5326
    -1.5218  -1.5218  -1.5218  -1.5218  -1.5190  -1.5190  -1.5190  -1.5190
    -1.5190  -1.5190  -1.5190  -1.5190  -1.5058  -1.5058  -1.5058  -1.5058
    -1.5009  -1.5009  -1.5009  -1.5009  -1.5006  -1.5006  -1.5006  -1.5006
    -0.6253  -0.6252  -0.6252  -0.6251  -0.3460  -0.3460  -0.3460  -0.3458
     3.1622   3.1622   3.1624   3.1624   3.4382   3.4382

          k =-0.2500-0.2500-0.2500 ( 60256 PWs)   bands (ev):

   -83.0022 -83.0021 -83.0021 -83.0021 -83.0021 -83.0021 -83.0021 -83.0020
   -48.8398 -48.8398 -48.8398 -48.8396 -48.8396 -48.8396 -48.8396 -48.8396
   -48.8396 -48.8396 -48.8396 -48.8396 -48.8396 -48.8396 -48.8396 -48.8396
   -48.8396 -48.8396 -48.8396 -48.8396 -48.8396 -48.8396 -48.8396 -48.8396
    -1.5321  -1.5321  -1.5321  -1.5321  -1.5321  -1.5321  -1.5321  -1.5321
    -1.5321  -1.5321  -1.5321  -1.5320  -1.5320  -1.5320  -1.5320  -1.5320
    -1.5253  -1.5253  -1.5253  -1.5253  -1.5253  -1.5253  -1.5253  -1.5253
    -1.5108  -1.5108  -1.5108  -1.5108  -1.5108  -1.5108  -1.5108  -1.5108
    -1.5108  -1.5108  -1.5108  -1.5108  -1.5108  -1.5108  -1.5108  -1.5108
    -0.4983  -0.4983  -0.4983  -0.4983  -0.4982  -0.4982  -0.4982  -0.4979
     3.5213   3.5214   3.5214   3.5214   3.5216   3.5217

     the Fermi energy is    -1.0465 ev

!    total energy              =   -4093.92370466 Ry

     total all-electron energy =    -80734.137131 Ry
     estimated scf accuracy    <       0.00000012 Ry
     smearing contrib. (-TS)   =       0.18013859 Ry
     internal energy E=F+TS    =   -4094.10384325 Ry

     The total energy is F=E-TS. E is the sum of the following terms:
     one-electron contribution =   -2005.65604551 Ry
     hartree contribution      =    1010.23394052 Ry
     xc contribution           =    -246.39328669 Ry
     ewald contribution        =    -810.65642271 Ry
     one-center paw contrib.   =   -2041.63202885 Ry

     convergence has been achieved in  61 iterations

     Forces acting on atoms (cartesian axes, Ry/au):

     atom    1 type  1   force =     0.00000000    0.00000000    0.00000000
     atom    2 type  1   force =     0.00000000    0.00000000    0.00000000
     atom    3 type  1   force =     0.00000000    0.00000000    0.00000000
     atom    4 type  1   force =     0.00000000    0.00000000    0.00000000
     atom    5 type  1   force =     0.00000000    0.00000000    0.00000000
     atom    6 type  1   force =     0.00000000    0.00000000    0.00000000
     atom    7 type  1   force =     0.00000000    0.00000000    0.00000000
     atom    8 type  1   force =     0.00000000    0.00000000    0.00000000

     Total force =     0.000000     Total SCF correction =     0.000000


     Computing stress (Cartesian axis) and pressure

          total   stress  (Ry/bohr**3)                   (kbar)     P=       -9.21
  -0.00006263   0.00000000   0.00000000           -9.21        0.00        0.00
   0.00000000  -0.00006263   0.00000000            0.00       -9.21        0.00
   0.00000000   0.00000000  -0.00006263            0.00        0.00       -9.21


     Writing output data file /scratch/lgYwKCCStzhEGGNn.save/
 
     init_run     :      3.37s CPU      3.56s WALL (       1 calls)
     electrons    :    529.54s CPU    538.72s WALL (       1 calls)
     forces       :      0.79s CPU      0.83s WALL (       1 calls)
     stress       :      4.02s CPU      4.09s WALL (       1 calls)

     Called by init_run:
     wfcinit      :      2.69s CPU      2.78s WALL (       1 calls)
     potinit      :      0.12s CPU      0.14s WALL (       1 calls)
     hinit0       :      0.07s CPU      0.08s WALL (       1 calls)

     Called by electrons:
     c_bands      :    440.85s CPU    446.65s WALL (      61 calls)
     sum_band     :     80.61s CPU     82.62s WALL (      61 calls)
     v_of_rho     :      1.36s CPU      1.41s WALL (      62 calls)
     newd         :      2.44s CPU      3.27s WALL (      62 calls)
     PAW_pot      :      3.25s CPU      3.68s WALL (      62 calls)
     mix_rho      :      0.61s CPU      0.64s WALL (      61 calls)

     Called by c_bands:
     init_us_2    :      3.72s CPU      3.85s WALL (    4375 calls)
     cegterg      :    425.44s CPU    430.90s WALL (    2135 calls)

     Called by *egterg:
     cdiaghg      :     31.49s CPU     31.68s WALL (    6588 calls)
     h_psi        :    299.13s CPU    303.58s WALL (    6623 calls)
     s_psi        :      7.21s CPU      7.28s WALL (    6623 calls)
     g_psi        :      0.77s CPU      0.79s WALL (    4453 calls)

     Called by h_psi:
     h_psi:calbec :     15.63s CPU     15.74s WALL (    6623 calls)
     vloc_psi     :    273.55s CPU    277.81s WALL (    6623 calls)
     add_vuspsi   :      7.97s CPU      8.03s WALL (    6623 calls)

     General routines
     calbec       :     23.01s CPU     23.21s WALL (    8933 calls)
     fft          :      1.15s CPU      1.18s WALL (     829 calls)
     ffts         :      0.11s CPU      0.12s WALL (     123 calls)
     fftw         :    326.45s CPU    331.21s WALL (  966316 calls)
     interpolate  :      0.16s CPU      0.17s WALL (      62 calls)
 
     Parallel routines
     fft_scatt_xy :     25.23s CPU     25.55s WALL (  967268 calls)
     fft_scatt_yz :    243.04s CPU    246.87s WALL (  967268 calls)
 
     PWSCF        :   9m 2.36s CPU   9m13.05s WALL

 
   This run was terminated on:   4:37: 2  30Nov2021            

=------------------------------------------------------------------------------=
   JOB DONE.
=------------------------------------------------------------------------------=
