
     Program PWSCF v.6.7MaX starts on 30Nov2021 at  3:38:36 

     This program is part of the open-source Quantum ESPRESSO suite
     for quantum simulation of materials; please cite
         "P. Giannozzi et al., J. Phys.:Condens. Matter 21 395502 (2009);
         "P. Giannozzi et al., J. Phys.:Condens. Matter 29 465901 (2017);
          URL http://www.quantum-espresso.org", 
     in publications or presentations arising from this work. More details at
     http://www.quantum-espresso.org/quote

     Parallel version (MPI & OpenMP), running on      72 processor cores
     Number of MPI processes:                72
     Threads/MPI process:                     1

     MPI processes distributed on     1 nodes
     R & G space division:  proc/nbgrp/npool/nimage =      72
     Reading input from sc_2.in
Warning: card &CELL ignored
Warning: card CELL_DYNAMICS = 'BFGS', ignored
Warning: card CELL_FACTOR = 2.0, ignored
Warning: card PRESS = 0.0, ignored
Warning: card / ignored

     Current dimensions of program PWSCF are:
     Max number of different atomic species (ntypx) = 10
     Max number of k-points (npk) =  40000
     Max angular momentum in pseudopotentials (lmaxx) =  3
     file Pd.pbe-spn-kjpaw_psl.1.0.0.UPF: wavefunction(s)  4S 5S 4D renormalized

     Subspace diagonalization in iterative solution of the eigenvalue problem:
     one sub-group per band group will be used
     ELPA distributed-memory algorithm (size of sub-group:  8*  8 procs)

     Found symmetry operation: I + (  0.0000  0.0000  0.5000)
     This is a supercell, fractional translations are disabled
     Message from routine setup:
     using ibrav=0 with symmetry is DISCOURAGED, use correct ibrav instead
 
     Parallelization info
     --------------------
     sticks:   dense  smooth     PW     G-vecs:    dense   smooth      PW
     Min          26      17      5                  849      453      68
     Max          28      18      7                  852      458      77
     Sum        1885    1237    365                61205    32795    5257
 


     bravais-lattice index     =            0
     lattice parameter (alat)  =       9.0720  a.u.
     unit-cell volume          =     405.3624 (a.u.)^3
     number of atoms/cell      =            8
     number of atomic types    =            1
     number of electrons       =       144.00
     number of Kohn-Sham states=           86
     kinetic-energy cutoff     =      71.0000  Ry
     charge density cutoff     =     430.0000  Ry
     scf convergence threshold =      1.0E-06
     mixing beta               =       0.1000
     number of iterations used =           10  TF        mixing
     Exchange-correlation= SLA  PW   PBX  PBC
                           (   1   4   3   4   0   0   0)

     celldm(1)=   9.072000  celldm(2)=   0.000000  celldm(3)=   0.000000
     celldm(4)=   0.000000  celldm(5)=   0.000000  celldm(6)=   0.000000

     crystal axes: (cart. coord. in units of alat)
               a(1) = (   0.815789   0.000000   0.000000 )  
               a(2) = (   0.000000   0.815789   0.000000 )  
               a(3) = (   0.000000   0.000000   0.815789 )  

     reciprocal axes: (cart. coord. in units 2 pi/alat)
               b(1) = (  1.225806  0.000000  0.000000 )  
               b(2) = (  0.000000  1.225806  0.000000 )  
               b(3) = (  0.000000  0.000000  1.225806 )  


     PseudoPot. # 1 for Pd read from file:
     /rds/homes/b/bxp912/pp/Pd.pbe-spn-kjpaw_psl.1.0.0.UPF
     MD5 check sum: 790f2ebce206edfd9790dcb9844eca51
     Pseudo is Projector augmented-wave + core cor, Zval = 18.0
     Generated using &quot;atomic&quot; code by A. Dal Corso  v.6.3
     Shape of augmentation charge: PSQ
     Using radial grid of 1235 points,  6 beta functions with: 
                l(1) =   0
                l(2) =   0
                l(3) =   1
                l(4) =   1
                l(5) =   2
                l(6) =   2
     Q(r) pseudized with 0 coefficients 


     atomic species   valence    mass     pseudopotential
        Pd            18.00   106.42000     Pd( 1.00)

     48 Sym. Ops., with inversion, found



   Cartesian axes

     site n.     atom                  positions (alat units)
         1           Pd  tau(   1) = (   0.0000000   0.0000000   0.0000000  )
         2           Pd  tau(   2) = (   0.0000000   0.0000000   0.4078947  )
         3           Pd  tau(   3) = (   0.0000000   0.4078947   0.0000000  )
         4           Pd  tau(   4) = (   0.0000000   0.4078947   0.4078947  )
         5           Pd  tau(   5) = (   0.4078947   0.0000000   0.0000000  )
         6           Pd  tau(   6) = (   0.4078947   0.0000000   0.4078947  )
         7           Pd  tau(   7) = (   0.4078947   0.4078947   0.0000000  )
         8           Pd  tau(   8) = (   0.4078947   0.4078947   0.4078947  )

     number of k points=    35  Marzari-Vanderbilt smearing, width (Ry)=  0.0400
                       cart. coord. in units 2pi/alat
        k(    1) = (   0.0681004   0.0681004   0.0681004), wk =   0.0219479
        k(    2) = (   0.0681004   0.0681004   0.2043011), wk =   0.0658436
        k(    3) = (   0.0681004   0.0681004   0.3405018), wk =   0.0658436
        k(    4) = (   0.0681004   0.0681004   0.4767025), wk =   0.0658436
        k(    5) = (   0.0681004   0.0681004  -0.6129032), wk =   0.0329218
        k(    6) = (   0.0681004   0.2043011   0.2043011), wk =   0.0658436
        k(    7) = (   0.0681004   0.2043011   0.3405018), wk =   0.1316872
        k(    8) = (   0.0681004   0.2043011   0.4767025), wk =   0.1316872
        k(    9) = (   0.0681004   0.2043011  -0.6129032), wk =   0.0658436
        k(   10) = (   0.0681004   0.3405018   0.3405018), wk =   0.0658436
        k(   11) = (   0.0681004   0.3405018   0.4767025), wk =   0.1316872
        k(   12) = (   0.0681004   0.3405018  -0.6129032), wk =   0.0658436
        k(   13) = (   0.0681004   0.4767025   0.4767025), wk =   0.0658436
        k(   14) = (   0.0681004   0.4767025  -0.6129032), wk =   0.0658436
        k(   15) = (   0.0681004  -0.6129032  -0.6129032), wk =   0.0164609
        k(   16) = (   0.2043011   0.2043011   0.2043011), wk =   0.0219479
        k(   17) = (   0.2043011   0.2043011   0.3405018), wk =   0.0658436
        k(   18) = (   0.2043011   0.2043011   0.4767025), wk =   0.0658436
        k(   19) = (   0.2043011   0.2043011  -0.6129032), wk =   0.0329218
        k(   20) = (   0.2043011   0.3405018   0.3405018), wk =   0.0658436
        k(   21) = (   0.2043011   0.3405018   0.4767025), wk =   0.1316872
        k(   22) = (   0.2043011   0.3405018  -0.6129032), wk =   0.0658436
        k(   23) = (   0.2043011   0.4767025   0.4767025), wk =   0.0658436
        k(   24) = (   0.2043011   0.4767025  -0.6129032), wk =   0.0658436
        k(   25) = (   0.2043011  -0.6129032  -0.6129032), wk =   0.0164609
        k(   26) = (   0.3405018   0.3405018   0.3405018), wk =   0.0219479
        k(   27) = (   0.3405018   0.3405018   0.4767025), wk =   0.0658436
        k(   28) = (   0.3405018   0.3405018  -0.6129032), wk =   0.0329218
        k(   29) = (   0.3405018   0.4767025   0.4767025), wk =   0.0658436
        k(   30) = (   0.3405018   0.4767025  -0.6129032), wk =   0.0658436
        k(   31) = (   0.3405018  -0.6129032  -0.6129032), wk =   0.0164609
        k(   32) = (   0.4767025   0.4767025   0.4767025), wk =   0.0219479
        k(   33) = (   0.4767025   0.4767025  -0.6129032), wk =   0.0329218
        k(   34) = (   0.4767025  -0.6129032  -0.6129032), wk =   0.0164609
        k(   35) = (  -0.6129032  -0.6129032  -0.6129032), wk =   0.0027435

     Dense  grid:    61205 G-vectors     FFT dimensions: (  50,  50,  50)

     Smooth grid:    32795 G-vectors     FFT dimensions: (  40,  40,  40)

     Estimated max dynamical RAM per process >       7.75 MB

     Estimated total dynamical RAM >     557.94 MB

     Check: negative core charge=   -0.000002

     Initial potential from superposition of free atoms

     starting charge  143.99694, renormalised to  144.00000
     Starting wfcs are   80 randomized atomic wfcs +    6 random wfcs
     Checking if some PAW data can be deallocated... 

     total cpu time spent up to now is        3.8 secs

     Self-consistent Calculation

     iteration #  1     ecut=    71.00 Ry     beta= 0.10
     Davidson diagonalization with overlap
     ethr =  1.00E-02,  avg # of iterations =  5.3

     Threshold (ethr) on eigenvalues was too large:
     Diagonalizing with lowered threshold

     Davidson diagonalization with overlap
     ethr =  1.89E-04,  avg # of iterations =  3.4

     total cpu time spent up to now is        9.0 secs

     total energy              =   -4088.09593755 Ry
     estimated scf accuracy    <       0.24812631 Ry

     iteration #  2     ecut=    71.00 Ry     beta= 0.10
     Davidson diagonalization with overlap
     ethr =  1.72E-04,  avg # of iterations =  1.2

     total cpu time spent up to now is       10.7 secs

     total energy              =   -4087.98329253 Ry
     estimated scf accuracy    <       0.19336562 Ry

     iteration #  3     ecut=    71.00 Ry     beta= 0.10
     Davidson diagonalization with overlap
     ethr =  1.34E-04,  avg # of iterations =  2.2

     total cpu time spent up to now is       13.2 secs

     total energy              =   -4088.01968074 Ry
     estimated scf accuracy    <       0.00927277 Ry

     iteration #  4     ecut=    71.00 Ry     beta= 0.10
     Davidson diagonalization with overlap
     ethr =  6.44E-06,  avg # of iterations =  3.9

     total cpu time spent up to now is       15.8 secs

     total energy              =   -4088.01697763 Ry
     estimated scf accuracy    <       0.00570321 Ry

     iteration #  5     ecut=    71.00 Ry     beta= 0.10
     Davidson diagonalization with overlap
     ethr =  3.96E-06,  avg # of iterations =  2.0

     total cpu time spent up to now is       18.1 secs

     total energy              =   -4088.01770169 Ry
     estimated scf accuracy    <       0.00031060 Ry

     iteration #  6     ecut=    71.00 Ry     beta= 0.10
     Davidson diagonalization with overlap
     ethr =  2.16E-07,  avg # of iterations =  2.3

     total cpu time spent up to now is       21.3 secs

     total energy              =   -4088.01768765 Ry
     estimated scf accuracy    <       0.00027896 Ry

     iteration #  7     ecut=    71.00 Ry     beta= 0.10
     Davidson diagonalization with overlap
     ethr =  1.94E-07,  avg # of iterations =  1.0

     total cpu time spent up to now is       23.2 secs

     total energy              =   -4088.01775724 Ry
     estimated scf accuracy    <       0.00017709 Ry

     iteration #  8     ecut=    71.00 Ry     beta= 0.10
     Davidson diagonalization with overlap
     ethr =  1.23E-07,  avg # of iterations =  2.0

     total cpu time spent up to now is       25.5 secs

     total energy              =   -4088.01772736 Ry
     estimated scf accuracy    <       0.00015004 Ry

     iteration #  9     ecut=    71.00 Ry     beta= 0.10
     Davidson diagonalization with overlap
     ethr =  1.04E-07,  avg # of iterations =  1.0

     total cpu time spent up to now is       27.2 secs

     total energy              =   -4088.01774068 Ry
     estimated scf accuracy    <       0.00005787 Ry

     iteration # 10     ecut=    71.00 Ry     beta= 0.10
     Davidson diagonalization with overlap
     ethr =  4.02E-08,  avg # of iterations =  3.9

     total cpu time spent up to now is       31.1 secs

     total energy              =   -4088.01774222 Ry
     estimated scf accuracy    <       0.00006878 Ry

     iteration # 11     ecut=    71.00 Ry     beta= 0.10
     Davidson diagonalization with overlap
     ethr =  4.02E-08,  avg # of iterations =  1.0

     total cpu time spent up to now is       33.0 secs

     total energy              =   -4088.01770356 Ry
     estimated scf accuracy    <       0.00003982 Ry

     iteration # 12     ecut=    71.00 Ry     beta= 0.10
     Davidson diagonalization with overlap
     ethr =  2.77E-08,  avg # of iterations =  3.0

     total cpu time spent up to now is       36.3 secs

     total energy              =   -4088.01771881 Ry
     estimated scf accuracy    <       0.00001042 Ry

     iteration # 13     ecut=    71.00 Ry     beta= 0.10
     Davidson diagonalization with overlap
     ethr =  7.23E-09,  avg # of iterations =  1.0

     total cpu time spent up to now is       38.7 secs

     total energy              =   -4088.01771377 Ry
     estimated scf accuracy    <       0.00000780 Ry

     iteration # 14     ecut=    71.00 Ry     beta= 0.10
     Davidson diagonalization with overlap
     ethr =  5.41E-09,  avg # of iterations =  1.0

     total cpu time spent up to now is       40.4 secs

     total energy              =   -4088.01771483 Ry
     estimated scf accuracy    <       0.00000131 Ry

     iteration # 15     ecut=    71.00 Ry     beta= 0.10
     Davidson diagonalization with overlap
     ethr =  9.07E-10,  avg # of iterations =  2.0

     total cpu time spent up to now is       43.2 secs

     total energy              =   -4088.01771409 Ry
     estimated scf accuracy    <       0.00000149 Ry

     iteration # 16     ecut=    71.00 Ry     beta= 0.10
     Davidson diagonalization with overlap
     ethr =  9.07E-10,  avg # of iterations =  2.0

     total cpu time spent up to now is       45.4 secs

     End of self-consistent calculation

          k = 0.0681 0.0681 0.0681 (  4055 PWs)   bands (ev):

   -43.0700 -42.1102 -42.1102 -42.1100 -41.1859 -41.1859 -41.1858 -40.2904
   -10.9341 -10.9341 -10.9341 -10.1128 -10.1128 -10.1128 -10.1102 -10.1102
   -10.1102  -9.3814  -9.3783  -9.3783  -5.8992  -5.8940  -5.8940  -5.3795
    -5.3795  -5.3794  -5.3777  -5.3776  -5.3776  -4.8976  -4.8976  -4.8976
    29.4467  29.4467  29.4467  31.5309  31.5309  32.2730  32.3478  32.3478
    33.1683  33.1683  33.1683  33.3718  36.3277  36.3277  36.3277  36.4264
    36.4264  36.4264  40.0969  40.0969  40.0969  40.5025  40.5025  40.5025
    41.7499  41.7499  41.7499  41.7642  41.7643  41.7643  44.2459  44.2459
    44.2459  46.8477  46.8857  46.8857  47.5629  47.5629  47.5629  50.8805
    50.8806  50.8806  51.6168  51.6168  52.3282  54.2760  54.2760  54.2760
    54.9841  54.9842  54.9842  59.4764  59.4764  59.4764

          k = 0.0681 0.0681 0.2043 (  4070 PWs)   bands (ev):

   -43.0157 -42.1719 -42.0577 -42.0576 -41.2453 -41.2452 -41.1350 -40.3479
   -10.8870 -10.8870 -10.6643 -10.1638 -10.1638 -10.0706 -10.0681  -9.8550
    -9.8549  -9.4265  -9.4246  -9.1348  -6.2451  -5.8669  -5.8637  -5.7027
    -5.7026  -5.4118  -5.4097  -5.3504  -5.3504  -5.2012  -4.9275  -4.9275
    29.5856  29.8362  29.8362  31.6191  32.0081  32.0844  32.6968  32.7283
    33.0567  33.5452  33.5452  33.7812  35.9873  36.2742  36.2742  36.7835
    36.7835  37.1463  38.5851  38.5851  40.3574  40.5073  40.5074  40.7390
    40.7539  40.8046  41.6680  41.6680  42.0391  42.0391  43.8157  45.6857
    45.6857  46.3459  46.3672  46.9176  47.1189  47.1189  47.5198  49.2461
    49.2461  50.2450  50.9958  51.5848  52.9376  53.6467  53.6467  55.5147
    55.9254  55.9254  56.1692  59.0634  59.4001  59.4001

          k = 0.0681 0.0681 0.3405 (  4073 PWs)   bands (ev):

   -42.9125 -42.2866 -41.9582 -41.9581 -41.3555 -41.3554 -41.0384 -40.4545
   -10.7976 -10.7976 -10.2612 -10.2612 -10.1482  -9.9904  -9.9881  -9.5127
    -9.5107  -9.3653  -9.3652  -8.6680  -6.8808  -6.2941  -6.2940  -5.8095
    -5.8065  -5.7570  -5.4720  -5.4698  -5.2971  -5.2971  -4.9833  -4.9833
    29.8550  30.6011  30.6011  31.6952  31.7878  32.6912  32.8524  33.4421
    33.4752  34.1093  34.1093  34.7769  35.4139  35.9921  35.9921  36.6350
    36.6350  37.8857  37.8857  38.4976  39.2046  39.2191  40.6417  40.6417
    40.6937  41.3909  41.5059  41.5060  42.5767  42.5767  42.9587  45.4630
    45.4659  46.3338  46.3338  46.9104  46.9105  46.9926  47.3221  47.3221
    47.4395  48.0062  51.1225  51.5243  52.7179  52.7179  54.0962  56.8910
    56.8910  57.4690  58.1469  58.9672  59.2216  59.2216

          k = 0.0681 0.0681 0.4767 (  4091 PWs)   bands (ev):

   -42.7710 -42.4382 -41.8218 -41.8217 -41.5013 -41.5012 -40.9061 -40.5956
   -10.6755 -10.6755 -10.3903 -10.3903  -9.8814  -9.8790  -9.6273  -9.6252
    -9.4324  -8.6884  -8.6883  -8.0233  -7.6999  -7.0592  -7.0591  -6.4785
    -5.7319  -5.7290  -5.5523  -5.5500  -5.2250  -5.2250  -5.0578  -5.0578
    30.2375  31.2098  31.7142  31.7142  32.0219  32.5872  33.3608  34.5256
    34.5592  34.6681  34.6681  34.7330  34.8070  34.8070  35.6137  35.6137
    36.3987  37.4842  37.5223  39.5487  39.5488  40.1403  40.4863  40.8335
    40.8336  41.2934  41.2935  42.2249  42.6161  43.2599  43.2599  44.3698
    44.4006  44.4220  44.4220  45.3636  45.3636  45.4181  47.0949  47.3327
    48.8664  48.8664  51.2372  51.4416  51.5730  51.5730  55.7025  57.7339
    57.7339  58.9027  58.9027  59.1696  59.6524  60.4867

          k = 0.0681 0.0681-0.6129 (  4092 PWs)   bands (ev):

   -42.6066 -42.6066 -41.6634 -41.6633 -41.6633 -41.6633 -40.7526 -40.7526
   -10.5344 -10.5344 -10.5343 -10.5343  -9.7553  -9.7552  -9.7531  -9.7531
    -8.5863  -8.5863  -7.8913  -7.8912  -7.8911  -7.8911  -7.2656  -7.2656
    -5.6426  -5.6425  -5.6400  -5.6400  -5.1418  -5.1418  -5.1418  -5.1418
    30.7037  30.7037  32.2985  32.2985  33.1348  33.1348  33.1348  33.1348
    34.0350  34.0350  35.1687  35.1687  35.1687  35.1687  35.8985  35.8986
    35.9328  35.9328  38.3558  38.3558  41.0595  41.0595  41.0596  41.0596
    41.7323  41.7323  41.7323  41.7323  42.8323  42.8323  43.2473  43.2473
    43.3560  43.3560  44.3718  44.3718  44.3718  44.3718  47.2129  47.2129
    50.2826  50.2826  50.2826  50.2826  51.3439  51.3439  57.6156  57.6156
    58.4105  58.4105  58.4105  58.4105  61.0904  61.0904

          k = 0.0681 0.2043 0.2043 (  4089 PWs)   bands (ev):

   -42.9615 -42.1194 -42.1193 -42.0054 -41.3048 -41.1943 -41.1942 -40.4054
   -10.8402 -10.6178 -10.6178 -10.1214 -10.1213  -9.9177  -9.8954  -9.8134
    -9.8134  -9.4725  -9.1874  -9.1729  -6.2265  -6.2001  -5.8351  -5.7365
    -5.7365  -5.6815  -5.6651  -5.3826  -5.3825  -5.2323  -5.2323  -4.9575
    29.9722  29.9722  30.2180  31.8886  32.2652  32.3563  32.6963  33.0919
    33.4307  33.4308  33.9865  34.1207  36.1215  36.3973  36.3973  36.9851
    36.9851  37.1475  38.0745  38.9033  38.9033  39.7526  40.6399  40.6399
    40.8067  40.8067  41.0415  41.0416  41.8914  42.0118  45.1747  45.1747
    45.8377  46.3090  46.5004  46.6430  46.9382  47.0725  47.0725  48.2283
    49.4854  49.4854  49.6462  50.8254  52.5335  53.5257  54.8328  54.8328
    56.8686  56.9597  56.9597  59.1207  59.1207  59.4017

          k = 0.0681 0.2043 0.3405 (  4083 PWs)   bands (ev):

   -42.8585 -42.2339 -42.0196 -41.9059 -41.4154 -41.3043 -41.0975 -40.5123
   -10.7513 -10.5298 -10.2180 -10.1031 -10.0406 -10.0023  -9.7346  -9.5591
    -9.4145  -9.3250  -9.2650  -8.7116  -6.8474  -6.3306  -6.2627  -6.1530
    -5.7996  -5.7904  -5.7782  -5.6175  -5.4424  -5.3291  -5.2906  -5.0134
    30.2358  30.7305  30.9671  32.0057  32.1151  33.0799  33.2218  33.3265
    33.8277  33.9850  34.6577  34.9761  35.8072  35.8392  36.5498  36.5918
    36.6927  37.9158  38.1332  38.2796  39.0887  39.3038  39.5641  39.5783
    40.4474  40.9378  41.3825  41.5783  41.7801  42.5042  44.1711  44.9566
    45.4985  45.8264  46.2703  46.3404  46.5080  46.6468  46.9858  47.2406
    47.7111  48.5062  49.7543  50.5004  51.4006  53.8788  54.6366  56.6317
    57.7616  57.7679  58.7257  59.1709  59.2090  59.3588

          k = 0.0681 0.2043 0.4767 (  4101 PWs)   bands (ev):

   -42.7173 -42.3851 -41.8828 -41.7698 -41.5615 -41.4498 -40.9649 -40.6537
   -10.6299 -10.4097 -10.3463 -10.1290  -9.9306  -9.6745  -9.6275  -9.3897
    -9.3774  -8.7351  -8.6501  -8.0649  -7.6631  -7.0994  -7.0255  -6.5147
    -6.0718  -5.8838  -5.7009  -5.5423  -5.5223  -5.3684  -5.2564  -5.0885
    30.6093  31.5509  31.8311  32.0544  32.3680  32.9510  33.7880  34.3964
    34.5292  34.8478  34.8945  35.0379  35.1377  35.3028  35.4622  36.3051
    36.4481  37.3611  37.7840  39.2853  39.3519  39.6386  39.7100  40.1990
    40.3772  41.1256  41.5749  42.1718  42.1781  43.1602  43.2317  43.9389
    44.0929  44.4385  44.8513  44.9110  45.2170  45.3005  46.6141  46.8700
    47.9795  49.9780  50.0374  50.3159  50.3320  52.7323  56.1431  58.2178
    58.4255  58.4631  59.1285  59.2112  60.0481  60.7106

          k = 0.0681 0.2043-0.6129 (  4102 PWs)   bands (ev):

   -42.5532 -42.5532 -41.7240 -41.7240 -41.6116 -41.6116 -40.8111 -40.8110
   -10.4895 -10.4894 -10.2707 -10.2707  -9.8037  -9.8037  -9.5033  -9.5033
    -8.5464  -8.5463  -7.9346  -7.9346  -7.8548  -7.8548  -7.3049  -7.3049
    -5.9785  -5.9784  -5.6122  -5.6122  -5.4559  -5.4559  -5.1728  -5.1728
    31.0627  31.0627  32.6549  32.6549  33.2276  33.2276  33.4346  33.4346
    34.4580  34.4580  35.0220  35.0220  35.7694  35.7694  35.8440  35.8441
    36.2426  36.2426  38.1554  38.1554  39.9341  39.9341  41.3466  41.3466
    41.4780  41.4780  41.5359  41.5359  42.6785  42.6785  43.0251  43.0251
    43.4355  43.4355  44.0475  44.0475  44.2992  44.2992  46.7406  46.7406
    49.1935  49.1935  50.1657  50.1657  51.4484  51.4484  57.7668  57.7668
    58.9093  58.9093  58.9127  58.9127  61.5805  61.8525

          k = 0.0681 0.3405 0.3405 (  4100 PWs)   bands (ev):

   -42.7558 -42.1336 -42.1335 -41.8068 -41.5264 -41.2072 -41.2071 -40.6196
   -10.6634 -10.1362 -10.1361 -10.0180 -10.0180  -9.6474  -9.5337  -9.4810
    -9.2488  -9.2488  -8.8104  -8.7767  -6.8123  -6.7519  -6.3991  -6.3991
    -6.2218  -6.1848  -5.8529  -5.8529  -5.7218  -5.3886  -5.3885  -5.0701
    30.9804  30.9804  31.6829  32.3463  32.4636  33.3809  33.7568  33.7568
    33.9341  34.5411  35.4778  35.5547  35.5575  36.0605  36.3556  36.3556
    37.9687  37.9688  38.0967  38.0967  38.5053  38.7378  38.8688  38.8688
    40.1573  40.1574  41.5053  41.5053  42.1942  42.4789  44.1292  44.9758
    45.1039  45.3234  45.3234  45.4169  45.8136  46.1946  46.1946  46.7079
    47.6130  47.6131  49.2729  49.8238  50.0912  55.5944  55.5944  55.6325
    58.7672  59.2245  59.2246  59.5479  59.5647  59.5647

          k = 0.0681 0.3405 0.4767 (  4114 PWs)   bands (ev):

   -42.6151 -42.2842 -41.9962 -41.6733 -41.6711 -41.3522 -41.0740 -40.7616
   -10.5434 -10.2628 -10.0246  -9.9017  -9.7644  -9.6311  -9.3087  -9.1449
    -8.9033  -8.8215  -8.5772  -8.1425  -7.5938  -7.1741  -6.9619  -6.6929
    -6.5822  -6.4902  -6.1222  -5.9362  -5.6452  -5.4679  -5.3153  -5.1457
    31.3307  32.0527  32.1559  32.7148  32.7884  33.4577  34.2161  34.2734
    34.7848  34.8466  35.1846  35.4498  35.5720  35.9280  36.4361  36.5158
    37.1285  37.5798  38.2039  38.2344  38.2813  38.5967  38.9856  39.8451
    40.1735  40.8147  41.6846  42.1019  42.2773  42.8700  43.2911  43.4923
    43.8971  44.0669  44.5215  44.6957  45.1752  45.3225  45.7873  46.0604
    46.4079  47.9428  48.5010  48.6216  51.6683  54.4201  56.8749  57.1994
    59.5448  59.5578  59.6879  59.8584  60.6470  60.8355

          k = 0.0681 0.3405-0.6129 (  4094 PWs)   bands (ev):

   -42.4517 -42.4516 -41.8366 -41.8366 -41.5135 -41.5134 -40.9196 -40.9196
   -10.4044 -10.4044  -9.8956  -9.8956  -9.7674  -9.7673  -9.0250  -9.0249
    -8.4707  -8.4706  -8.0155  -8.0154  -7.7863  -7.7862  -7.3778  -7.3777
    -6.5923  -6.5923  -6.0298  -6.0297  -5.5571  -5.5570  -5.2308  -5.2308
    31.7457  31.7457  33.1243  33.1243  33.3871  33.3872  34.0020  34.0020
    34.7590  34.7590  35.4032  35.4032  35.5427  35.5427  36.8654  36.8654
    37.0919  37.0919  37.7293  37.7293  38.3369  38.3369  40.9576  40.9576
    40.9638  40.9638  41.8955  41.8955  42.3343  42.3343  42.8419  42.8419
    43.5724  43.5724  43.8037  43.8037  44.1650  44.1650  45.9169  45.9169
    47.4148  47.4148  48.2552  48.2553  53.1159  53.1159  57.7629  57.7629
    59.7059  59.7059  59.9065  59.9065  61.6916  61.6916

          k = 0.0681 0.4767 0.4767 (  4093 PWs)   bands (ev):

   -42.4752 -42.1461 -42.1460 -41.8211 -41.5359 -41.2185 -41.2183 -40.9043
   -10.4250 -10.1492 -10.1491  -9.8840  -9.1983  -9.1983  -8.9795  -8.8986
    -8.4780  -8.4780  -8.2724  -8.2209  -7.5400  -7.4528  -7.2732  -7.2732
    -6.9011  -6.8470  -6.6723  -6.6723  -5.5692  -5.3937  -5.3936  -5.2222
    32.3478  32.3479  32.6794  33.1770  33.6488  33.9373  33.9373  34.3734
    34.5056  34.8245  35.9308  35.9308  36.1413  36.5453  36.5639  36.8692
    36.8692  37.0203  37.8006  38.4354  38.4355  38.8215  38.8215  39.9442
    39.9442  40.0623  41.8094  42.4440  42.4440  42.6733  42.8351  43.2702
    43.4957  43.5336  44.4753  44.5667  44.5667  44.9551  45.1185  45.1185
    45.7237  45.7237  46.8055  47.1082  53.3101  56.0778  56.0779  57.4801
    60.1733  60.6290  60.7915  60.7916  61.1672  61.1672

          k = 0.0681 0.4767-0.6129 (  4102 PWs)   bands (ev):

   -42.3126 -42.3125 -41.9855 -41.9855 -41.3790 -41.3789 -41.0632 -41.0631
   -10.2884 -10.2884 -10.0177 -10.0177  -9.0713  -9.0713  -8.3682  -8.3682
    -8.3639  -8.3639  -8.1228  -8.1227  -7.6933  -7.6933  -7.4746  -7.4746
    -7.3840  -7.3840  -6.7732  -6.7732  -5.4820  -5.4819  -5.3084  -5.3084
    32.6398  32.6398  33.5292  33.5292  33.5614  33.5614  34.3556  34.3556
    34.8416  34.8416  35.3674  35.3675  36.3103  36.3103  36.7211  36.7212
    37.5504  37.5504  37.7468  37.7468  38.7443  38.7444  40.0134  40.0134
    40.1018  40.1018  41.6750  41.6750  42.6338  42.6338  42.9342  42.9343
    43.7947  43.7947  43.9841  43.9841  43.9983  43.9983  44.9288  44.9288
    45.5673  45.5673  46.2354  46.2354  54.7915  54.7915  57.2535  57.2535
    60.5608  60.5608  61.2550  61.2550  61.6697  61.6697

          k = 0.0681-0.6129-0.6129 (  4108 PWs)   bands (ev):

   -42.1510 -42.1510 -42.1509 -42.1508 -41.2229 -41.2229 -41.2228 -41.2228
   -10.1544 -10.1544 -10.1543 -10.1543  -8.2938  -8.2938  -8.2937  -8.2937
    -8.1991  -8.1991  -8.1990  -8.1990  -7.6145  -7.6145  -7.6144  -7.6144
    -7.5549  -7.5549  -7.5548  -7.5548  -5.3957  -5.3957  -5.3956  -5.3956
    33.3795  33.3795  33.3796  33.3796  33.9760  33.9760  33.9760  33.9761
    35.6219  35.6219  35.6220  35.6220  35.7156  35.7156  35.7156  35.7156
    38.8006  38.8006  38.8007  38.8007  38.8297  38.8297  38.8297  38.8297
    40.4870  40.4870  40.4870  40.4870  43.1665  43.1665  43.1665  43.1665
    44.0588  44.0588  44.0589  44.0589  44.3145  44.3145  44.3145  44.3145
    44.7334  44.7334  44.7334  44.7334  56.2202  56.2202  56.2202  56.2202
    61.2792  61.2792  61.2793  61.2793  62.5515  62.5515

          k = 0.2043 0.2043 0.2043 (  4073 PWs)   bands (ev):

   -42.9074 -42.0670 -42.0670 -42.0668 -41.2538 -41.2538 -41.2536 -40.4631
   -10.5716 -10.5716 -10.5716  -9.8755  -9.8755  -9.8754  -9.8537  -9.8536
    -9.8536  -9.2408  -9.2185  -9.2185  -6.2075  -6.1686  -6.1686  -5.7154
    -5.7154  -5.7153  -5.6985  -5.6984  -5.6984  -5.2637  -5.2637  -5.2637
    30.3511  30.3511  30.3511  32.4423  32.4423  32.4538  33.0730  33.0730
    33.8708  33.8709  33.8709  34.4203  36.6963  36.6963  36.6963  36.8229
    36.8229  36.8229  38.4509  38.4509  38.4509  40.0760  40.0761  40.0761
    40.8740  40.8740  40.8740  41.0010  41.0010  41.0010  45.7710  45.9486
    45.9486  46.2835  46.2835  46.2836  46.6344  46.6344  46.6344  48.4797
    48.4797  48.4797  49.5979  49.5979  53.6335  53.6335  53.6335  54.0889
    57.9476  57.9476  57.9476  59.2599  59.2600  59.2600

          k = 0.2043 0.2043 0.3405 (  4083 PWs)   bands (ev):

   -42.8046 -42.1812 -41.9673 -41.9672 -41.3641 -41.3640 -41.1567 -40.5702
   -10.4842 -10.4842 -10.0586  -9.9599  -9.9599  -9.7956  -9.7746  -9.3738
    -9.3737  -9.3197  -9.3033  -8.7557  -6.8139  -6.2992  -6.2991  -6.1337
    -6.1096  -5.8240  -5.7789  -5.7608  -5.6508  -5.6508  -5.3221  -5.3221
    30.6090  31.0938  31.0938  32.2995  32.6069  33.2933  33.5972  33.6621
    33.8120  34.5329  34.5329  35.1672  36.0996  36.5296  36.5296  36.5561
    36.5561  38.0560  38.0985  38.0985  38.8410  39.4554  39.4676  39.8868
    39.8869  40.6996  40.7362  40.7363  41.4907  41.4908  44.9936  45.0209
    45.1420  45.7491  45.7491  45.9937  46.5234  46.6500  46.6500  47.5196
    47.7227  47.7227  48.7668  49.5050  52.4500  52.4500  55.1381  55.2742
    58.7825  58.7825  59.4522  59.4522  59.5311  59.8070

          k = 0.2043 0.2043 0.4767 (  4107 PWs)   bands (ev):

   -42.6636 -42.3321 -41.8308 -41.8307 -41.5100 -41.5099 -41.0239 -40.7120
   -10.3649 -10.3649 -10.0858 -10.0858  -9.6869  -9.6671  -9.4336  -9.4163
    -9.3471  -8.6964  -8.6963  -8.1069  -7.6263  -7.0655  -7.0654  -6.5512
    -6.0523  -6.0295  -5.8634  -5.8437  -5.5753  -5.5753  -5.4004  -5.4004
    30.9732  31.8818  32.1684  32.1684  32.8362  33.3954  34.0812  34.6238
    34.8836  35.0720  35.0720  35.1628  35.1628  35.4439  36.1435  36.1435
    36.4933  37.4812  37.8084  38.8733  39.4449  39.4449  40.0172  40.0173
    40.2738  40.4973  40.4973  41.5810  42.0661  42.0661  43.8377  43.9596
    44.1666  44.5536  44.5536  44.7622  44.7622  45.0467  46.1115  46.3937
    49.0082  49.0317  49.0317  49.3733  51.3474  51.3474  56.4867  56.8795
    59.3226  59.3226  59.5881  59.5881  60.5120  62.0824

          k = 0.2043 0.2043-0.6129 (  4108 PWs)   bands (ev):

   -42.4998 -42.4998 -41.6723 -41.6722 -41.6722 -41.6721 -40.8697 -40.8696
   -10.2266 -10.2266 -10.2266 -10.2266  -9.5614  -9.5614  -9.5427  -9.5427
    -8.5065  -8.5065  -7.8983  -7.8982  -7.8981  -7.8981  -7.3442  -7.3441
    -5.9585  -5.9585  -5.9371  -5.9371  -5.4884  -5.4884  -5.4884  -5.4884
    31.4133  31.4133  33.1085  33.1085  33.5242  33.5242  33.5242  33.5242
    34.7718  34.7718  35.6889  35.6889  35.6889  35.6889  35.9596  35.9596
    36.2403  36.2403  37.9995  37.9995  40.2398  40.2399  40.2399  40.2399
    41.3161  41.3161  41.3162  41.3162  42.5374  42.5374  42.6570  42.6571
    43.6241  43.6242  43.9104  43.9104  43.9104  43.9104  46.2508  46.2508
    49.2077  49.2077  50.2301  50.2301  50.2301  50.2301  57.5131  57.5131
    59.5722  59.5722  59.5722  59.5722  60.9517  60.9518

          k = 0.2043 0.3405 0.3405 (  4101 PWs)   bands (ev):

   -42.7021 -42.0811 -42.0810 -41.8679 -41.4750 -41.2667 -41.2666 -40.6778
   -10.3978  -9.9737  -9.9737  -9.8796  -9.8795  -9.4922  -9.4404  -9.3985
    -9.2970  -9.2970  -8.8556  -8.8210  -6.7789  -6.7188  -6.3673  -6.3673
    -6.2586  -6.2202  -6.0620  -5.8869  -5.8869  -5.7132  -5.7131  -5.3813
    31.3376  31.3376  31.8029  32.6205  33.0867  33.7491  34.0144  34.3091
    34.3092  34.4481  35.4199  35.6276  36.1672  36.2365  36.4149  36.4149
    37.7394  37.7394  38.1507  38.1507  38.5983  38.8726  39.2496  39.2496
    40.0523  40.0523  40.4932  40.4932  41.1493  41.4397  44.1825  44.8793
    45.0358  45.2083  45.4173  45.5300  45.5301  46.3898  46.3898  46.6495
    46.9877  46.9877  48.3008  49.1001  50.8239  53.9816  53.9816  56.0165
    59.8404  59.8883  60.0236  60.0236  60.5026  60.5026

          k = 0.2043 0.3405 0.4767 (  4105 PWs)   bands (ev):

   -42.5617 -42.2314 -41.9439 -41.7318 -41.6216 -41.4121 -41.1333 -40.8201
   -10.2797 -10.0039  -9.8582  -9.7696  -9.5892  -9.5139  -9.2666  -9.1922
    -8.9489  -8.7822  -8.6231  -8.1851  -7.5573  -7.1397  -7.0013  -6.6599
    -6.6191  -6.4581  -6.1577  -5.9819  -5.9707  -5.7962  -5.6369  -5.4601
    31.6782  32.3835  32.4639  32.8221  33.4016  34.0235  34.5480  34.9020
    34.9100  35.0663  35.4779  35.4809  35.8551  36.0565  36.2673  36.5514
    37.3343  37.3534  38.1710  38.2318  38.5870  38.9857  39.0745  39.6473
    40.0823  40.5941  40.7139  41.0305  41.3231  41.8529  43.2414  43.8224
    43.9342  44.2205  44.5747  44.5781  44.5908  44.9101  45.2699  45.6623
    47.2783  47.3642  47.8149  49.4735  50.4355  52.8143  55.5302  56.8604
    60.3212  60.4861  60.5437  60.7293  60.7750  61.2274

          k = 0.2043 0.3405-0.6129 (  4098 PWs)   bands (ev):

   -42.3985 -42.3985 -41.7846 -41.7846 -41.5738 -41.5738 -40.9785 -40.9785
   -10.1431 -10.1430  -9.7247  -9.7247  -9.6428  -9.6427  -9.0715  -9.0715
    -8.4311  -8.4311  -7.9787  -7.9787  -7.8291  -7.8291  -7.4176  -7.4176
    -6.5598  -6.5598  -6.0649  -6.0648  -5.8896  -5.8896  -5.5489  -5.5489
    32.0781  32.0781  33.6763  33.6763  33.7118  33.7118  34.0875  34.0876
    35.4146  35.4146  35.5543  35.5543  35.8301  35.8301  36.7794  36.7794
    36.8848  36.8848  37.6565  37.6565  38.7282  38.7282  40.7848  40.7848
    40.8097  40.8097  40.8754  40.8754  42.2210  42.2210  42.2798  42.2798
    43.5561  43.5561  43.6525  43.6525  43.8566  43.8566  45.4413  45.4413
    47.5397  47.5398  48.3713  48.3713  51.6615  51.6615  56.7135  56.7135
    60.6314  60.6314  60.7265  60.7265  61.1159  61.1159

          k = 0.2043 0.4767 0.4767 (  4094 PWs)   bands (ev):

   -42.4219 -42.0935 -42.0934 -41.7691 -41.5963 -41.2781 -41.2780 -40.9632
   -10.1634  -9.8920  -9.8919  -9.6314  -9.1567  -9.1567  -8.9389  -8.8595
    -8.5232  -8.5232  -8.3168  -8.2635  -7.5034  -7.4178  -7.2383  -7.2383
    -6.9410  -6.8849  -6.7097  -6.7097  -5.9025  -5.7189  -5.7188  -5.5401
    32.6675  32.6675  32.9645  33.7454  33.8274  34.5724  34.5725  34.7262
    34.7337  35.4858  35.9540  35.9540  36.2077  36.4462  36.5785  37.0819
    37.0958  37.0958  37.9957  38.5032  38.5032  38.7717  38.7718  39.8670
    39.8670  39.8867  41.3546  41.3546  41.3728  41.5579  42.6297  43.0113
    43.2758  43.4748  44.2587  44.2587  44.2977  44.4940  45.2497  45.2497
    45.7155  45.7155  46.4204  47.7886  51.8199  54.3019  54.3019  56.5975
    60.9028  61.0831  61.9016  61.9020  62.0274  62.0283

          k = 0.2043 0.4767-0.6129 (  4116 PWs)   bands (ev):

   -42.2596 -42.2596 -41.9332 -41.9331 -41.4390 -41.4390 -41.1224 -41.1224
   -10.0289 -10.0289  -9.7628  -9.7628  -9.0306  -9.0306  -8.4085  -8.4084
    -8.3292  -8.3292  -8.0854  -8.0854  -7.7356  -7.7356  -7.5153  -7.5152
    -7.3487  -7.3487  -6.8114  -6.8113  -5.8113  -5.8113  -5.6301  -5.6301
    32.9415  32.9415  33.8055  33.8055  34.2072  34.2072  34.8044  34.8044
    35.1173  35.1173  35.6824  35.6824  36.3341  36.3341  36.9507  36.9507
    37.5894  37.5894  37.6515  37.6516  38.7434  38.7434  39.9079  39.9079
    40.0625  40.0625  41.5187  41.5187  41.6027  41.6027  42.0991  42.0992
    43.3509  43.3509  43.6303  43.6303  43.9259  43.9259  44.8130  44.8130
    45.6750  45.6750  46.5576  46.5576  53.0968  53.0968  55.6213  55.6213
    61.6854  61.6854  61.8391  61.8391  62.1848  62.1848

          k = 0.2043-0.6129-0.6129 (  4076 PWs)   bands (ev):

   -42.0984 -42.0984 -42.0983 -42.0982 -41.2825 -41.2825 -41.2825 -41.2824
    -9.8969  -9.8969  -9.8968  -9.8967  -8.2547  -8.2547  -8.2546  -8.2546
    -8.1615  -8.1615  -8.1615  -8.1615  -7.6568  -7.6568  -7.6567  -7.6567
    -7.5953  -7.5953  -7.5952  -7.5952  -5.7212  -5.7212  -5.7211  -5.7210
    33.6504  33.6504  33.6505  33.6505  34.6276  34.6276  34.6276  34.6276
    35.7614  35.7614  35.7614  35.7615  35.9433  35.9433  35.9433  35.9433
    38.7004  38.7004  38.7004  38.7005  38.8471  38.8471  38.8472  38.8472
    40.4428  40.4428  40.4428  40.4429  42.0174  42.0174  42.0174  42.0174
    43.3910  43.3910  43.3911  43.3911  44.2784  44.2784  44.2785  44.2785
    45.3014  45.3014  45.3014  45.3014  54.4169  54.4169  54.4169  54.4169
    62.2127  62.2127  62.2127  62.2127  63.5263  63.5263

          k = 0.3405 0.3405 0.3405 (  4104 PWs)   bands (ev):

   -42.6000 -41.9813 -41.9813 -41.9811 -41.3772 -41.3772 -41.3771 -40.7859
    -9.8900  -9.8900  -9.8900  -9.4132  -9.4132  -9.4131  -9.3632  -9.3631
    -9.3631  -8.9599  -8.9037  -8.9037  -6.7412  -6.6563  -6.6563  -6.3272
    -6.3272  -6.3271  -6.2863  -6.2862  -6.2862  -5.9505  -5.9505  -5.9505
    32.0324  32.0324  32.0324  32.9828  34.1688  34.1688  34.4706  34.4706
    35.1942  35.1942  35.1942  35.9545  36.2815  36.2815  36.2815  37.4183
    37.4183  37.4183  38.3782  38.3782  38.3782  39.5607  39.5607  39.5607
    39.7654  39.7654  39.7655  39.9469  39.9469  39.9469  44.1710  44.1710
    44.5726  44.6734  44.6734  44.6735  45.7251  45.7252  45.7252  46.5385
    46.5385  47.4633  47.4633  47.4633  52.2451  52.2451  52.2451  56.4653
    60.3198  60.7446  60.7446  60.7446  61.6922  61.6922

          k = 0.3405 0.3405 0.4767 (  4091 PWs)   bands (ev):

   -42.4601 -42.1310 -41.8446 -41.8445 -41.5233 -41.5232 -41.2433 -40.9288
    -9.7757  -9.7757  -9.5097  -9.5097  -9.3053  -9.2581  -9.1868  -9.0554
    -9.0137  -8.7080  -8.7079  -8.2643  -7.4890  -7.0749  -7.0748  -6.6878
    -6.6217  -6.5713  -6.4185  -6.3744  -6.2240  -6.2240  -6.0351  -6.0351
    32.3478  32.9979  33.0217  33.0217  34.3849  34.9238  35.0712  35.2780
    35.4552  35.4552  35.5144  36.0107  36.0107  36.2369  36.5874  37.0372
    37.0372  37.5168  38.0849  38.3476  39.2427  39.2427  39.2855  39.2855
    39.5980  39.5980  39.9178  40.5128  40.5357  40.5357  42.9275  43.6721
    43.6721  43.8020  44.0609  44.0609  44.2942  44.3094  44.6502  45.8738
    45.9789  46.3843  48.5427  48.5427  50.8037  50.8037  53.7188  56.1749
    60.3664  61.4769  61.4769  62.1350  62.2047  62.2047

          k = 0.3405 0.3405-0.6129 (  4108 PWs)   bands (ev):

   -42.2975 -42.2975 -41.6859 -41.6858 -41.6857 -41.6857 -41.0878 -41.0878
    -9.6438  -9.6438  -9.6438  -9.6438  -9.1814  -9.1813  -9.1369  -9.1369
    -8.3566  -8.3566  -7.9091  -7.9090  -7.9090  -7.9090  -7.4922  -7.4922
    -6.5208  -6.5208  -6.4735  -6.4735  -6.1303  -6.1303  -6.1302  -6.1302
    32.7035  32.7035  34.2232  34.2232  34.2232  34.2232  34.6445  34.6445
    35.9319  35.9319  36.2136  36.2136  36.5885  36.5885  36.5885  36.5885
    36.8315  36.8316  37.4917  37.4917  39.3759  39.3759  39.3759  39.3759
    40.4919  40.4919  40.4919  40.4919  41.6645  41.6645  41.9692  41.9692
    43.0760  43.0760  43.0760  43.0760  43.8060  43.8060  45.0106  45.0106
    46.1962  46.1963  49.6201  49.6201  49.6202  49.6202  55.0889  55.0889
    61.6261  61.6261  62.0277  62.0277  62.0277  62.0277

          k = 0.3405 0.4767 0.4767 (  4099 PWs)   bands (ev):

   -42.3208 -41.9936 -41.9935 -41.7084 -41.6703 -41.3887 -41.3886 -41.0725
    -9.6632  -9.4014  -9.4013  -9.1493  -9.0782  -9.0782  -8.8620  -8.7852
    -8.6070  -8.6070  -8.3986  -8.3431  -7.4347  -7.3512  -7.1728  -7.1728
    -7.0152  -6.9556  -6.7797  -6.7797  -6.5099  -6.3126  -6.3125  -6.1210
    33.2774  33.2775  33.4676  33.9143  35.0150  35.1485  35.4149  35.6770
    35.6770  35.9511  35.9511  36.3285  36.3338  36.5658  36.6704  37.0425
    37.4253  37.4253  38.5440  38.6419  38.6419  38.7771  38.7772  39.5315
    39.7402  39.7402  40.1804  40.1804  40.2008  40.3482  42.2374  42.8501
    42.8990  43.1887  43.3055  43.3055  43.3666  44.2902  44.2902  44.7083
    45.0773  46.6812  46.6812  49.0339  49.7147  52.1814  52.1814  54.9001
    61.2413  62.4704  63.0470  63.0474  63.5365  63.5366

          k = 0.3405 0.4767-0.6129 (  4096 PWs)   bands (ev):

   -42.1591 -42.1591 -41.8338 -41.8338 -41.5504 -41.5504 -41.2324 -41.2324
    -9.5334  -9.5333  -9.2762  -9.2762  -8.9532  -8.9532  -8.4906  -8.4906
    -8.2557  -8.2556  -8.0144  -8.0144  -7.8142  -7.8142  -7.5908  -7.5908
    -7.2821  -7.2821  -6.8825  -6.8825  -6.4120  -6.4120  -6.2174  -6.2174
    33.5018  33.5018  34.3225  34.3225  34.9540  34.9540  35.3687  35.3687
    36.2553  36.2553  36.2727  36.2728  36.3289  36.3289  37.2835  37.2835
    37.5301  37.5301  37.6727  37.6727  38.8499  38.8499  39.7229  39.7229
    39.8415  39.8415  40.2473  40.2473  41.2326  41.2326  41.4575  41.4575
    42.4895  42.4895  42.9169  42.9169  43.0123  43.0123  44.5661  44.5661
    45.3752  45.3752  47.6948  47.6948  50.8927  50.8927  53.5421  53.5421
    62.5874  62.5874  63.1958  63.1958  63.6794  63.6794

          k = 0.3405-0.6129-0.6129 (  4092 PWs)   bands (ev):

   -41.9984 -41.9984 -41.9983 -41.9983 -41.3933 -41.3933 -41.3932 -41.3931
    -9.4056  -9.4056  -9.4055  -9.4054  -8.1811  -8.1811  -8.1810  -8.1810
    -8.0910  -8.0910  -8.0909  -8.0909  -7.7358  -7.7358  -7.7357  -7.7357
    -7.6707  -7.6707  -7.6706  -7.6706  -6.3155  -6.3155  -6.3154  -6.3153
    34.1511  34.1511  34.1512  34.1512  35.6374  35.6374  35.6374  35.6374
    35.9919  35.9919  35.9920  35.9920  36.5554  36.5554  36.5554  36.5554
    38.5397  38.5397  38.5397  38.5397  38.8453  38.8453  38.8453  38.8454
    40.3789  40.3789  40.3789  40.3789  40.9027  40.9027  40.9028  40.9028
    42.3222  42.3222  42.3222  42.3222  43.3532  43.3532  43.3533  43.3533
    46.2692  46.2692  46.2692  46.2692  52.1737  52.1737  52.1737  52.1737
    63.3858  63.3858  63.3858  63.3858  65.1900  65.1900

          k = 0.4767 0.4767 0.4767 (  4104 PWs)   bands (ev):

   -42.1823 -41.8567 -41.8567 -41.8565 -41.5350 -41.5350 -41.5349 -41.2171
    -8.9712  -8.9712  -8.9712  -8.7572  -8.7572  -8.7571  -8.6841  -8.6840
    -8.6840  -8.5415  -8.4488  -8.4488  -7.3753  -7.2604  -7.2604  -7.1138
    -7.1138  -7.1137  -7.0503  -7.0502  -7.0502  -6.8730  -6.8730  -6.8730
    33.9872  34.1058  34.1058  34.1058  35.6608  35.6608  35.6608  36.4036
    36.4036  36.4421  36.5059  36.5059  36.8959  36.8959  36.8959  37.5763
    37.5763  37.5763  38.9331  38.9331  38.9331  39.0030  39.0030  39.0030
    39.4382  39.4383  39.4383  39.6452  39.6452  39.6452  41.8838  41.8838
    42.2955  42.2955  42.2955  42.9525  42.9526  42.9526  43.2264  43.2264
    45.2380  47.7037  47.7037  47.7037  50.3242  50.3242  50.3242  53.1815
    62.3070  64.1512  64.1512  64.1513  64.9323  64.9323

          k = 0.4767 0.4767-0.6129 (  4096 PWs)   bands (ev):

   -42.0214 -42.0213 -41.6978 -41.6977 -41.6976 -41.6976 -41.3778 -41.3778
    -8.8482  -8.8482  -8.8482  -8.8482  -8.6367  -8.6366  -8.5674  -8.5673
    -8.1560  -8.1560  -7.9184  -7.9183  -7.9183  -7.9182  -7.6911  -7.6910
    -7.2235  -7.2235  -7.1560  -7.1560  -6.9772  -6.9772  -6.9772  -6.9772
    34.2016  34.2016  34.9968  34.9968  34.9968  34.9968  36.1348  36.1348
    36.7030  36.7030  36.9548  36.9548  37.4511  37.4511  37.4511  37.4511
    37.6321  37.6321  37.9257  37.9257  39.1511  39.1511  39.1511  39.1511
    39.5907  39.5907  39.5907  39.5907  40.5864  40.5864  41.1829  41.1829
    41.8768  41.8768  41.9213  41.9213  41.9213  41.9213  43.0780  43.0780
    46.1921  46.1921  48.8680  48.8680  48.8680  48.8680  51.6772  51.6772
    63.6398  63.6398  64.8841  64.8841  64.8841  64.8842

          k = 0.4767-0.6129-0.6129 (  4108 PWs)   bands (ev):

   -41.8614 -41.8614 -41.8614 -41.8613 -41.5396 -41.5396 -41.5396 -41.5395
    -8.7273  -8.7273  -8.7273  -8.7272  -8.0814  -8.0814  -8.0813  -8.0813
    -7.9947  -7.9947  -7.9946  -7.9946  -7.8398  -7.8398  -7.8397  -7.8397
    -7.7713  -7.7713  -7.7712  -7.7712  -7.0832  -7.0832  -7.0832  -7.0831
    34.7818  34.7818  34.7819  34.7819  35.6733  35.6733  35.6733  35.6733
    37.3360  37.3360  37.3361  37.3361  37.3771  37.3771  37.3771  37.3771
    38.3864  38.3864  38.3864  38.3864  38.7081  38.7081  38.7081  38.7081
    40.1492  40.1492  40.1492  40.1492  40.3604  40.3604  40.3605  40.3605
    41.2365  41.2365  41.2365  41.2365  41.9969  41.9969  41.9969  41.9970
    47.3083  47.3083  47.3083  47.3083  50.1524  50.1524  50.1524  50.1524
    64.6387  64.6387  64.6387  64.6387  66.3863  66.3863

          k =-0.6129-0.6129-0.6129 (  4032 PWs)   bands (ev):

   -41.7024 -41.7024 -41.7024 -41.7023 -41.7023 -41.7023 -41.7022 -41.7022
    -7.9999  -7.9998  -7.9998  -7.9998  -7.9998  -7.9998  -7.9998  -7.9998
    -7.8836  -7.8836  -7.8836  -7.8836  -7.8836  -7.8835  -7.8835  -7.8835
    -7.8835  -7.8835  -7.8834  -7.8834  -7.8834  -7.8834  -7.8834  -7.8834
    35.3567  35.3567  35.3567  35.3567  35.3567  35.3567  35.3567  35.3567
    38.2079  38.2079  38.2079  38.2080  38.2080  38.2080  38.2080  38.2080
    38.2080  38.2080  38.2080  38.2080  38.2080  38.2080  38.2080  38.2080
    40.5547  40.5547  40.5547  40.5548  40.5548  40.5548  40.5548  40.5548
    40.5548  40.5548  40.5548  40.5548  40.5548  40.5548  40.5549  40.5549
    48.5528  48.5528  48.5528  48.5528  48.5528  48.5528  48.5528  48.5528
    65.7350  65.7350  65.7350  65.7350  65.7350  65.7350

     the Fermi energy is    46.8043 ev

!    total energy              =   -4088.01771394 Ry

     total all-electron energy =    -80728.231141 Ry
     estimated scf accuracy    <       0.00000040 Ry
     smearing contrib. (-TS)   =       0.00026074 Ry
     internal energy E=F+TS    =   -4088.01797468 Ry

     The total energy is F=E-TS. E is the sum of the following terms:
     one-electron contribution =     -62.39964562 Ry
     hartree contribution      =     260.89723633 Ry
     xc contribution           =    -256.86988109 Ry
     ewald contribution        =   -1987.41574600 Ry
     one-center paw contrib.   =   -2042.22993831 Ry

     convergence has been achieved in  16 iterations

     Forces acting on atoms (cartesian axes, Ry/au):

     atom    1 type  1   force =     0.00000000    0.00000000    0.00000000
     atom    2 type  1   force =     0.00000000    0.00000000    0.00000000
     atom    3 type  1   force =     0.00000000    0.00000000    0.00000000
     atom    4 type  1   force =     0.00000000    0.00000000    0.00000000
     atom    5 type  1   force =     0.00000000    0.00000000    0.00000000
     atom    6 type  1   force =     0.00000000    0.00000000    0.00000000
     atom    7 type  1   force =     0.00000000    0.00000000    0.00000000
     atom    8 type  1   force =     0.00000000    0.00000000    0.00000000

     Total force =     0.000000     Total SCF correction =     0.000000


     Computing stress (Cartesian axis) and pressure

          total   stress  (Ry/bohr**3)                   (kbar)     P=     9695.12
   0.06590608   0.00000000   0.00000000         9695.12        0.00        0.00
   0.00000000   0.06590608   0.00000000            0.00     9695.12        0.00
   0.00000000   0.00000000   0.06590608            0.00        0.00     9695.12


     Writing output data file /scratch/XznyuRJaxuebgJqc.save/
 
     init_run     :      0.97s CPU      1.04s WALL (       1 calls)
     electrons    :     40.25s CPU     41.65s WALL (       1 calls)
     forces       :      0.30s CPU      0.30s WALL (       1 calls)
     stress       :      0.33s CPU      0.34s WALL (       1 calls)

     Called by init_run:
     wfcinit      :      0.70s CPU      0.74s WALL (       1 calls)
     potinit      :      0.14s CPU      0.16s WALL (       1 calls)
     hinit0       :      0.06s CPU      0.07s WALL (       1 calls)

     Called by electrons:
     c_bands      :     35.03s CPU     36.10s WALL (      17 calls)
     sum_band     :      4.03s CPU      4.29s WALL (      17 calls)
     v_of_rho     :      0.15s CPU      0.15s WALL (      17 calls)
     newd         :      0.08s CPU      0.08s WALL (      17 calls)
     PAW_pot      :      0.89s CPU      0.94s WALL (      17 calls)
     mix_rho      :      0.11s CPU      0.12s WALL (      17 calls)

     Called by c_bands:
     init_us_2    :      0.05s CPU      0.05s WALL (    1295 calls)
     cegterg      :     34.64s CPU     35.68s WALL (     595 calls)

     Called by *egterg:
     cdiaghg      :      9.66s CPU      9.71s WALL (    1898 calls)
     h_psi        :     18.33s CPU     19.15s WALL (    1968 calls)
     s_psi        :      0.27s CPU      0.28s WALL (    1968 calls)
     g_psi        :      0.02s CPU      0.02s WALL (    1338 calls)

     Called by h_psi:
     h_psi:calbec :      1.87s CPU      1.92s WALL (    1968 calls)
     vloc_psi     :     15.98s CPU     16.75s WALL (    1968 calls)
     add_vuspsi   :      0.45s CPU      0.45s WALL (    1968 calls)

     General routines
     calbec       :      2.86s CPU      2.91s WALL (    2738 calls)
     fft          :      0.19s CPU      0.20s WALL (     245 calls)
     ffts         :      0.01s CPU      0.01s WALL (      34 calls)
     fftw         :     18.46s CPU     19.44s WALL (  289356 calls)
     interpolate  :      0.01s CPU      0.01s WALL (      17 calls)
 
     Parallel routines
     fft_scatt_xy :      0.90s CPU      0.95s WALL (  289635 calls)
     fft_scatt_yz :     15.84s CPU     16.73s WALL (  289635 calls)
 
     PWSCF        :     45.59s CPU     47.57s WALL

 
   This run was terminated on:   3:39:24  30Nov2021            

=------------------------------------------------------------------------------=
   JOB DONE.
=------------------------------------------------------------------------------=
