
     Program PWSCF v.6.7MaX starts on 30Nov2021 at  3:41: 9 

     This program is part of the open-source Quantum ESPRESSO suite
     for quantum simulation of materials; please cite
         "P. Giannozzi et al., J. Phys.:Condens. Matter 21 395502 (2009);
         "P. Giannozzi et al., J. Phys.:Condens. Matter 29 465901 (2017);
          URL http://www.quantum-espresso.org", 
     in publications or presentations arising from this work. More details at
     http://www.quantum-espresso.org/quote

     Parallel version (MPI & OpenMP), running on      72 processor cores
     Number of MPI processes:                72
     Threads/MPI process:                     1

     MPI processes distributed on     1 nodes
     R & G space division:  proc/nbgrp/npool/nimage =      72
     Reading input from sc_5.in
Warning: card &CELL ignored
Warning: card CELL_DYNAMICS = 'BFGS', ignored
Warning: card CELL_FACTOR = 2.0, ignored
Warning: card PRESS = 0.0, ignored
Warning: card / ignored

     Current dimensions of program PWSCF are:
     Max number of different atomic species (ntypx) = 10
     Max number of k-points (npk) =  40000
     Max angular momentum in pseudopotentials (lmaxx) =  3
     file Pd.pbe-spn-kjpaw_psl.1.0.0.UPF: wavefunction(s)  4S 5S 4D renormalized

     Subspace diagonalization in iterative solution of the eigenvalue problem:
     one sub-group per band group will be used
     ELPA distributed-memory algorithm (size of sub-group:  8*  8 procs)

     Found symmetry operation: I + (  0.0000  0.0000  0.5000)
     This is a supercell, fractional translations are disabled
     Message from routine setup:
     using ibrav=0 with symmetry is DISCOURAGED, use correct ibrav instead
 
     Parallelization info
     --------------------
     sticks:   dense  smooth     PW     G-vecs:    dense   smooth      PW
     Min          40      26      7                 1622      868     133
     Max          41      27      8                 1627      875     138
     Sum        2885    1901    553               116921    62669    9771
 


     bravais-lattice index     =            0
     lattice parameter (alat)  =       9.0720  a.u.
     unit-cell volume          =     776.4983 (a.u.)^3
     number of atoms/cell      =            8
     number of atomic types    =            1
     number of electrons       =       144.00
     number of Kohn-Sham states=           86
     kinetic-energy cutoff     =      71.0000  Ry
     charge density cutoff     =     430.0000  Ry
     scf convergence threshold =      1.0E-06
     mixing beta               =       0.1000
     number of iterations used =           10  TF        mixing
     Exchange-correlation= SLA  PW   PBX  PBC
                           (   1   4   3   4   0   0   0)

     celldm(1)=   9.072000  celldm(2)=   0.000000  celldm(3)=   0.000000
     celldm(4)=   0.000000  celldm(5)=   0.000000  celldm(6)=   0.000000

     crystal axes: (cart. coord. in units of alat)
               a(1) = (   1.013158   0.000000   0.000000 )  
               a(2) = (   0.000000   1.013158   0.000000 )  
               a(3) = (   0.000000   0.000000   1.013158 )  

     reciprocal axes: (cart. coord. in units 2 pi/alat)
               b(1) = (  0.987013  0.000000  0.000000 )  
               b(2) = (  0.000000  0.987013  0.000000 )  
               b(3) = (  0.000000  0.000000  0.987013 )  


     PseudoPot. # 1 for Pd read from file:
     /rds/homes/b/bxp912/pp/Pd.pbe-spn-kjpaw_psl.1.0.0.UPF
     MD5 check sum: 790f2ebce206edfd9790dcb9844eca51
     Pseudo is Projector augmented-wave + core cor, Zval = 18.0
     Generated using &quot;atomic&quot; code by A. Dal Corso  v.6.3
     Shape of augmentation charge: PSQ
     Using radial grid of 1235 points,  6 beta functions with: 
                l(1) =   0
                l(2) =   0
                l(3) =   1
                l(4) =   1
                l(5) =   2
                l(6) =   2
     Q(r) pseudized with 0 coefficients 


     atomic species   valence    mass     pseudopotential
        Pd            18.00   106.42000     Pd( 1.00)

     48 Sym. Ops., with inversion, found



   Cartesian axes

     site n.     atom                  positions (alat units)
         1           Pd  tau(   1) = (   0.0000000   0.0000000   0.0000000  )
         2           Pd  tau(   2) = (   0.0000000   0.0000000   0.5065789  )
         3           Pd  tau(   3) = (   0.0000000   0.5065789   0.0000000  )
         4           Pd  tau(   4) = (   0.0000000   0.5065789   0.5065789  )
         5           Pd  tau(   5) = (   0.5065789   0.0000000   0.0000000  )
         6           Pd  tau(   6) = (   0.5065789   0.0000000   0.5065789  )
         7           Pd  tau(   7) = (   0.5065789   0.5065789   0.0000000  )
         8           Pd  tau(   8) = (   0.5065789   0.5065789   0.5065789  )

     number of k points=    35  Marzari-Vanderbilt smearing, width (Ry)=  0.0400
                       cart. coord. in units 2pi/alat
        k(    1) = (   0.0548341   0.0548341   0.0548341), wk =   0.0219479
        k(    2) = (   0.0548341   0.0548341   0.1645022), wk =   0.0658436
        k(    3) = (   0.0548341   0.0548341   0.2741703), wk =   0.0658436
        k(    4) = (   0.0548341   0.0548341   0.3838384), wk =   0.0658436
        k(    5) = (   0.0548341   0.0548341  -0.4935065), wk =   0.0329218
        k(    6) = (   0.0548341   0.1645022   0.1645022), wk =   0.0658436
        k(    7) = (   0.0548341   0.1645022   0.2741703), wk =   0.1316872
        k(    8) = (   0.0548341   0.1645022   0.3838384), wk =   0.1316872
        k(    9) = (   0.0548341   0.1645022  -0.4935065), wk =   0.0658436
        k(   10) = (   0.0548341   0.2741703   0.2741703), wk =   0.0658436
        k(   11) = (   0.0548341   0.2741703   0.3838384), wk =   0.1316872
        k(   12) = (   0.0548341   0.2741703  -0.4935065), wk =   0.0658436
        k(   13) = (   0.0548341   0.3838384   0.3838384), wk =   0.0658436
        k(   14) = (   0.0548341   0.3838384  -0.4935065), wk =   0.0658436
        k(   15) = (   0.0548341  -0.4935065  -0.4935065), wk =   0.0164609
        k(   16) = (   0.1645022   0.1645022   0.1645022), wk =   0.0219479
        k(   17) = (   0.1645022   0.1645022   0.2741703), wk =   0.0658436
        k(   18) = (   0.1645022   0.1645022   0.3838384), wk =   0.0658436
        k(   19) = (   0.1645022   0.1645022  -0.4935065), wk =   0.0329218
        k(   20) = (   0.1645022   0.2741703   0.2741703), wk =   0.0658436
        k(   21) = (   0.1645022   0.2741703   0.3838384), wk =   0.1316872
        k(   22) = (   0.1645022   0.2741703  -0.4935065), wk =   0.0658436
        k(   23) = (   0.1645022   0.3838384   0.3838384), wk =   0.0658436
        k(   24) = (   0.1645022   0.3838384  -0.4935065), wk =   0.0658436
        k(   25) = (   0.1645022  -0.4935065  -0.4935065), wk =   0.0164609
        k(   26) = (   0.2741703   0.2741703   0.2741703), wk =   0.0219479
        k(   27) = (   0.2741703   0.2741703   0.3838384), wk =   0.0658436
        k(   28) = (   0.2741703   0.2741703  -0.4935065), wk =   0.0329218
        k(   29) = (   0.2741703   0.3838384   0.3838384), wk =   0.0658436
        k(   30) = (   0.2741703   0.3838384  -0.4935065), wk =   0.0658436
        k(   31) = (   0.2741703  -0.4935065  -0.4935065), wk =   0.0164609
        k(   32) = (   0.3838384   0.3838384   0.3838384), wk =   0.0219479
        k(   33) = (   0.3838384   0.3838384  -0.4935065), wk =   0.0329218
        k(   34) = (   0.3838384  -0.4935065  -0.4935065), wk =   0.0164609
        k(   35) = (  -0.4935065  -0.4935065  -0.4935065), wk =   0.0027435

     Dense  grid:   116921 G-vectors     FFT dimensions: (  64,  64,  64)

     Smooth grid:    62669 G-vectors     FFT dimensions: (  50,  50,  50)

     Estimated max dynamical RAM per process >      13.26 MB

     Estimated total dynamical RAM >     954.61 MB

     Check: negative core charge=   -0.000002

     Initial potential from superposition of free atoms

     starting charge  143.99694, renormalised to  144.00000
     Starting wfcs are   80 randomized atomic wfcs +    6 random wfcs
     Checking if some PAW data can be deallocated... 

     total cpu time spent up to now is        3.8 secs

     Self-consistent Calculation

     iteration #  1     ecut=    71.00 Ry     beta= 0.10
     Davidson diagonalization with overlap
     ethr =  1.00E-02,  avg # of iterations =  3.6

     Threshold (ethr) on eigenvalues was too large:
     Diagonalizing with lowered threshold

     Davidson diagonalization with overlap
     ethr =  1.78E-04,  avg # of iterations =  2.7

     total cpu time spent up to now is       11.0 secs

     total energy              =   -4095.74375692 Ry
     estimated scf accuracy    <       0.24822402 Ry

     iteration #  2     ecut=    71.00 Ry     beta= 0.10
     Davidson diagonalization with overlap
     ethr =  1.72E-04,  avg # of iterations =  1.0

     total cpu time spent up to now is       13.0 secs

     total energy              =   -4095.66958076 Ry
     estimated scf accuracy    <       0.18648255 Ry

     iteration #  3     ecut=    71.00 Ry     beta= 0.10
     Davidson diagonalization with overlap
     ethr =  1.30E-04,  avg # of iterations =  2.0

     total cpu time spent up to now is       15.6 secs

     total energy              =   -4095.69439142 Ry
     estimated scf accuracy    <       0.01517950 Ry

     iteration #  4     ecut=    71.00 Ry     beta= 0.10
     Davidson diagonalization with overlap
     ethr =  1.05E-05,  avg # of iterations =  2.4

     total cpu time spent up to now is       19.7 secs

     total energy              =   -4095.69316335 Ry
     estimated scf accuracy    <       0.00928451 Ry

     iteration #  5     ecut=    71.00 Ry     beta= 0.10
     Davidson diagonalization with overlap
     ethr =  6.45E-06,  avg # of iterations =  1.0

     total cpu time spent up to now is       22.9 secs

     total energy              =   -4095.69302443 Ry
     estimated scf accuracy    <       0.00256704 Ry

     iteration #  6     ecut=    71.00 Ry     beta= 0.10
     Davidson diagonalization with overlap
     ethr =  1.78E-06,  avg # of iterations =  2.3

     total cpu time spent up to now is       26.9 secs

     total energy              =   -4095.69356875 Ry
     estimated scf accuracy    <       0.00182208 Ry

     iteration #  7     ecut=    71.00 Ry     beta= 0.10
     Davidson diagonalization with overlap
     ethr =  1.27E-06,  avg # of iterations =  1.1

     total cpu time spent up to now is       29.2 secs

     total energy              =   -4095.69374915 Ry
     estimated scf accuracy    <       0.00040040 Ry

     iteration #  8     ecut=    71.00 Ry     beta= 0.10
     Davidson diagonalization with overlap
     ethr =  2.78E-07,  avg # of iterations =  1.1

     total cpu time spent up to now is       31.6 secs

     total energy              =   -4095.69365798 Ry
     estimated scf accuracy    <       0.00027840 Ry

     iteration #  9     ecut=    71.00 Ry     beta= 0.10
     Davidson diagonalization with overlap
     ethr =  1.93E-07,  avg # of iterations =  2.0

     total cpu time spent up to now is       35.0 secs

     total energy              =   -4095.69367954 Ry
     estimated scf accuracy    <       0.00004218 Ry

     iteration # 10     ecut=    71.00 Ry     beta= 0.10
     Davidson diagonalization with overlap
     ethr =  2.93E-08,  avg # of iterations =  1.6

     total cpu time spent up to now is       37.9 secs

     total energy              =   -4095.69367315 Ry
     estimated scf accuracy    <       0.00002389 Ry

     iteration # 11     ecut=    71.00 Ry     beta= 0.10
     Davidson diagonalization with overlap
     ethr =  1.66E-08,  avg # of iterations =  2.0

     total cpu time spent up to now is       41.1 secs

     End of self-consistent calculation

          k = 0.0548 0.0548 0.0548 (  7866 PWs)   bands (ev):

   -63.7262 -63.6370 -63.6370 -63.6368 -63.5499 -63.5499 -63.5497 -63.4647
   -29.8232 -29.8232 -29.8232 -29.7296 -29.7296 -29.7295 -29.7292 -29.7291
   -29.7291 -29.6412 -29.6406 -29.6406 -29.0586 -29.0577 -29.0577 -28.9919
   -28.9919 -28.9918 -28.9914 -28.9913 -28.9913 -28.9275 -28.9275 -28.9275
    13.5047  14.3971  14.3971  14.3971  14.8262  14.8262  15.4681  15.4681
    15.4681  15.5459  15.5794  15.5794  15.8594  15.8594  15.8594  16.4139
    16.4140  16.4140  18.5995  18.5995  18.5995  18.7498  18.7499  18.7499
    19.1487  19.1487  19.1488  19.1535  19.1535  19.1535  20.7774  20.7774
    20.7774  20.9198  20.9300  20.9300  21.1381  21.1381  21.1381  22.3942
    22.3942  22.3942  22.5956  22.5956  26.6329  26.6329  26.6329  27.0681
    27.0681  27.0681  27.1896  27.1896  27.1896  31.7090

          k = 0.0548 0.0548 0.1645 (  7876 PWs)   bands (ev):

   -63.7209 -63.6424 -63.6318 -63.6317 -63.5552 -63.5550 -63.5447 -63.4698
   -29.8175 -29.8175 -29.7784 -29.7350 -29.7350 -29.7242 -29.7238 -29.6861
   -29.6860 -29.6466 -29.6461 -29.5993 -29.1057 -29.0543 -29.0539 -29.0373
   -29.0372 -28.9957 -28.9955 -28.9878 -28.9878 -28.9719 -28.9315 -28.9315
    13.6909  14.4590  14.5504  14.5504  14.8624  15.0047  15.4267  15.4785
    15.5797  15.5797  15.7206  15.7208  15.7338  16.0856  16.0856  16.3610
    16.3610  16.6988  18.0207  18.0207  18.6736  18.7526  18.7526  18.8153
    18.8202  18.8630  19.1240  19.1241  19.2552  19.2552  20.1834  20.7684
    20.7745  20.9402  21.0017  21.0017  21.1252  21.4129  21.4129  21.7853
    21.7854  22.0714  22.4153  22.5859  26.0973  26.0973  27.0797  27.2116
    27.2116  27.3324  27.3325  27.5180  27.9027  31.8507

          k = 0.0548 0.0548 0.2742 (  7861 PWs)   bands (ev):

   -63.7108 -63.6525 -63.6220 -63.6218 -63.5651 -63.5650 -63.5351 -63.4795
   -29.8068 -29.8068 -29.7457 -29.7457 -29.7144 -29.7140 -29.6939 -29.6568
   -29.6563 -29.6043 -29.6042 -29.5203 -29.1945 -29.1230 -29.1229 -29.0546
   -29.0468 -29.0463 -29.0033 -29.0029 -28.9805 -28.9805 -28.9387 -28.9387
    14.0123  14.5776  14.8521  14.8521  14.9314  15.3328  15.3498  15.3917
    15.4690  15.7089  15.7089  16.0223  16.0361  16.2631  16.2631  16.6039
    16.6039  17.2509  17.2830  17.2830  18.2683  18.2711  18.6216  18.7974
    18.7974  19.0743  19.0744  19.0806  19.4501  19.4501  19.4704  20.4911
    20.4931  20.7531  20.7531  20.7839  20.7840  20.9636  21.1011  21.1768
    22.2366  22.2366  22.4464  22.5676  25.4665  25.4665  27.2530  27.2530
    27.4283  27.4283  27.8516  28.3075  29.0822  31.6799

          k = 0.0548 0.0548 0.3838 (  7843 PWs)   bands (ev):

   -63.6972 -63.6662 -63.6087 -63.6086 -63.5784 -63.5783 -63.5221 -63.4926
   -29.7925 -29.7925 -29.7600 -29.7600 -29.7010 -29.7005 -29.6703 -29.6698
   -29.5789 -29.4933 -29.4932 -29.4130 -29.3134 -29.2372 -29.2371 -29.1653
   -29.0367 -29.0362 -29.0135 -29.0130 -28.9707 -28.9707 -28.9485 -28.9485
    14.3918  14.7427  15.0259  15.1428  15.1437  15.2484  15.2920  15.2920
    15.8436  15.8436  16.0204  16.1341  16.1341  16.4582  16.4725  16.5147
    16.5147  17.4404  17.4404  17.6124  17.6390  17.8509  18.0657  18.8605
    18.8606  19.0080  19.0081  19.3850  19.4605  19.5190  19.5190  19.8303
    19.8303  20.1083  20.1336  20.1393  20.4330  20.4330  20.9955  21.0686
    22.4798  22.5425  23.0953  23.0953  24.7405  24.7405  27.3086  27.3086
    27.4205  27.4205  28.8065  29.3037  30.5413  30.8384

          k = 0.0548 0.0548-0.4935 (  7852 PWs)   bands (ev):

   -63.6818 -63.6817 -63.5938 -63.5936 -63.5934 -63.5934 -63.5074 -63.5073
   -29.7763 -29.7763 -29.7762 -29.7762 -29.6857 -29.6856 -29.6854 -29.6852
   -29.4470 -29.4469 -29.3662 -29.3660 -29.3658 -29.3658 -29.2899 -29.2898
   -29.0252 -29.0251 -29.0247 -29.0246 -28.9596 -28.9596 -28.9595 -28.9595
    14.7761  14.7761  14.9384  14.9385  15.1357  15.1358  15.8511  15.8511
    15.8512  15.8512  15.9932  15.9932  15.9933  15.9933  16.8727  16.8727
    17.0041  17.0041  17.0193  17.0194  18.4445  18.4446  18.4447  18.4447
    18.9335  18.9337  18.9338  18.9339  19.0293  19.0294  19.7485  19.7485
    19.7710  19.7711  20.0895  20.0895  20.0896  20.0896  21.0318  21.0320
    22.5124  22.5125  23.9402  23.9402  23.9402  23.9402  27.3697  27.3697
    27.3698  27.3698  29.8328  29.8329  30.4002  30.4003

          k = 0.0548 0.1645 0.1645 (  7865 PWs)   bands (ev):

   -63.7156 -63.6372 -63.6371 -63.6265 -63.5604 -63.5500 -63.5499 -63.4750
   -29.8119 -29.7729 -29.7729 -29.7298 -29.7296 -29.6935 -29.6899 -29.6808
   -29.6808 -29.6518 -29.6063 -29.6028 -29.1035 -29.0996 -29.0501 -29.0414
   -29.0414 -29.0350 -29.0316 -28.9918 -28.9916 -28.9760 -28.9760 -28.9353
    13.8793  14.6107  14.6107  14.6975  14.9740  15.1028  15.5315  15.5315
    15.5417  15.7392  15.7551  15.8800  15.9425  15.9425  16.2437  16.3076
    16.6426  16.6427  17.7841  18.0931  18.0931  18.5177  18.7857  18.7857
    18.8642  18.8642  18.9229  18.9229  19.2088  19.2485  20.6151  20.7595
    20.7732  20.7732  20.8127  20.8586  20.9893  20.9893  21.3575  21.8403
    21.8456  21.8456  21.9481  22.2991  25.0591  26.5147  26.5147  27.2480
    27.7311  27.7311  27.9912  27.9912  28.2070  31.4999

          k = 0.0548 0.1645 0.2742 (  7853 PWs)   bands (ev):

   -63.7055 -63.6473 -63.6273 -63.6167 -63.5703 -63.5599 -63.5404 -63.4847
   -29.8013 -29.7624 -29.7403 -29.7198 -29.7022 -29.6885 -29.6710 -29.6619
   -29.6145 -29.6096 -29.5993 -29.5253 -29.1903 -29.1273 -29.1189 -29.0938
   -29.0587 -29.0491 -29.0426 -29.0259 -28.9993 -28.9845 -28.9835 -28.9426
    14.1995  14.7263  14.9087  14.9857  15.0729  15.4320  15.4481  15.4535
    15.6489  15.7030  15.9493  15.9936  16.1749  16.2091  16.4200  16.5403
    16.6842  17.1825  17.2299  17.4344  18.1064  18.2323  18.3909  18.4517
    18.7270  18.9075  19.0766  19.1051  19.1761  19.4276  19.9589  20.3362
    20.5032  20.5451  20.6003  20.7367  20.8169  20.9054  20.9626  21.0648
    21.4621  21.9245  22.1781  22.7096  24.1760  25.8686  27.2234  27.3170
    27.7399  28.1583  28.4397  28.6979  29.2368  30.7490

          k = 0.0548 0.1645 0.3838 (  7831 PWs)   bands (ev):

   -63.6919 -63.6610 -63.6140 -63.6035 -63.5837 -63.5732 -63.5274 -63.4978
   -29.7870 -29.7545 -29.7482 -29.7163 -29.7063 -29.6755 -29.6579 -29.6277
   -29.5740 -29.4985 -29.4886 -29.4178 -29.3088 -29.2418 -29.2329 -29.1696
   -29.0833 -29.0597 -29.0325 -29.0159 -29.0093 -28.9934 -28.9746 -28.9523
    14.5672  14.8867  15.1776  15.2417  15.2729  15.3415  15.4008  15.4628
    15.7761  16.0663  16.0817  16.1058  16.4074  16.4217  16.5031  16.5223
    16.5996  17.4550  17.4849  17.5698  17.6794  17.6988  18.0875  18.4920
    18.6500  18.9691  19.1121  19.1820  19.3602  19.4164  19.5801  19.7819
    19.9848  19.9908  20.0363  20.1523  20.2750  20.4148  20.8499  20.9278
    21.9981  22.1195  22.1388  23.4522  23.5343  25.1453  27.4124  27.6465
    28.0823  28.3816  28.7760  29.3411  29.8919  30.7409

          k = 0.0548 0.1645-0.4935 (  7838 PWs)   bands (ev):

   -63.6765 -63.6764 -63.5989 -63.5988 -63.5884 -63.5883 -63.5127 -63.5126
   -29.7708 -29.7707 -29.7324 -29.7322 -29.6910 -29.6909 -29.6429 -29.6428
   -29.4422 -29.4421 -29.3709 -29.3708 -29.3614 -29.3613 -29.2945 -29.2944
   -29.0715 -29.0714 -29.0210 -29.0209 -29.0047 -29.0046 -28.9635 -28.9634
    14.9281  14.9282  15.0761  15.0762  15.3023  15.3024  15.8569  15.8569
    15.8892  15.8892  16.0059  16.0059  16.2603  16.2604  16.8792  16.8793
    16.9660  16.9660  17.1278  17.1278  18.3745  18.3746  18.4294  18.4295
    18.5665  18.5666  18.9818  18.9819  19.0404  19.0405  19.6516  19.6517
    19.7875  19.7876  19.9571  19.9572  20.0689  20.0690  20.8885  20.8886
    22.0623  22.0624  22.7945  22.7945  24.3581  24.3582  27.5265  27.5266
    28.6170  28.6170  28.9916  28.9917  30.3287  30.3288

          k = 0.0548 0.2742 0.2742 (  7841 PWs)   bands (ev):

   -63.6955 -63.6375 -63.6374 -63.6069 -63.5803 -63.5503 -63.5502 -63.4945
   -29.7908 -29.7303 -29.7302 -29.6785 -29.6785 -29.6721 -29.6241 -29.6157
   -29.5898 -29.5898 -29.5388 -29.5310 -29.1867 -29.1775 -29.1354 -29.1354
   -29.1150 -29.1072 -29.0665 -29.0665 -29.0351 -28.9920 -28.9919 -28.9500
    14.4999  15.0167  15.0167  15.2434  15.3307  15.5279  15.5279  15.5635
    15.6471  16.0478  16.1114  16.1739  16.1739  16.3182  16.4545  16.8592
    17.0679  17.0679  17.0890  17.5732  17.5732  18.1008  18.1650  18.1650
    18.5907  18.5907  19.1162  19.1162  19.3325  19.4156  20.0301  20.0639
    20.3297  20.4543  20.4543  20.4791  20.5967  20.6698  20.7150  20.7150
    21.0465  21.0465  21.6920  22.9979  23.4250  26.5374  26.5374  27.4379
    28.3014  28.3014  29.5183  29.5183  29.7645  29.8485

          k = 0.0548 0.2742 0.3838 (  7831 PWs)   bands (ev):

   -63.6820 -63.6511 -63.6241 -63.5939 -63.5936 -63.5636 -63.5373 -63.5076
   -29.7766 -29.7444 -29.7166 -29.6858 -29.6649 -29.6338 -29.5769 -29.5643
   -29.5479 -29.5081 -29.4794 -29.4269 -29.3004 -29.2505 -29.2250 -29.1777
   -29.1710 -29.1462 -29.1006 -29.0769 -29.0251 -29.0020 -28.9821 -28.9597
    14.8141  15.1647  15.3436  15.4335  15.4940  15.5377  15.5940  15.6480
    15.9301  15.9991  16.1705  16.3816  16.4573  16.4951  16.5931  16.8544
    16.9273  17.4624  17.4762  17.4977  17.5861  17.6915  17.9791  18.0816
    18.1786  18.7429  19.1502  19.1744  19.3138  19.3827  19.7157  19.7479
    19.7487  19.8449  20.0068  20.1194  20.1778  20.3779  20.5896  20.6725
    20.9606  21.1736  21.4340  22.1193  24.2232  25.8072  27.3301  27.6069
    28.0597  28.9952  29.0275  29.8704  30.2568  30.6592

          k = 0.0548 0.2742-0.4935 (  7848 PWs)   bands (ev):

   -63.6666 -63.6665 -63.6090 -63.6089 -63.5787 -63.5786 -63.5225 -63.5224
   -29.7605 -29.7604 -29.7013 -29.7012 -29.6495 -29.6494 -29.5626 -29.5624
   -29.4332 -29.4331 -29.3801 -29.3800 -29.3530 -29.3530 -29.3030 -29.3030
   -29.1587 -29.1586 -29.0890 -29.0889 -29.0137 -29.0135 -28.9710 -28.9709
    15.1002  15.1002  15.3344  15.3345  15.7189  15.7190  15.7640  15.7640
    15.9477  15.9477  16.1260  16.1260  16.7708  16.7708  16.8964  16.8964
    16.9014  16.9014  17.3414  17.3415  18.0052  18.0053  18.2248  18.2248
    18.3706  18.3707  18.8734  18.8734  19.2422  19.2423  19.5111  19.5112
    19.7729  19.7729  19.8239  19.8240  20.0299  20.0300  20.6292  20.6293
    21.2933  21.2934  21.4834  21.4834  25.0299  25.0300  27.8171  27.8171
    28.1597  28.1597  29.8373  29.8374  30.1882  30.1883

          k = 0.0548 0.3838 0.3838 (  7848 PWs)   bands (ev):

   -63.6685 -63.6378 -63.6376 -63.6072 -63.5805 -63.5506 -63.5504 -63.5207
   -29.7626 -29.7308 -29.7307 -29.6995 -29.5515 -29.5515 -29.5280 -29.5149
   -29.4673 -29.4673 -29.4452 -29.4335 -29.2953 -29.2818 -29.2622 -29.2622
   -29.2199 -29.2080 -29.1887 -29.1887 -29.0151 -28.9923 -28.9922 -28.9697
    15.0472  15.4724  15.4724  15.5519  15.5519  15.6726  15.7169  15.9962
    16.0303  16.3479  16.3649  16.3650  16.4414  16.4820  17.1294  17.2137
    17.3993  17.3994  17.4192  17.4192  17.5811  17.6313  17.6313  17.8154
    18.3111  18.3111  18.6557  19.3928  19.4374  19.4374  19.5071  19.5169
    19.7129  19.7282  19.9842  19.9842  20.1575  20.2596  20.2597  20.3143
    20.3519  20.3519  20.8037  21.0620  25.0067  26.5783  26.5783  27.8770
    28.1704  28.6095  28.6095  29.9494  31.5255  31.5261

          k = 0.0548 0.3838-0.4935 (  7840 PWs)   bands (ev):

   -63.6532 -63.6531 -63.6225 -63.6224 -63.5656 -63.5655 -63.5357 -63.5356
   -29.7467 -29.7466 -29.7152 -29.7151 -29.5369 -29.5368 -29.4536 -29.4535
   -29.4211 -29.4210 -29.3923 -29.3922 -29.3414 -29.3414 -29.3144 -29.3143
   -29.2752 -29.2751 -29.2011 -29.2010 -29.0037 -29.0036 -28.9810 -28.9809
    15.2669  15.2670  15.6143  15.6144  15.6614  15.6614  15.9902  15.9902
    16.2295  16.2295  16.2866  16.2866  16.8698  16.8698  17.0069  17.0070
    17.3664  17.3664  17.5183  17.5183  17.6288  17.6289  17.9447  17.9448
    18.2179  18.2179  18.6487  18.6487  19.4387  19.4387  19.5037  19.5038
    19.6838  19.6838  19.8746  19.8747  19.9758  19.9759  20.3023  20.3024
    20.3999  20.3999  20.4511  20.4512  25.8036  25.8037  27.3735  27.3736
    28.2138  28.2139  29.2521  29.2522  31.8125  31.8125

          k = 0.0548-0.4935-0.4935 (  7828 PWs)   bands (ev):

   -63.6379 -63.6379 -63.6378 -63.6376 -63.5507 -63.5507 -63.5507 -63.5504
   -29.7308 -29.7308 -29.7308 -29.7306 -29.4145 -29.4145 -29.4144 -29.4144
   -29.3991 -29.3991 -29.3990 -29.3990 -29.3345 -29.3344 -29.3343 -29.3343
   -29.3213 -29.3213 -29.3212 -29.3212 -28.9925 -28.9925 -28.9925 -28.9923
    15.4417  15.4417  15.4417  15.4419  15.9224  15.9224  15.9225  15.9225
    16.3933  16.3933  16.3933  16.3934  17.0035  17.0035  17.0036  17.0036
    17.4585  17.4585  17.4585  17.4587  17.9318  17.9318  17.9318  17.9319
    18.1879  18.1879  18.1879  18.1880  19.5616  19.5616  19.5616  19.5616
    19.8639  19.8639  19.8640  19.8641  19.9372  19.9372  19.9372  19.9372
    20.0049  20.0050  20.0050  20.0050  26.5944  26.5945  26.5945  26.5945
    28.6977  28.6977  28.6977  28.6978  33.1575  33.1575

          k = 0.1645 0.1645 0.1645 (  7847 PWs)   bands (ev):

   -63.7102 -63.6320 -63.6320 -63.6318 -63.5553 -63.5553 -63.5552 -63.4802
   -29.7674 -29.7674 -29.7674 -29.6881 -29.6881 -29.6881 -29.6847 -29.6846
   -29.6846 -29.6131 -29.6080 -29.6080 -29.1013 -29.0954 -29.0954 -29.0392
   -29.0392 -29.0391 -29.0358 -29.0357 -29.0357 -28.9800 -28.9800 -28.9800
    14.0736  14.7563  14.7563  14.7563  15.1387  15.1387  15.6068  15.7111
    15.7111  15.7111  15.8904  15.8904  16.0841  16.0841  16.0841  16.5856
    16.5857  16.5857  17.8626  17.8626  17.8626  18.6386  18.6386  18.6386
    18.8722  18.8722  18.8722  18.9108  18.9109  18.9109  20.5935  20.6495
    20.6495  20.8381  20.8381  20.8381  21.2513  21.2513  21.2513  21.4332
    21.4332  21.4332  21.8243  21.8243  25.4483  25.4483  25.4484  28.0959
    28.0959  28.0959  28.6125  28.6125  28.6125  30.4827

          k = 0.1645 0.1645 0.2742 (  7845 PWs)   bands (ev):

   -63.7002 -63.6421 -63.6222 -63.6220 -63.5653 -63.5651 -63.5457 -63.4899
   -29.7569 -29.7569 -29.6970 -29.6970 -29.6831 -29.6783 -29.6749 -29.6215
   -29.6182 -29.6047 -29.6045 -29.5304 -29.1861 -29.1232 -29.1231 -29.0914
   -29.0879 -29.0628 -29.0468 -29.0435 -29.0300 -29.0300 -28.9875 -28.9875
    14.4004  14.8688  15.0410  15.0410  15.2071  15.5055  15.5530  15.6306
    15.8151  15.8924  15.8924  16.1009  16.1862  16.4786  16.4786  16.4823
    16.4823  17.1123  17.3931  17.3931  17.8948  18.3425  18.3679  18.5707
    18.5707  18.8308  18.8308  18.8699  19.0764  19.0764  20.3427  20.3486
    20.3543  20.5789  20.5789  20.6632  20.6670  20.6671  20.8262  20.9923
    21.5292  21.7928  21.8721  21.8721  24.5443  24.5443  26.0997  28.2933
    28.2933  29.0619  29.0619  29.3428  29.4041  29.5046

          k = 0.1645 0.1645 0.3838 (  7836 PWs)   bands (ev):

   -63.6866 -63.6557 -63.6089 -63.6088 -63.5786 -63.5785 -63.5327 -63.5030
   -29.7429 -29.7429 -29.7110 -29.7110 -29.6651 -29.6617 -29.6347 -29.6314
   -29.5690 -29.4937 -29.4936 -29.4226 -29.3042 -29.2376 -29.2375 -29.1739
   -29.0810 -29.0775 -29.0575 -29.0540 -29.0200 -29.0200 -28.9973 -28.9973
    14.7690  15.0246  15.3014  15.3949  15.4502  15.4502  15.4873  15.5261
    16.0338  16.0338  16.1099  16.3498  16.3499  16.5039  16.5156  16.5156
    16.6127  17.4934  17.4934  17.5201  17.5992  17.7502  18.0896  18.6062
    18.6063  18.7565  18.7566  19.1257  19.1258  19.1913  19.7939  19.8814
    19.8814  19.9754  19.9775  20.0423  20.2502  20.2502  20.6991  20.7844
    21.6159  21.7472  22.5153  22.5153  23.8087  23.8087  26.8840  28.5586
    28.5586  28.5955  29.0713  29.0713  30.2899  30.9488

          k = 0.1645 0.1645-0.4935 (  7866 PWs)   bands (ev):

   -63.6712 -63.6711 -63.5940 -63.5938 -63.5936 -63.5935 -63.5179 -63.5178
   -29.7271 -29.7271 -29.7270 -29.7270 -29.6500 -29.6499 -29.6467 -29.6466
   -29.4375 -29.4374 -29.3666 -29.3664 -29.3662 -29.3662 -29.2991 -29.2990
   -29.0693 -29.0692 -29.0658 -29.0657 -29.0088 -29.0088 -29.0087 -29.0087
    15.1337  15.1338  15.2075  15.2075  15.4117  15.4118  15.9454  15.9455
    15.9455  15.9455  16.2175  16.2176  16.2176  16.2176  16.8877  16.8877
    17.0205  17.0206  17.1461  17.1462  18.3626  18.3627  18.3628  18.3628
    18.6777  18.6778  18.6779  18.6780  18.9389  18.9390  19.5735  19.5736
    19.7874  19.7875  19.9238  19.9238  19.9238  19.9238  20.7412  20.7413
    21.6882  21.6883  23.1538  23.1538  23.1538  23.1538  27.7252  27.7252
    28.8471  28.8472  28.8472  28.8472  31.3577  31.3577

          k = 0.1645 0.2742 0.2742 (  7830 PWs)   bands (ev):

   -63.6902 -63.6323 -63.6322 -63.6123 -63.5752 -63.5556 -63.5555 -63.4997
   -29.7467 -29.6871 -29.6870 -29.6732 -29.6732 -29.6298 -29.6189 -29.6105
   -29.5951 -29.5951 -29.5438 -29.5362 -29.1825 -29.1733 -29.1313 -29.1313
   -29.1193 -29.1115 -29.0819 -29.0706 -29.0706 -29.0378 -29.0376 -28.9948
    14.7226  15.1462  15.1462  15.2964  15.4517  15.6572  15.6816  15.7785
    15.7786  16.1921  16.2189  16.2189  16.2666  16.3786  16.4358  16.6068
    16.9955  16.9955  17.2918  17.5287  17.5288  18.2382  18.2895  18.2895
    18.5585  18.5586  18.7939  18.7939  18.9838  19.0425  20.0831  20.1756
    20.3029  20.3517  20.4201  20.5104  20.5104  20.6499  20.8007  20.8007
    20.8583  20.8583  21.3128  22.4530  23.3618  25.1492  25.1492  28.4282
    28.5461  29.7094  29.7094  29.7185  29.7185  30.1442

          k = 0.1645 0.2742 0.3838 (  7837 PWs)   bands (ev):

   -63.6767 -63.6458 -63.6189 -63.5991 -63.5886 -63.5689 -63.5425 -63.5128
   -29.7328 -29.7010 -29.6737 -29.6597 -29.6432 -29.6288 -29.5822 -29.5593
   -29.5531 -29.5033 -29.4846 -29.4317 -29.2959 -29.2462 -29.2296 -29.1821
   -29.1668 -29.1421 -29.1048 -29.0811 -29.0716 -29.0481 -29.0277 -29.0049
    15.0522  15.2895  15.5403  15.5987  15.6003  15.6214  15.6493  15.9000
    15.9729  16.2083  16.2530  16.4408  16.4788  16.5058  16.5710  16.8351
    16.8544  17.4287  17.4422  17.5021  17.5786  17.8005  18.1191  18.1561
    18.2108  18.7049  18.8161  18.9099  19.0133  19.0928  19.6920  19.7566
    19.8085  19.9719  19.9822  20.0087  20.0589  20.1957  20.4323  20.5409
    20.9155  21.1215  21.3180  22.4783  23.0761  24.3797  25.8713  27.4956
    28.8861  29.6037  30.0956  30.5645  30.5954  31.3232

          k = 0.1645 0.2742-0.4935 (  7858 PWs)   bands (ev):

   -63.6613 -63.6612 -63.6038 -63.6037 -63.5840 -63.5839 -63.5277 -63.5276
   -29.7170 -29.7168 -29.6586 -29.6585 -29.6443 -29.6442 -29.5678 -29.5676
   -29.4284 -29.4283 -29.3755 -29.3754 -29.3579 -29.3579 -29.3077 -29.3076
   -29.1546 -29.1545 -29.0931 -29.0930 -29.0599 -29.0598 -29.0164 -29.0163
    15.3487  15.3488  15.4521  15.4521  15.7771  15.7772  15.9623  15.9623
    16.0138  16.0138  16.2209  16.2210  16.7032  16.7033  16.9093  16.9094
    16.9922  16.9922  17.3285  17.3286  18.1386  18.1386  18.2189  18.2189
    18.3162  18.3163  18.8410  18.8410  18.8806  18.8807  19.4235  19.4235
    19.7152  19.7152  19.8330  19.8330  19.8576  19.8577  20.4814  20.4815
    21.0166  21.0167  21.8372  21.8372  23.7107  23.7107  26.6547  26.6547
    29.2669  29.2669  30.4622  30.4622  31.4934  31.4934

          k = 0.1645 0.3838 0.3838 (  7849 PWs)   bands (ev):

   -63.6632 -63.6325 -63.6324 -63.6020 -63.5859 -63.5559 -63.5557 -63.5260
   -29.7191 -29.6876 -29.6875 -29.6568 -29.5464 -29.5464 -29.5233 -29.5101
   -29.4723 -29.4723 -29.4501 -29.4385 -29.2909 -29.2773 -29.2578 -29.2578
   -29.2245 -29.2125 -29.1931 -29.1931 -29.0614 -29.0380 -29.0379 -29.0151
    15.2950  15.6541  15.6541  15.7207  15.7208  15.7636  15.8592  16.0593
    16.1871  16.3648  16.3973  16.3973  16.4716  16.6136  17.0387  17.1907
    17.3517  17.3517  17.4124  17.4124  17.7669  17.7669  17.7676  17.7796
    18.2852  18.2852  18.5916  19.0768  19.0768  19.1327  19.3762  19.4960
    19.5734  19.6755  20.0590  20.0591  20.0934  20.0935  20.1069  20.1231
    20.4407  20.4407  20.5442  21.4446  23.6976  25.0501  25.0501  26.5764
    29.3222  30.2870  30.2870  31.7655  31.7794  31.7794

          k = 0.1645 0.3838-0.4935 (  7838 PWs)   bands (ev):

   -63.6479 -63.6478 -63.6173 -63.6172 -63.5709 -63.5708 -63.5410 -63.5409
   -29.7034 -29.7033 -29.6723 -29.6722 -29.5319 -29.5317 -29.4586 -29.4584
   -29.4163 -29.4163 -29.3877 -29.3876 -29.3463 -29.3462 -29.3191 -29.3191
   -29.2707 -29.2706 -29.2057 -29.2056 -29.0497 -29.0496 -29.0265 -29.0264
    15.5145  15.5145  15.7562  15.7562  15.8467  15.8468  16.0557  16.0558
    16.2739  16.2740  16.3408  16.3408  16.9736  16.9737  17.0267  17.0267
    17.2600  17.2601  17.6084  17.6084  17.7084  17.7084  17.9470  17.9471
    18.1802  18.1802  18.6340  18.6341  19.1191  19.1191  19.2951  19.2952
    19.5871  19.5871  19.7733  19.7734  19.9033  19.9034  20.1947  20.1948
    20.2476  20.2477  20.7909  20.7910  24.3474  24.3475  25.7780  25.7780
    29.8149  29.8150  31.0344  31.0345  32.1210  32.1211

          k = 0.1645-0.4935-0.4935 (  7840 PWs)   bands (ev):

   -63.6326 -63.6326 -63.6326 -63.6324 -63.5560 -63.5560 -63.5559 -63.5557
   -29.6879 -29.6879 -29.6879 -29.6876 -29.4097 -29.4097 -29.4096 -29.4096
   -29.3945 -29.3944 -29.3944 -29.3944 -29.3392 -29.3392 -29.3391 -29.3391
   -29.3262 -29.3262 -29.3261 -29.3261 -29.0382 -29.0382 -29.0382 -29.0379
    15.6835  15.6835  15.6835  15.6836  15.9934  15.9935  15.9935  15.9935
    16.4346  16.4346  16.4346  16.4346  17.1011  17.1012  17.1012  17.1012
    17.4738  17.4738  17.4738  17.4740  17.9021  17.9021  17.9021  17.9022
    18.1959  18.1959  18.1959  18.1961  19.2465  19.2465  19.2465  19.2465
    19.7161  19.7161  19.7161  19.7162  19.8078  19.8078  19.8079  19.8079
    20.2392  20.2392  20.2393  20.2393  25.0291  25.0292  25.0292  25.0292
    30.4277  30.4277  30.4277  30.4277  33.4971  33.4971

          k = 0.2742 0.2742 0.2742 (  7838 PWs)   bands (ev):

   -63.6802 -63.6225 -63.6225 -63.6223 -63.5656 -63.5656 -63.5654 -63.5095
   -29.6633 -29.6633 -29.6633 -29.6095 -29.6095 -29.6094 -29.6011 -29.6010
   -29.6010 -29.5576 -29.5460 -29.5460 -29.1788 -29.1653 -29.1653 -29.1275
   -29.1275 -29.1274 -29.1195 -29.1194 -29.1194 -29.0785 -29.0785 -29.0785
    15.0827  15.3949  15.3949  15.3949  15.7478  15.7478  15.7726  16.1767
    16.1767  16.1767  16.3309  16.3309  16.3309  16.4737  16.4737  16.8765
    16.8766  16.8766  17.4287  17.4287  17.4287  18.4727  18.4727  18.4727
    18.4958  18.4959  18.4959  18.5200  18.5200  18.5200  20.1016  20.1016
    20.1566  20.2409  20.2409  20.2409  20.3041  20.3042  20.3042  20.6114
    20.6114  21.3072  21.3073  21.3073  23.9401  23.9402  23.9402  27.2268
    30.0579  30.0579  30.0579  30.8384  30.8384  30.8384

          k = 0.2742 0.2742 0.3838 (  7844 PWs)   bands (ev):

   -63.6667 -63.6360 -63.6092 -63.6091 -63.5789 -63.5788 -63.5524 -63.5226
   -29.6498 -29.6498 -29.6191 -29.6191 -29.5964 -29.5882 -29.5672 -29.5589
   -29.5497 -29.4942 -29.4940 -29.4409 -29.2876 -29.2382 -29.2381 -29.1903
   -29.1630 -29.1547 -29.1384 -29.1302 -29.1127 -29.1127 -29.0891 -29.0891
    15.4307  15.5260  15.7379  15.7379  15.7751  15.8398  16.0384  16.0659
    16.2911  16.3136  16.3136  16.5418  16.5418  16.7043  16.7378  16.7378
    16.8776  17.3603  17.3675  17.5566  17.5566  17.9438  18.1506  18.3740
    18.3740  18.4204  18.4205  18.6293  18.6294  18.8475  19.6959  19.7057
    19.7057  19.7077  19.8991  19.8991  19.9120  20.0733  20.1853  20.4053
    20.4995  20.5567  21.7995  21.7995  23.0242  23.0242  24.6238  26.2301
    30.5043  30.5043  31.2084  31.2084  31.7289  31.7555

          k = 0.2742 0.2742-0.4935 (  7864 PWs)   bands (ev):

   -63.6514 -63.6513 -63.5943 -63.5941 -63.5939 -63.5938 -63.5376 -63.5375
   -29.6345 -29.6345 -29.6344 -29.6344 -29.5819 -29.5818 -29.5737 -29.5736
   -29.4195 -29.4194 -29.3671 -29.3669 -29.3668 -29.3667 -29.3164 -29.3163
   -29.1509 -29.1507 -29.1425 -29.1424 -29.1011 -29.1011 -29.1009 -29.1009
    15.6669  15.6670  15.7389  15.7389  15.9493  15.9494  16.1134  16.1134
    16.1134  16.1135  16.6070  16.6071  16.6071  16.6071  16.9403  16.9403
    17.1043  17.1043  17.3796  17.3796  18.1771  18.1772  18.1772  18.1772
    18.3925  18.3926  18.3926  18.3927  18.7686  18.7686  19.2610  19.2610
    19.6018  19.6019  19.6019  19.6019  19.8453  19.8454  20.2689  20.2690
    20.4880  20.4881  22.3473  22.3473  22.3473  22.3474  25.3804  25.3804
    30.9554  30.9554  30.9554  30.9554  32.8107  32.8108

          k = 0.2742 0.3838 0.3838 (  7850 PWs)   bands (ev):

   -63.6533 -63.6227 -63.6226 -63.5959 -63.5923 -63.5658 -63.5657 -63.5358
   -29.6364 -29.6061 -29.6060 -29.5764 -29.5370 -29.5370 -29.5139 -29.5009
   -29.4818 -29.4818 -29.4592 -29.4478 -29.2828 -29.2690 -29.2496 -29.2496
   -29.2330 -29.2210 -29.2014 -29.2014 -29.1479 -29.1236 -29.1235 -29.0997
    15.7227  15.8411  15.8411  15.9159  15.9832  16.1396  16.1396  16.2127
    16.3737  16.4807  16.4807  16.5294  16.6159  16.8675  16.9276  17.1739
    17.2662  17.2662  17.4399  17.4399  17.7055  17.9674  17.9674  18.0660
    18.2505  18.2505  18.4090  18.6531  18.7107  18.7107  19.3470  19.4010
    19.4415  19.5698  19.7547  19.7547  19.7805  19.7831  19.7832  20.0305
    20.0873  20.7928  20.7928  21.9678  22.3303  23.6596  23.6596  25.2078
    31.0295  31.9964  31.9964  32.2358  32.2358  32.4720

          k = 0.2742 0.3838-0.4935 (  7844 PWs)   bands (ev):

   -63.6380 -63.6379 -63.6075 -63.6074 -63.5809 -63.5808 -63.5509 -63.5507
   -29.6213 -29.6212 -29.5913 -29.5912 -29.5226 -29.5224 -29.4679 -29.4677
   -29.4075 -29.4074 -29.3789 -29.3789 -29.3553 -29.3552 -29.3279 -29.3279
   -29.2624 -29.2623 -29.2141 -29.2139 -29.1358 -29.1357 -29.1118 -29.1117
    15.9237  15.9237  15.9405  15.9406  16.1587  16.1587  16.1638  16.1639
    16.3828  16.3829  16.5545  16.5546  17.0675  17.0675  17.1572  17.1572
    17.1632  17.1633  17.5937  17.5938  17.9365  17.9366  17.9395  17.9395
    18.1316  18.1316  18.6094  18.6095  18.6822  18.6822  19.0875  19.0875
    19.3946  19.3946  19.4651  19.4652  19.6896  19.6896  19.8393  19.8394
    20.2657  20.2657  21.2568  21.2568  22.9274  22.9274  24.3738  24.3739
    31.5842  31.5842  32.6770  32.6770  32.8441  32.8441

          k = 0.2742-0.4935-0.4935 (  7852 PWs)   bands (ev):

   -63.6228 -63.6228 -63.6228 -63.6226 -63.5659 -63.5659 -63.5659 -63.5657
   -29.6063 -29.6063 -29.6063 -29.6061 -29.4008 -29.4007 -29.4007 -29.4007
   -29.3857 -29.3856 -29.3855 -29.3855 -29.3483 -29.3482 -29.3482 -29.3482
   -29.3351 -29.3351 -29.3350 -29.3350 -29.1238 -29.1238 -29.1238 -29.1236
    16.0793  16.0793  16.0793  16.0794  16.1147  16.1147  16.1147  16.1147
    16.5598  16.5598  16.5598  16.5599  17.2660  17.2660  17.2660  17.2660
    17.4988  17.4988  17.4988  17.4989  17.8511  17.8511  17.8511  17.8512
    18.2377  18.2377  18.2377  18.2378  18.9285  18.9285  18.9285  18.9285
    19.4142  19.4142  19.4143  19.4143  19.4632  19.4633  19.4633  19.4633
    20.5817  20.5817  20.5817  20.5817  23.5837  23.5837  23.5837  23.5838
    32.2567  32.2567  32.2567  32.2568  34.1256  34.1256

          k = 0.3838 0.3838 0.3838 (  7841 PWs)   bands (ev):

   -63.6399 -63.6095 -63.6095 -63.6093 -63.5792 -63.5792 -63.5790 -63.5491
   -29.5244 -29.5244 -29.5244 -29.5014 -29.5014 -29.5013 -29.4885 -29.4885
   -29.4885 -29.4782 -29.4602 -29.4602 -29.2773 -29.2577 -29.2577 -29.2443
   -29.2443 -29.2442 -29.2322 -29.2322 -29.2322 -29.2126 -29.2126 -29.2126
    16.0592  16.0711  16.0712  16.0712  16.0767  16.3402  16.3402  16.3402
    16.6102  16.6102  16.8155  16.8155  16.8155  17.1759  17.1759  17.1759
    17.2233  17.2233  17.5425  17.5425  17.5425  18.0706  18.0706  18.0706
    18.3014  18.3014  18.3015  18.4468  18.4469  18.4469  19.3070  19.3071
    19.3071  19.3139  19.3139  19.3476  19.3476  19.4241  19.4241  19.4242
    20.2017  21.2257  21.2257  21.2257  22.5636  22.5636  22.5636  24.1118
    32.8132  32.8132  32.8132  33.3622  33.3623  33.3623

          k = 0.3838 0.3838-0.4935 (  7852 PWs)   bands (ev):

   -63.6247 -63.6246 -63.5945 -63.5943 -63.5941 -63.5941 -63.5642 -63.5641
   -29.5099 -29.5099 -29.5098 -29.5098 -29.4874 -29.4873 -29.4744 -29.4743
   -29.3957 -29.3956 -29.3675 -29.3673 -29.3671 -29.3671 -29.3398 -29.3397
   -29.2571 -29.2570 -29.2450 -29.2449 -29.2253 -29.2253 -29.2252 -29.2252
    16.1121  16.1121  16.2461  16.2462  16.2678  16.2678  16.2679  16.2679
    16.7077  16.7078  17.0745  17.0745  17.0746  17.0746  17.1674  17.1674
    17.3512  17.3512  17.6445  17.6446  17.8758  17.8759  17.8759  17.8759
    18.3547  18.3548  18.3548  18.3548  18.5659  18.5660  18.8861  18.8862
    19.1477  19.1477  19.1477  19.1477  19.2916  19.2917  19.3192  19.3193
    20.5347  20.5347  21.7820  21.7820  21.7821  21.7821  23.2562  23.2562
    33.3807  33.3807  33.3808  33.3808  34.3990  34.3992

          k = 0.3838-0.4935-0.4935 (  7840 PWs)   bands (ev):

   -63.6096 -63.6096 -63.6095 -63.6093 -63.5793 -63.5793 -63.5792 -63.5790
   -29.4957 -29.4957 -29.4957 -29.4955 -29.3890 -29.3890 -29.3889 -29.3889
   -29.3739 -29.3739 -29.3738 -29.3738 -29.3601 -29.3601 -29.3600 -29.3600
   -29.3469 -29.3468 -29.3468 -29.3468 -29.2380 -29.2380 -29.2380 -29.2377
    16.2437  16.2437  16.2437  16.2437  16.3102  16.3102  16.3102  16.3102
    16.9784  16.9784  16.9784  16.9785  17.4267  17.4267  17.4267  17.4267
    17.5197  17.5197  17.5197  17.5198  17.7669  17.7669  17.7669  17.7669
    18.3735  18.3735  18.3735  18.3736  18.6830  18.6830  18.6830  18.6830
    18.9881  18.9881  18.9881  18.9882  19.0498  19.0499  19.0499  19.0499
    21.0031  21.0031  21.0031  21.0031  22.4194  22.4195  22.4195  22.4195
    34.1067  34.1067  34.1067  34.1068  34.9662  34.9662

          k =-0.4935-0.4935-0.4935 (  7784 PWs)   bands (ev):

   -63.5946 -63.5946 -63.5946 -63.5942 -63.5942 -63.5942 -63.5942 -63.5942
   -29.3819 -29.3818 -29.3818 -29.3818 -29.3815 -29.3815 -29.3815 -29.3815
   -29.3604 -29.3604 -29.3604 -29.3604 -29.3604 -29.3601 -29.3601 -29.3601
   -29.3600 -29.3600 -29.3600 -29.3600 -29.3600 -29.3600 -29.3600 -29.3600
    16.3255  16.3255  16.3255  16.3255  16.3256  16.3257  16.3257  16.3257
    17.5094  17.5094  17.5094  17.5095  17.5095  17.5095  17.5096  17.5096
    17.5096  17.5096  17.5097  17.5097  17.5097  17.5097  17.5097  17.5097
    18.6567  18.6567  18.6567  18.6568  18.6568  18.6568  18.6568  18.6568
    18.6570  18.6570  18.6570  18.6570  18.6570  18.6570  18.6570  18.6570
    21.5809  21.5809  21.5809  21.5809  21.5809  21.5810  21.5810  21.5810
    35.9429  35.9430  35.9432  35.9437  35.9439  35.9443

     the Fermi energy is    20.9238 ev

!    total energy              =   -4095.69368179 Ry

     total all-electron energy =    -80735.907109 Ry
     estimated scf accuracy    <       0.00000083 Ry
     smearing contrib. (-TS)   =       0.02379386 Ry
     internal energy E=F+TS    =   -4095.71747565 Ry

     The total energy is F=E-TS. E is the sum of the following terms:
     one-electron contribution =    -633.71768475 Ry
     hartree contribution      =     427.89569028 Ry
     xc contribution           =    -247.75210833 Ry
     ewald contribution        =   -1600.25683443 Ry
     one-center paw contrib.   =   -2041.88653842 Ry

     convergence has been achieved in  11 iterations

     Forces acting on atoms (cartesian axes, Ry/au):

     atom    1 type  1   force =     0.00000000    0.00000000    0.00000000
     atom    2 type  1   force =     0.00000000    0.00000000    0.00000000
     atom    3 type  1   force =     0.00000000    0.00000000    0.00000000
     atom    4 type  1   force =     0.00000000    0.00000000    0.00000000
     atom    5 type  1   force =     0.00000000    0.00000000    0.00000000
     atom    6 type  1   force =     0.00000000    0.00000000    0.00000000
     atom    7 type  1   force =     0.00000000    0.00000000    0.00000000
     atom    8 type  1   force =     0.00000000    0.00000000    0.00000000

     Total force =     0.000000     Total SCF correction =     0.000000


     Computing stress (Cartesian axis) and pressure

          total   stress  (Ry/bohr**3)                   (kbar)     P=      447.22
   0.00304013   0.00000000   0.00000000          447.22        0.00        0.00
   0.00000000   0.00304013   0.00000000            0.00      447.22        0.00
   0.00000000   0.00000000   0.00304013            0.00        0.00      447.22


     Writing output data file /scratch/xcLESvGMCtSqUgVG.save/
 
     init_run     :      0.97s CPU      1.07s WALL (       1 calls)
     electrons    :     34.62s CPU     37.36s WALL (       1 calls)
     forces       :      0.32s CPU      0.33s WALL (       1 calls)
     stress       :      0.47s CPU      0.48s WALL (       1 calls)

     Called by init_run:
     wfcinit      :      0.79s CPU      0.83s WALL (       1 calls)
     potinit      :      0.06s CPU      0.08s WALL (       1 calls)
     hinit0       :      0.03s CPU      0.04s WALL (       1 calls)

     Called by electrons:
     c_bands      :     29.63s CPU     31.98s WALL (      12 calls)
     sum_band     :      4.07s CPU      4.40s WALL (      12 calls)
     v_of_rho     :      0.06s CPU      0.07s WALL (      12 calls)
     newd         :      0.07s CPU      0.08s WALL (      12 calls)
     PAW_pot      :      0.61s CPU      0.64s WALL (      12 calls)
     mix_rho      :      0.04s CPU      0.05s WALL (      12 calls)

     Called by c_bands:
     init_us_2    :      0.06s CPU      0.06s WALL (     945 calls)
     cegterg      :     29.19s CPU     30.01s WALL (     420 calls)

     Called by *egterg:
     cdiaghg      :      5.58s CPU      5.75s WALL (    1186 calls)
     h_psi        :     16.26s CPU     16.79s WALL (    1256 calls)
     s_psi        :      0.23s CPU      0.23s WALL (    1256 calls)
     g_psi        :      0.02s CPU      0.02s WALL (     801 calls)

     Called by h_psi:
     h_psi:calbec :      1.45s CPU      1.48s WALL (    1256 calls)
     vloc_psi     :     14.40s CPU     14.89s WALL (    1256 calls)
     add_vuspsi   :      0.37s CPU      0.37s WALL (    1256 calls)

     General routines
     calbec       :      2.41s CPU      2.50s WALL (    1851 calls)
     fft          :      0.11s CPU      0.12s WALL (     180 calls)
     ffts         :      0.01s CPU      0.01s WALL (      24 calls)
     fftw         :     17.02s CPU     17.74s WALL (  204586 calls)
     interpolate  :      0.01s CPU      0.01s WALL (      12 calls)
 
     Parallel routines
     fft_scatt_xy :      0.91s CPU      0.94s WALL (  204790 calls)
     fft_scatt_yz :     13.45s CPU     14.05s WALL (  204790 calls)
 
     PWSCF        :     40.27s CPU     43.65s WALL

 
   This run was terminated on:   3:41:52  30Nov2021            

=------------------------------------------------------------------------------=
   JOB DONE.
=------------------------------------------------------------------------------=
