
     Program PWSCF v.6.7MaX starts on 30Nov2021 at  3:42:49 

     This program is part of the open-source Quantum ESPRESSO suite
     for quantum simulation of materials; please cite
         "P. Giannozzi et al., J. Phys.:Condens. Matter 21 395502 (2009);
         "P. Giannozzi et al., J. Phys.:Condens. Matter 29 465901 (2017);
          URL http://www.quantum-espresso.org", 
     in publications or presentations arising from this work. More details at
     http://www.quantum-espresso.org/quote

     Parallel version (MPI & OpenMP), running on      72 processor cores
     Number of MPI processes:                72
     Threads/MPI process:                     1

     MPI processes distributed on     1 nodes
     R & G space division:  proc/nbgrp/npool/nimage =      72
     Reading input from sc_7.in
Warning: card &CELL ignored
Warning: card CELL_DYNAMICS = 'BFGS', ignored
Warning: card CELL_FACTOR = 2.0, ignored
Warning: card PRESS = 0.0, ignored
Warning: card / ignored

     Current dimensions of program PWSCF are:
     Max number of different atomic species (ntypx) = 10
     Max number of k-points (npk) =  40000
     Max angular momentum in pseudopotentials (lmaxx) =  3
     file Pd.pbe-spn-kjpaw_psl.1.0.0.UPF: wavefunction(s)  4S 5S 4D renormalized

     Subspace diagonalization in iterative solution of the eigenvalue problem:
     one sub-group per band group will be used
     ELPA distributed-memory algorithm (size of sub-group:  8*  8 procs)

     Found symmetry operation: I + (  0.0000  0.0000 -0.5000)
     This is a supercell, fractional translations are disabled
     Message from routine setup:
     using ibrav=0 with symmetry is DISCOURAGED, use correct ibrav instead
 
     Parallelization info
     --------------------
     sticks:   dense  smooth     PW     G-vecs:    dense   smooth      PW
     Min          51      33      9                 2345     1253     185
     Max          52      34     10                 2350     1260     192
     Sum        3705    2433    681               168933    90447   13517
 


     bravais-lattice index     =            0
     lattice parameter (alat)  =       9.0720  a.u.
     unit-cell volume          =    1120.0208 (a.u.)^3
     number of atoms/cell      =            8
     number of atomic types    =            1
     number of electrons       =       144.00
     number of Kohn-Sham states=           86
     kinetic-energy cutoff     =      71.0000  Ry
     charge density cutoff     =     430.0000  Ry
     scf convergence threshold =      1.0E-06
     mixing beta               =       0.1000
     number of iterations used =           10  TF        mixing
     Exchange-correlation= SLA  PW   PBX  PBC
                           (   1   4   3   4   0   0   0)

     celldm(1)=   9.072000  celldm(2)=   0.000000  celldm(3)=   0.000000
     celldm(4)=   0.000000  celldm(5)=   0.000000  celldm(6)=   0.000000

     crystal axes: (cart. coord. in units of alat)
               a(1) = (   1.144737   0.000000   0.000000 )  
               a(2) = (   0.000000   1.144737   0.000000 )  
               a(3) = (   0.000000   0.000000   1.144737 )  

     reciprocal axes: (cart. coord. in units 2 pi/alat)
               b(1) = (  0.873563  0.000000  0.000000 )  
               b(2) = (  0.000000  0.873563  0.000000 )  
               b(3) = (  0.000000  0.000000  0.873563 )  


     PseudoPot. # 1 for Pd read from file:
     /rds/homes/b/bxp912/pp/Pd.pbe-spn-kjpaw_psl.1.0.0.UPF
     MD5 check sum: 790f2ebce206edfd9790dcb9844eca51
     Pseudo is Projector augmented-wave + core cor, Zval = 18.0
     Generated using &quot;atomic&quot; code by A. Dal Corso  v.6.3
     Shape of augmentation charge: PSQ
     Using radial grid of 1235 points,  6 beta functions with: 
                l(1) =   0
                l(2) =   0
                l(3) =   1
                l(4) =   1
                l(5) =   2
                l(6) =   2
     Q(r) pseudized with 0 coefficients 


     atomic species   valence    mass     pseudopotential
        Pd            18.00   106.42000     Pd( 1.00)

     48 Sym. Ops., with inversion, found



   Cartesian axes

     site n.     atom                  positions (alat units)
         1           Pd  tau(   1) = (   0.0000000   0.0000000   0.0000000  )
         2           Pd  tau(   2) = (   0.0000000   0.0000000   0.5723684  )
         3           Pd  tau(   3) = (   0.0000000   0.5723684   0.0000000  )
         4           Pd  tau(   4) = (   0.0000000   0.5723684   0.5723684  )
         5           Pd  tau(   5) = (   0.5723684   0.0000000   0.0000000  )
         6           Pd  tau(   6) = (   0.5723684   0.0000000   0.5723684  )
         7           Pd  tau(   7) = (   0.5723684   0.5723684   0.0000000  )
         8           Pd  tau(   8) = (   0.5723684   0.5723684   0.5723684  )

     number of k points=    35  Marzari-Vanderbilt smearing, width (Ry)=  0.0400
                       cart. coord. in units 2pi/alat
        k(    1) = (   0.0485313   0.0485313   0.0485313), wk =   0.0219479
        k(    2) = (   0.0485313   0.0485313   0.1455939), wk =   0.0658436
        k(    3) = (   0.0485313   0.0485313   0.2426564), wk =   0.0658436
        k(    4) = (   0.0485313   0.0485313   0.3397190), wk =   0.0658436
        k(    5) = (   0.0485313   0.0485313  -0.4367816), wk =   0.0329218
        k(    6) = (   0.0485313   0.1455939   0.1455939), wk =   0.0658436
        k(    7) = (   0.0485313   0.1455939   0.2426564), wk =   0.1316872
        k(    8) = (   0.0485313   0.1455939   0.3397190), wk =   0.1316872
        k(    9) = (   0.0485313   0.1455939  -0.4367816), wk =   0.0658436
        k(   10) = (   0.0485313   0.2426564   0.2426564), wk =   0.0658436
        k(   11) = (   0.0485313   0.2426564   0.3397190), wk =   0.1316872
        k(   12) = (   0.0485313   0.2426564  -0.4367816), wk =   0.0658436
        k(   13) = (   0.0485313   0.3397190   0.3397190), wk =   0.0658436
        k(   14) = (   0.0485313   0.3397190  -0.4367816), wk =   0.0658436
        k(   15) = (   0.0485313  -0.4367816  -0.4367816), wk =   0.0164609
        k(   16) = (   0.1455939   0.1455939   0.1455939), wk =   0.0219479
        k(   17) = (   0.1455939   0.1455939   0.2426564), wk =   0.0658436
        k(   18) = (   0.1455939   0.1455939   0.3397190), wk =   0.0658436
        k(   19) = (   0.1455939   0.1455939  -0.4367816), wk =   0.0329218
        k(   20) = (   0.1455939   0.2426564   0.2426564), wk =   0.0658436
        k(   21) = (   0.1455939   0.2426564   0.3397190), wk =   0.1316872
        k(   22) = (   0.1455939   0.2426564  -0.4367816), wk =   0.0658436
        k(   23) = (   0.1455939   0.3397190   0.3397190), wk =   0.0658436
        k(   24) = (   0.1455939   0.3397190  -0.4367816), wk =   0.0658436
        k(   25) = (   0.1455939  -0.4367816  -0.4367816), wk =   0.0164609
        k(   26) = (   0.2426564   0.2426564   0.2426564), wk =   0.0219479
        k(   27) = (   0.2426564   0.2426564   0.3397190), wk =   0.0658436
        k(   28) = (   0.2426564   0.2426564  -0.4367816), wk =   0.0329218
        k(   29) = (   0.2426564   0.3397190   0.3397190), wk =   0.0658436
        k(   30) = (   0.2426564   0.3397190  -0.4367816), wk =   0.0658436
        k(   31) = (   0.2426564  -0.4367816  -0.4367816), wk =   0.0164609
        k(   32) = (   0.3397190   0.3397190   0.3397190), wk =   0.0219479
        k(   33) = (   0.3397190   0.3397190  -0.4367816), wk =   0.0329218
        k(   34) = (   0.3397190  -0.4367816  -0.4367816), wk =   0.0164609
        k(   35) = (  -0.4367816  -0.4367816  -0.4367816), wk =   0.0027435

     Dense  grid:   168933 G-vectors     FFT dimensions: (  72,  72,  72)

     Smooth grid:    90447 G-vectors     FFT dimensions: (  60,  60,  60)

     Estimated max dynamical RAM per process >      18.39 MB

     Estimated total dynamical RAM >       1.29 GB

     Check: negative core charge=   -0.000001

     Initial potential from superposition of free atoms

     starting charge  143.99694, renormalised to  144.00000
     Starting wfcs are   80 randomized atomic wfcs +    6 random wfcs
     Checking if some PAW data can be deallocated... 

     total cpu time spent up to now is        4.1 secs

     Self-consistent Calculation

     iteration #  1     ecut=    71.00 Ry     beta= 0.10
     Davidson diagonalization with overlap
     ethr =  1.00E-02,  avg # of iterations =  3.2

     Threshold (ethr) on eigenvalues was too large:
     Diagonalizing with lowered threshold

     Davidson diagonalization with overlap
     ethr =  5.70E-04,  avg # of iterations =  1.1

     total cpu time spent up to now is        9.0 secs

     total energy              =   -4095.97487417 Ry
     estimated scf accuracy    <       0.80049570 Ry

     iteration #  2     ecut=    71.00 Ry     beta= 0.10
     Davidson diagonalization with overlap
     ethr =  5.56E-04,  avg # of iterations =  1.0

     total cpu time spent up to now is       11.5 secs

     total energy              =   -4095.76369698 Ry
     estimated scf accuracy    <       0.55540603 Ry

     iteration #  3     ecut=    71.00 Ry     beta= 0.10
     Davidson diagonalization with overlap
     ethr =  3.86E-04,  avg # of iterations =  2.0

     total cpu time spent up to now is       15.2 secs

     total energy              =   -4095.84003765 Ry
     estimated scf accuracy    <       0.03104130 Ry

     iteration #  4     ecut=    71.00 Ry     beta= 0.10
     Davidson diagonalization with overlap
     ethr =  2.16E-05,  avg # of iterations =  2.5

     total cpu time spent up to now is       18.3 secs

     total energy              =   -4095.83952391 Ry
     estimated scf accuracy    <       0.01747192 Ry

     iteration #  5     ecut=    71.00 Ry     beta= 0.10
     Davidson diagonalization with overlap
     ethr =  1.21E-05,  avg # of iterations =  1.0

     total cpu time spent up to now is       21.3 secs

     total energy              =   -4095.83881749 Ry
     estimated scf accuracy    <       0.00688156 Ry

     iteration #  6     ecut=    71.00 Ry     beta= 0.10
     Davidson diagonalization with overlap
     ethr =  4.78E-06,  avg # of iterations =  2.0

     total cpu time spent up to now is       24.6 secs

     total energy              =   -4095.83973374 Ry
     estimated scf accuracy    <       0.00159234 Ry

     iteration #  7     ecut=    71.00 Ry     beta= 0.10
     Davidson diagonalization with overlap
     ethr =  1.11E-06,  avg # of iterations =  2.1

     total cpu time spent up to now is       29.0 secs

     total energy              =   -4095.83962290 Ry
     estimated scf accuracy    <       0.00223241 Ry

     iteration #  8     ecut=    71.00 Ry     beta= 0.10
     Davidson diagonalization with overlap
     ethr =  1.11E-06,  avg # of iterations =  3.0

     total cpu time spent up to now is       33.7 secs

     total energy              =   -4095.83834012 Ry
     estimated scf accuracy    <       0.00955703 Ry

     iteration #  9     ecut=    71.00 Ry     beta= 0.10
     Davidson diagonalization with overlap
     ethr =  1.11E-06,  avg # of iterations =  2.1

     total cpu time spent up to now is       37.1 secs

     total energy              =   -4095.84016814 Ry
     estimated scf accuracy    <       0.00004473 Ry

     iteration # 10     ecut=    71.00 Ry     beta= 0.10
     Davidson diagonalization with overlap
     ethr =  3.11E-08,  avg # of iterations =  2.0

     total cpu time spent up to now is       40.1 secs

     total energy              =   -4095.84020413 Ry
     estimated scf accuracy    <       0.00003016 Ry

     iteration # 11     ecut=    71.00 Ry     beta= 0.10
     Davidson diagonalization with overlap
     ethr =  2.09E-08,  avg # of iterations =  2.0

     total cpu time spent up to now is       43.2 secs

     total energy              =   -4095.84020847 Ry
     estimated scf accuracy    <       0.00000708 Ry

     iteration # 12     ecut=    71.00 Ry     beta= 0.10
     Davidson diagonalization with overlap
     ethr =  4.92E-09,  avg # of iterations =  3.1

     total cpu time spent up to now is       48.0 secs

     total energy              =   -4095.84021236 Ry
     estimated scf accuracy    <       0.00002431 Ry

     iteration # 13     ecut=    71.00 Ry     beta= 0.10
     Davidson diagonalization with overlap
     ethr =  4.92E-09,  avg # of iterations =  2.0

     total cpu time spent up to now is       51.2 secs

     total energy              =   -4095.84021024 Ry
     estimated scf accuracy    <       0.00000729 Ry

     iteration # 14     ecut=    71.00 Ry     beta= 0.10
     Davidson diagonalization with overlap
     ethr =  4.92E-09,  avg # of iterations =  2.0

     total cpu time spent up to now is       54.4 secs

     End of self-consistent calculation

          k = 0.0485 0.0485 0.0485 ( 11251 PWs)   bands (ev):

   -71.0842 -71.0659 -71.0659 -71.0657 -71.0478 -71.0478 -71.0476 -71.0298
   -36.9126 -36.9126 -36.9126 -36.8898 -36.8898 -36.8898 -36.8898 -36.8897
   -36.8897 -36.8682 -36.8678 -36.8678 -36.6942 -36.6939 -36.6939 -36.6768
   -36.6768 -36.6768 -36.6767 -36.6767 -36.6767 -36.6595 -36.6595 -36.6595
     7.5269   8.8267   8.8267   8.8267   8.9096   8.9096   9.2694   9.2694
     9.2694   9.3222   9.3223   9.3223   9.4630   9.4816   9.4816   9.7480
     9.7481   9.7481  11.1788  11.1788  11.1788  11.2329  11.2330  11.2330
    11.4382  11.4382  11.4382  11.4406  11.4406  11.4406  12.3897  12.3944
    12.3944  12.5013  12.5013  12.5013  13.2099  13.2099  13.2099  13.3038
    13.3038  13.3085  13.3085  13.3085  16.6382  16.6382  16.6382  17.5430
    17.5430  17.5430  17.9033  17.9033  17.9033  22.3261

          k = 0.0485 0.0485 0.1456 ( 11298 PWs)   bands (ev):

   -71.0831 -71.0670 -71.0648 -71.0647 -71.0489 -71.0488 -71.0466 -71.0309
   -36.9113 -36.9113 -36.8996 -36.8912 -36.8912 -36.8885 -36.8884 -36.8772
   -36.8771 -36.8693 -36.8693 -36.8557 -36.7075 -36.6931 -36.6929 -36.6899
   -36.6898 -36.6779 -36.6778 -36.6757 -36.6757 -36.6722 -36.6605 -36.6605
     7.6658   8.8625   8.9169   8.9169   8.9303   9.0099   9.2364   9.2466
     9.3107   9.3107   9.4279   9.4903   9.4903   9.5641   9.5713   9.7188
     9.7188   9.9195  10.9023  10.9023  11.2304  11.2358  11.2359  11.2723
    11.2747  11.2957  11.4258  11.4258  11.4971  11.4971  12.3128  12.3155
    12.3997  12.4312  12.4312  12.4946  12.6201  12.9105  12.9105  13.0268
    13.2180  13.2990  13.6486  13.6486  16.6775  16.6776  17.0025  17.0025
    17.5173  17.8000  17.9215  17.9215  18.1702  21.5883

          k = 0.0485 0.0485 0.2427 ( 11308 PWs)   bands (ev):

   -71.0811 -71.0691 -71.0628 -71.0627 -71.0509 -71.0508 -71.0446 -71.0330
   -36.9087 -36.9087 -36.8938 -36.8938 -36.8861 -36.8860 -36.8750 -36.8719
   -36.8718 -36.8533 -36.8532 -36.8322 -36.7326 -36.7142 -36.7141 -36.6960
   -36.6911 -36.6910 -36.6799 -36.6798 -36.6737 -36.6737 -36.6624 -36.6624
     7.9198   8.9308   8.9696   9.0733   9.0941   9.0941   9.2043   9.2241
     9.3502   9.3628   9.3628   9.6644   9.6644   9.7385   9.7462   9.8427
     9.8427  10.2514  10.4999  10.4999  10.9887  10.9904  11.2592  11.2593
    11.2702  11.4007  11.4008  11.4158  11.6052  11.6052  11.8170  12.1702
    12.1710  12.3022  12.3022  12.3728  12.3728  12.4119  12.4824  12.5380
    13.2312  13.2898  14.1610  14.1610  16.4441  16.4441  16.7600  16.7600
    17.6785  17.6785  18.2639  18.6572  18.7701  20.9429

          k = 0.0485 0.0485 0.3397 ( 11331 PWs)   bands (ev):

   -71.0782 -71.0719 -71.0600 -71.0599 -71.0537 -71.0536 -71.0419 -71.0357
   -36.9052 -36.9052 -36.8973 -36.8973 -36.8828 -36.8828 -36.8753 -36.8752
   -36.8419 -36.8208 -36.8207 -36.8008 -36.7663 -36.7468 -36.7467 -36.7283
   -36.6886 -36.6885 -36.6826 -36.6826 -36.6711 -36.6711 -36.6651 -36.6651
     8.2390   8.8447   9.0232   9.0247   9.1480   9.2477   9.3519   9.3519
     9.4315   9.4315   9.5809   9.5929   9.5929   9.9887   9.9966  10.0599
    10.0599  10.3739  10.3739  10.6225  10.6500  10.7494  10.7851  11.2918
    11.2919  11.3672  11.3672  11.5821  11.6276  11.6495  11.6495  11.8081
    11.8081  11.9334  11.9832  11.9862  12.1337  12.1337  12.4282  12.4657
    13.2466  13.2772  14.7372  14.7372  15.8931  15.8931  16.8940  16.8940
    17.3640  17.3640  18.8666  19.2996  20.1915  20.2515

          k = 0.0485 0.0485-0.4368 ( 11310 PWs)   bands (ev):

   -71.0751 -71.0750 -71.0569 -71.0568 -71.0568 -71.0567 -71.0388 -71.0388
   -36.9012 -36.9012 -36.9012 -36.9012 -36.8790 -36.8790 -36.8790 -36.8790
   -36.8041 -36.8041 -36.7838 -36.7838 -36.7837 -36.7837 -36.7647 -36.7647
   -36.6856 -36.6856 -36.6855 -36.6855 -36.6681 -36.6681 -36.6681 -36.6681
     8.5613   8.5613   9.0850   9.0851   9.1345   9.1345   9.5095   9.5095
     9.5095   9.5095   9.6840   9.6840   9.6840   9.6840  10.1083  10.1083
    10.2976  10.2976  10.3063  10.3063  10.9929  10.9930  10.9930  10.9930
    11.3066  11.3067  11.3293  11.3293  11.3293  11.3294  11.7785  11.7785
    11.7903  11.7903  11.9500  11.9500  11.9500  11.9500  12.4470  12.4470
    13.2624  13.2624  15.3242  15.3242  15.3242  15.3242  17.0926  17.0926
    17.0926  17.0927  19.5460  19.5460  20.0364  20.0364

          k = 0.0485 0.1456 0.1456 ( 11303 PWs)   bands (ev):

   -71.0820 -71.0659 -71.0658 -71.0637 -71.0499 -71.0478 -71.0477 -71.0320
   -36.9099 -36.8982 -36.8982 -36.8899 -36.8898 -36.8789 -36.8781 -36.8759
   -36.8759 -36.8706 -36.8573 -36.8566 -36.7069 -36.7060 -36.6919 -36.6908
   -36.6908 -36.6889 -36.6884 -36.6768 -36.6767 -36.6733 -36.6733 -36.6616
     7.8055   8.9517   8.9517   8.9923   9.0024   9.0670   9.2697   9.2697
     9.4188   9.4189   9.4337   9.4670   9.5742   9.5765   9.6560   9.6893
     9.8887   9.8887  10.7860  10.9467  10.9467  11.1152  11.2576  11.2576
    11.2979  11.2979  11.3320  11.3320  11.4739  11.4938  12.2350  12.3092
    12.3338  12.3580  12.4240  12.4240  12.6798  12.9023  12.9227  12.9227
    12.9332  12.9332  13.1491  13.9527  16.0995  16.7247  17.2342  17.2342
    17.6091  17.6091  18.1657  18.1657  18.6111  20.8288

          k = 0.0485 0.1456 0.2427 ( 11313 PWs)   bands (ev):

   -71.0799 -71.0680 -71.0638 -71.0616 -71.0520 -71.0498 -71.0457 -71.0340
   -36.9074 -36.8957 -36.8925 -36.8874 -36.8810 -36.8737 -36.8734 -36.8731
   -36.8594 -36.8545 -36.8519 -36.8335 -36.7316 -36.7153 -36.7131 -36.7044
   -36.6972 -36.6929 -36.6901 -36.6867 -36.6788 -36.6753 -36.6747 -36.6635
     8.0593   9.0180   9.0474   9.1267   9.1576   9.1695   9.2622   9.3205
     9.3223   9.4184   9.5210   9.6352   9.7244   9.7549   9.8260   9.8322
     9.8854  10.2152  10.4715  10.5703  10.9677  10.9709  11.0554  11.0851
    11.2284  11.3205  11.4155  11.4342  11.4575  11.5939  12.0918  12.1150
    12.1765  12.2242  12.2313  12.2941  12.3368  12.4118  12.4255  12.4761
    12.9657  13.0860  13.3341  14.4314  15.3369  16.6581  16.8227  17.6474
    17.7896  17.8828  18.6138  18.8364  18.8953  20.1006

          k = 0.0485 0.1456 0.3397 ( 11307 PWs)   bands (ev):

   -71.0771 -71.0708 -71.0611 -71.0589 -71.0548 -71.0526 -71.0430 -71.0368
   -36.9039 -36.8959 -36.8923 -36.8844 -36.8841 -36.8765 -36.8701 -36.8626
   -36.8406 -36.8220 -36.8196 -36.8019 -36.7650 -36.7480 -36.7457 -36.7293
   -36.7017 -36.6956 -36.6875 -36.6840 -36.6815 -36.6779 -36.6721 -36.6661
     8.3738   8.9537   9.1055   9.1091   9.2430   9.3237   9.3804   9.3891
     9.4031   9.5716   9.5949   9.6104   9.7587   9.9703  10.0103  10.0649
    10.0687  10.4002  10.4216  10.5837  10.6477  10.6924  10.8038  11.1083
    11.1897  11.3522  11.4251  11.4756  11.5727  11.5875  11.7115  11.7818
    11.8882  11.8936  11.9111  11.9929  12.0527  12.1246  12.3538  12.3937
    12.9984  13.0565  13.7735  14.7322  14.9827  16.1066  16.9806  17.5245
    18.0493  18.1785  18.6740  19.2079  19.4199  20.3357

          k = 0.0485 0.1456-0.4368 ( 11300 PWs)   bands (ev):

   -71.0740 -71.0740 -71.0579 -71.0579 -71.0557 -71.0557 -71.0399 -71.0399
   -36.8999 -36.8999 -36.8884 -36.8884 -36.8803 -36.8803 -36.8663 -36.8663
   -36.8029 -36.8029 -36.7850 -36.7850 -36.7826 -36.7825 -36.7659 -36.7659
   -36.6986 -36.6986 -36.6845 -36.6845 -36.6809 -36.6809 -36.6691 -36.6691
     8.6851   8.6851   9.1717   9.1717   9.2153   9.2153   9.4644   9.4645
     9.6679   9.6679   9.7105   9.7105   9.7314   9.7314  10.1179  10.1179
    10.2783  10.2783  10.3660  10.3660  10.9551  10.9551  10.9908  10.9908
    11.1473  11.1473  11.2817  11.2817  11.3887  11.3888  11.7310  11.7310
    11.7991  11.7991  11.8798  11.8798  11.9397  11.9397  12.3736  12.3736
    13.0286  13.0287  14.2304  14.2304  15.5505  15.5505  17.2121  17.2121
    18.3641  18.3641  18.7780  18.7780  19.8912  19.8912

          k = 0.0485 0.2427 0.2427 ( 11326 PWs)   bands (ev):

   -71.0779 -71.0660 -71.0658 -71.0596 -71.0540 -71.0478 -71.0477 -71.0361
   -36.9049 -36.8900 -36.8899 -36.8756 -36.8712 -36.8712 -36.8578 -36.8562
   -36.8496 -36.8496 -36.8368 -36.8352 -36.7305 -36.7285 -36.7172 -36.7172
   -36.7117 -36.7104 -36.6992 -36.6992 -36.6882 -36.6769 -36.6768 -36.6654
     8.3071   9.1784   9.1884   9.1884   9.2294   9.2295   9.3110   9.3787
     9.4891   9.5859   9.6259   9.6260   9.7572   9.7579   9.9858  10.0313
    10.1527  10.1527  10.3531  10.6404  10.6404  10.8991  10.9370  10.9370
    11.1655  11.1656  11.4364  11.4364  11.5463  11.5882  11.9311  11.9519
    12.0839  12.1660  12.2213  12.2554  12.2764  12.2764  12.4468  12.4468
    12.4912  12.4912  12.8270  14.3961  14.8730  16.9516  17.0339  17.0339
    18.2642  18.2642  19.1320  19.1321  19.3271  19.7221

          k = 0.0485 0.2427 0.3397 ( 11298 PWs)   bands (ev):

   -71.0751 -71.0687 -71.0631 -71.0568 -71.0568 -71.0505 -71.0450 -71.0388
   -36.9013 -36.8934 -36.8866 -36.8790 -36.8679 -36.8603 -36.8463 -36.8391
   -36.8381 -36.8244 -36.8173 -36.8041 -36.7628 -36.7501 -36.7436 -36.7314
   -36.7265 -36.7200 -36.7082 -36.7020 -36.6855 -36.6794 -36.6741 -36.6680
     8.5989   9.0792   9.2722   9.2887   9.3058   9.4328   9.4376   9.4542
     9.4972   9.5944   9.6770   9.8947   9.9290   9.9505  10.0550  10.0750
    10.2125  10.4617  10.4799  10.5349  10.5456  10.6163  10.8381  10.8945
    10.9044  11.2442  11.4276  11.4664  11.5372  11.5876  11.7484  11.7866
    11.7868  11.8380  11.9119  11.9592  12.0064  12.1070  12.2190  12.2619
    12.5536  12.6885  12.7884  13.6861  15.3927  16.4736  17.1560  17.5107
    17.8335  18.6515  18.7816  19.4510  19.9957  20.0518

          k = 0.0485 0.2427-0.4368 ( 11318 PWs)   bands (ev):

   -71.0719 -71.0719 -71.0600 -71.0600 -71.0537 -71.0537 -71.0419 -71.0419
   -36.8974 -36.8974 -36.8828 -36.8828 -36.8641 -36.8641 -36.8428 -36.8428
   -36.8005 -36.8005 -36.7874 -36.7874 -36.7805 -36.7805 -36.7680 -36.7680
   -36.7233 -36.7233 -36.7051 -36.7051 -36.6825 -36.6825 -36.6711 -36.6711
     8.8664   8.8664   9.3668   9.3669   9.3865   9.3865   9.3868   9.3868
     9.7333   9.7333   9.8060   9.8060   9.9901   9.9901  10.1370  10.1370
    10.2451  10.2451  10.4822  10.4822  10.8543  10.8543  10.8737  10.8737
    10.9740  10.9740  11.2245  11.2245  11.5010  11.5010  11.6631  11.6631
    11.7759  11.7759  11.8184  11.8184  11.9204  11.9204  12.2395  12.2396
    12.6145  12.6145  13.1792  13.1792  15.9333  15.9334  17.4493  17.4493
    18.0518  18.0518  19.3913  19.3913  19.7910  19.7910

          k = 0.0485 0.3397 0.3397 ( 11308 PWs)   bands (ev):

   -71.0723 -71.0660 -71.0659 -71.0596 -71.0541 -71.0478 -71.0477 -71.0416
   -36.8980 -36.8901 -36.8900 -36.8824 -36.8349 -36.8349 -36.8289 -36.8263
   -36.8143 -36.8143 -36.8085 -36.8061 -36.7612 -36.7585 -36.7531 -36.7531
   -36.7419 -36.7397 -36.7343 -36.7343 -36.6829 -36.6768 -36.6767 -36.6707
     8.8330   9.1843   9.1843   9.3765   9.4992   9.4992   9.5500   9.5619
     9.7311   9.8308   9.8308   9.8377   9.9673  10.0091  10.2271  10.4130
    10.4553  10.4554  10.4755  10.4755  10.5741  10.5741  10.6165  10.6199
    10.9999  11.0000  11.1349  11.5298  11.6162  11.6162  11.6538  11.6610
    11.7475  11.7574  11.9976  12.0118  12.0118  12.0351  12.0352  12.0724
    12.1050  12.1050  12.3393  12.8693  15.8811  16.9273  16.9273  17.4273
    17.9980  18.2716  18.2716  19.4214  20.9515  20.9518

          k = 0.0485 0.3397-0.4368 ( 11320 PWs)   bands (ev):

   -71.0691 -71.0691 -71.0628 -71.0628 -71.0509 -71.0509 -71.0447 -71.0447
   -36.8940 -36.8940 -36.8862 -36.8862 -36.8313 -36.8313 -36.8108 -36.8108
   -36.7975 -36.7975 -36.7905 -36.7905 -36.7776 -36.7776 -36.7709 -36.7709
   -36.7564 -36.7564 -36.7375 -36.7375 -36.6798 -36.6798 -36.6737 -36.6737
     9.0277   9.0277   9.2843   9.2844   9.5594   9.5594   9.7192   9.7192
     9.7568   9.7568   9.8809   9.8809  10.1930  10.1930  10.2293  10.2293
    10.3968  10.3968  10.5511  10.5511  10.6353  10.6353  10.7172  10.7172
    10.9151  10.9151  11.1029  11.1029  11.6369  11.6369  11.6491  11.6491
    11.7141  11.7141  11.8469  11.8469  11.8951  11.8951  12.0679  12.0679
    12.1412  12.1412  12.3420  12.3420  16.3954  16.3954  17.4336  17.4336
    17.8026  17.8026  18.8125  18.8125  21.2450  21.2450

          k = 0.0485-0.4368-0.4368 ( 11332 PWs)   bands (ev):

   -71.0660 -71.0660 -71.0659 -71.0659 -71.0479 -71.0479 -71.0478 -71.0477
   -36.8901 -36.8901 -36.8900 -36.8900 -36.7956 -36.7956 -36.7955 -36.7955
   -36.7926 -36.7926 -36.7925 -36.7925 -36.7755 -36.7755 -36.7754 -36.7754
   -36.7730 -36.7730 -36.7729 -36.7729 -36.6769 -36.6769 -36.6768 -36.6768
     9.1638   9.1638   9.1638   9.1638   9.7149   9.7149   9.7149   9.7149
     9.9032   9.9032   9.9032   9.9032  10.3035  10.3035  10.3035  10.3035
    10.4313  10.4313  10.4313  10.4313  10.7907  10.7907  10.7908  10.7908
    10.8366  10.8366  10.8367  10.8367  11.7225  11.7225  11.7225  11.7226
    11.8051  11.8051  11.8051  11.8052  11.9068  11.9068  11.9068  11.9068
    11.9134  11.9134  11.9134  11.9134  16.8940  16.8940  16.8940  16.8941
    18.2654  18.2654  18.2654  18.2654  22.4426  22.4426

          k = 0.1456 0.1456 0.1456 ( 11296 PWs)   bands (ev):

   -71.0809 -71.0648 -71.0648 -71.0647 -71.0489 -71.0489 -71.0487 -71.0331
   -36.8968 -36.8968 -36.8968 -36.8776 -36.8776 -36.8776 -36.8768 -36.8767
   -36.8767 -36.8589 -36.8579 -36.8579 -36.7063 -36.7049 -36.7049 -36.6901
   -36.6901 -36.6900 -36.6895 -36.6895 -36.6895 -36.6743 -36.6743 -36.6743
     7.9468   9.0365   9.0365   9.0365   9.0876   9.0876   9.4095   9.4095
     9.4095   9.4816   9.4816   9.4816   9.5066   9.6639   9.6639   9.8574
     9.8575   9.8575  10.8278  10.8278  10.8278  11.1820  11.1820  11.1820
    11.3068  11.3068  11.3068  11.3261  11.3261  11.3261  12.2257  12.2514
    12.2514  12.3495  12.3495  12.3495  12.7104  12.7104  12.7104  12.8942
    12.8942  13.1799  13.1799  13.1799  16.3173  16.3174  16.3174  17.7087
    17.7087  17.7087  18.8598  18.8598  18.8598  19.9361

          k = 0.1456 0.1456 0.2427 ( 11320 PWs)   bands (ev):

   -71.0788 -71.0669 -71.0628 -71.0627 -71.0510 -71.0508 -71.0468 -71.0351
   -36.8943 -36.8943 -36.8798 -36.8798 -36.8751 -36.8744 -36.8724 -36.8610
   -36.8604 -36.8533 -36.8532 -36.8348 -36.7304 -36.7142 -36.7141 -36.7038
   -36.7029 -36.6983 -36.6921 -36.6916 -36.6878 -36.6878 -36.6763 -36.6763
     8.2024   9.1011   9.1268   9.2018   9.2018   9.2932   9.3142   9.3651
     9.4803   9.4822   9.4822   9.7864   9.7882   9.7883   9.8007   9.8007
     9.8343  10.1781  10.5438  10.5438  10.8446  11.0301  11.0450  11.1507
    11.1507  11.2863  11.2864  11.3091  11.4197  11.4197  12.0988  12.1005
    12.2142  12.2142  12.2590  12.2857  12.2857  12.2981  12.3827  12.4364
    12.7521  12.8786  13.5567  13.5567  15.5423  15.5423  16.7042  17.9037
    17.9037  19.0255  19.0604  19.0604  19.1283  19.3203

          k = 0.1456 0.1456 0.3397 ( 11305 PWs)   bands (ev):

   -71.0760 -71.0697 -71.0600 -71.0599 -71.0537 -71.0536 -71.0441 -71.0379
   -36.8909 -36.8909 -36.8831 -36.8831 -36.8718 -36.8711 -36.8642 -36.8637
   -36.8392 -36.8209 -36.8208 -36.8032 -36.7639 -36.7469 -36.7468 -36.7304
   -36.7011 -36.7003 -36.6947 -36.6943 -36.6850 -36.6850 -36.6790 -36.6790
     8.5156   9.0910   9.1804   9.1895   9.3070   9.3950   9.4367   9.4367
     9.5514   9.5514   9.6381   9.7298   9.7298  10.0171  10.0205  10.0205
    10.0779  10.4412  10.4412  10.5267  10.6321  10.7128  10.8107  11.1716
    11.1717  11.2488  11.2488  11.4423  11.4423  11.4844  11.8294  11.8295
    11.8430  11.8600  11.9043  11.9377  12.0407  12.0407  12.2774  12.3216
    12.7922  12.8560  13.9765  13.9765  14.9284  14.9284  17.2031  18.1831
    18.1831  18.4153  18.8621  18.8621  19.9383  20.4831

          k = 0.1456 0.1456-0.4368 ( 11316 PWs)   bands (ev):

   -71.0729 -71.0729 -71.0569 -71.0568 -71.0568 -71.0567 -71.0410 -71.0410
   -36.8871 -36.8871 -36.8871 -36.8871 -36.8680 -36.8680 -36.8674 -36.8674
   -36.8017 -36.8016 -36.7839 -36.7838 -36.7838 -36.7838 -36.7670 -36.7670
   -36.6979 -36.6979 -36.6973 -36.6973 -36.6820 -36.6820 -36.6820 -36.6820
     8.8224   8.8224   9.2428   9.2428   9.2918   9.2918   9.6171   9.6171
     9.6171   9.6171   9.7617   9.7617   9.7617   9.7617  10.1279  10.1279
    10.3070  10.3070  10.3788  10.3788  10.9541  10.9542  10.9542  10.9542
    11.2091  11.2091  11.2091  11.2092  11.2594  11.2594  11.6903  11.6903
    11.8034  11.8034  11.8635  11.8635  11.8635  11.8635  12.2990  12.2990
    12.8270  12.8270  14.4250  14.4250  14.4250  14.4250  17.7771  17.7771
    18.5222  18.5222  18.5222  18.5222  20.6590  20.6590

          k = 0.1456 0.2427 0.2427 ( 11326 PWs)   bands (ev):

   -71.0768 -71.0649 -71.0648 -71.0607 -71.0530 -71.0489 -71.0488 -71.0372
   -36.8918 -36.8774 -36.8773 -36.8699 -36.8699 -36.8631 -36.8565 -36.8548
   -36.8509 -36.8509 -36.8380 -36.8364 -36.7293 -36.7273 -36.7162 -36.7162
   -36.7129 -36.7115 -36.7013 -36.7004 -36.7004 -36.6898 -36.6897 -36.6783
     8.4564   9.2583   9.2623   9.2623   9.3448   9.3956   9.3956   9.3986
     9.5437   9.6519   9.6519   9.7291   9.7455   9.8406   9.8979   9.9772
    10.1145  10.1145  10.4494  10.6106  10.6106  10.9745  11.0043  11.0043
    11.1492  11.1493  11.2735  11.2735  11.3744  11.4013  11.9618  12.0007
    12.0711  12.1012  12.1327  12.1900  12.1900  12.2452  12.3496  12.3496
    12.6173  12.6529  12.6529  13.9035  14.6002  15.9038  15.9038  18.1252
    18.2694  19.2719  19.2719  19.4761  19.4761  19.9549

          k = 0.1456 0.2427 0.3397 ( 11311 PWs)   bands (ev):

   -71.0740 -71.0676 -71.0620 -71.0579 -71.0557 -71.0516 -71.0461 -71.0399
   -36.8884 -36.8807 -36.8740 -36.8666 -36.8665 -36.8590 -36.8476 -36.8405
   -36.8368 -36.8232 -36.8186 -36.8054 -36.7617 -36.7490 -36.7447 -36.7326
   -36.7254 -36.7190 -36.7093 -36.7031 -36.6986 -36.6924 -36.6871 -36.6810
     8.7533   9.2427   9.3436   9.3499   9.4665   9.4904   9.5155   9.5211
     9.5286   9.6987   9.7003   9.8456   9.9454  10.0206  10.0271  10.0370
    10.2034  10.4674  10.4851  10.4907  10.5232  10.7166  10.8901  10.9142
    10.9640  11.2227  11.2881  11.3205  11.3841  11.4369  11.7276  11.7669
    11.7912  11.8810  11.8951  11.9466  11.9822  12.0153  12.1404  12.2054
    12.4069  12.5137  12.9843  13.8866  14.3070  15.2681  16.3697  17.5400
    18.4399  19.2134  19.6050  20.0341  20.2028  20.7585

          k = 0.1456 0.2427-0.4368 ( 11324 PWs)   bands (ev):

   -71.0708 -71.0708 -71.0589 -71.0589 -71.0548 -71.0548 -71.0430 -71.0430
   -36.8846 -36.8846 -36.8702 -36.8702 -36.8629 -36.8629 -36.8441 -36.8441
   -36.7994 -36.7994 -36.7862 -36.7862 -36.7817 -36.7817 -36.7691 -36.7691
   -36.7222 -36.7222 -36.7062 -36.7062 -36.6957 -36.6957 -36.6840 -36.6840
     9.0240   9.0240   9.4320   9.4320   9.4344   9.4344   9.5395   9.5395
     9.7570   9.7570   9.8335   9.8335   9.9606   9.9606  10.1477  10.1477
    10.2931  10.2931  10.4779  10.4779  10.8749  10.8749  10.9205  10.9205
    10.9486  10.9486  11.2083  11.2083  11.3226  11.3226  11.6150  11.6150
    11.7475  11.7475  11.8313  11.8313  11.8315  11.8315  12.1663  12.1663
    12.4587  12.4587  13.3748  13.3748  14.7533  14.7533  16.9143  16.9143
    18.8213  18.8213  19.9660  19.9660  20.6818  20.6819

          k = 0.1456 0.3397 0.3397 ( 11326 PWs)   bands (ev):

   -71.0712 -71.0649 -71.0648 -71.0585 -71.0552 -71.0489 -71.0488 -71.0426
   -36.8850 -36.8774 -36.8773 -36.8698 -36.8337 -36.8337 -36.8278 -36.8251
   -36.8156 -36.8156 -36.8097 -36.8074 -36.7600 -36.7573 -36.7519 -36.7519
   -36.7430 -36.7408 -36.7355 -36.7355 -36.6959 -36.6898 -36.6897 -36.6837
     8.9949   9.3443   9.3444   9.5186   9.5553   9.5553   9.5975   9.6130
     9.7724   9.8539   9.8539   9.8555   9.9580  10.0830  10.1831  10.4017
    10.4036  10.4036  10.4594  10.4594  10.6066  10.6842  10.6843  10.7170
    10.9852  10.9853  11.1079  11.4337  11.4337  11.4655  11.5215  11.6559
    11.6725  11.7319  11.9402  11.9402  11.9605  11.9606  11.9751  11.9767
    12.1914  12.2583  12.2583  13.0812  14.7070  15.7024  15.7024  16.8157
    18.7997  19.6890  19.6890  20.8377  21.1174  21.1175

          k = 0.1456 0.3397-0.4368 ( 11310 PWs)   bands (ev):

   -71.0680 -71.0680 -71.0617 -71.0617 -71.0520 -71.0520 -71.0458 -71.0458
   -36.8812 -36.8812 -36.8735 -36.8735 -36.8301 -36.8301 -36.8120 -36.8120
   -36.7963 -36.7963 -36.7893 -36.7893 -36.7788 -36.7788 -36.7720 -36.7719
   -36.7553 -36.7553 -36.7387 -36.7387 -36.6929 -36.6929 -36.6867 -36.6867
     9.1888   9.1888   9.4384   9.4384   9.6119   9.6120   9.7512   9.7512
     9.7873   9.7873   9.9056   9.9056  10.2049  10.2049  10.2840  10.2840
    10.3322  10.3322  10.6259  10.6259  10.6624  10.6624  10.7212  10.7212
    10.8925  10.8925  11.0972  11.0972  11.4593  11.4593  11.5534  11.5534
    11.6641  11.6641  11.7904  11.7904  11.8715  11.8715  12.0249  12.0249
    12.0258  12.0258  12.5586  12.5586  15.1640  15.1640  16.2140  16.2140
    19.2335  19.2335  20.2464  20.2464  21.4362  21.4362

          k = 0.1456-0.4368-0.4368 ( 11336 PWs)   bands (ev):

   -71.0649 -71.0649 -71.0648 -71.0648 -71.0490 -71.0490 -71.0489 -71.0488
   -36.8774 -36.8774 -36.8774 -36.8774 -36.7944 -36.7943 -36.7943 -36.7943
   -36.7914 -36.7914 -36.7913 -36.7913 -36.7768 -36.7768 -36.7767 -36.7767
   -36.7742 -36.7741 -36.7741 -36.7741 -36.6899 -36.6899 -36.6898 -36.6898
     9.3208   9.3208   9.3208   9.3209   9.7510   9.7510   9.7510   9.7510
     9.9275   9.9275   9.9275   9.9275  10.3511  10.3511  10.3511  10.3511
    10.4415  10.4415  10.4415  10.4415  10.7738  10.7738  10.7738  10.7738
    10.8484  10.8484  10.8484  10.8484  11.5359  11.5359  11.5359  11.5359
    11.7232  11.7232  11.7232  11.7233  11.8074  11.8074  11.8075  11.8075
    12.1115  12.1115  12.1115  12.1115  15.6440  15.6440  15.6440  15.6440
    19.7246  19.7246  19.7246  19.7246  22.6526  22.6526

          k = 0.2427 0.2427 0.2427 ( 11302 PWs)   bands (ev):

   -71.0747 -71.0628 -71.0628 -71.0626 -71.0510 -71.0510 -71.0508 -71.0392
   -36.8674 -36.8674 -36.8674 -36.8542 -36.8542 -36.8541 -36.8525 -36.8524
   -36.8524 -36.8413 -36.8387 -36.8387 -36.7280 -36.7253 -36.7253 -36.7149
   -36.7149 -36.7148 -36.7135 -36.7134 -36.7134 -36.7024 -36.7024 -36.7024
     8.7200   9.4034   9.4034   9.4034   9.4368   9.4368   9.6119   9.6797
     9.6797   9.6797   9.7175   9.7175   9.7175  10.0012  10.0012  10.0502
    10.0502  10.0502  10.5282  10.5282  10.5282  11.1055  11.1055  11.1056
    11.1156  11.1157  11.1157  11.1288  11.1288  11.1288  11.9705  11.9705
    12.0014  12.0428  12.0428  12.0428  12.0657  12.0658  12.0658  12.2253
    12.2253  12.9434  12.9434  12.9434  14.9522  14.9523  14.9523  17.3436
    19.5363  19.5363  19.5363  20.3914  20.3914  20.3914

          k = 0.2427 0.2427 0.3397 ( 11332 PWs)   bands (ev):

   -71.0719 -71.0656 -71.0600 -71.0599 -71.0537 -71.0536 -71.0482 -71.0419
   -36.8641 -36.8641 -36.8567 -36.8567 -36.8511 -36.8493 -36.8438 -36.8421
   -36.8345 -36.8210 -36.8210 -36.8077 -36.7595 -36.7470 -36.7469 -36.7347
   -36.7241 -36.7225 -36.7177 -36.7162 -36.7114 -36.7114 -36.7051 -36.7051
     9.0188   9.4784   9.4896   9.5120   9.5934   9.5934   9.6164   9.6178
     9.7512   9.7548   9.7548   9.9730   9.9730   9.9773   9.9773  10.1323
    10.2296  10.4016  10.4755  10.5115  10.5115  10.8197  10.8849  11.0533
    11.0534  11.0763  11.0763  11.1789  11.1790  11.3072  11.7114  11.7269
    11.7269  11.7600  11.8601  11.8601  11.8723  11.9735  12.0161  12.1180
    12.1969  12.2687  13.2821  13.2821  14.2224  14.2224  15.4037  16.5761
    19.8952  19.8952  20.5900  20.5900  20.9873  21.0470

          k = 0.2427 0.2427-0.4368 ( 11334 PWs)   bands (ev):

   -71.0687 -71.0687 -71.0569 -71.0569 -71.0568 -71.0568 -71.0451 -71.0451
   -36.8604 -36.8604 -36.8604 -36.8604 -36.8474 -36.8474 -36.8457 -36.8457
   -36.7971 -36.7971 -36.7841 -36.7840 -36.7840 -36.7839 -36.7713 -36.7713
   -36.7209 -36.7209 -36.7194 -36.7194 -36.7083 -36.7083 -36.7083 -36.7083
     9.2832   9.2832   9.5520   9.5520   9.5575   9.5575   9.7623   9.7623
     9.7623   9.7623   9.9430   9.9430   9.9430   9.9430  10.1693  10.1693
    10.3498  10.3498  10.5100  10.5100  10.8658  10.8658  10.8658  10.8658
    11.0627  11.0627  11.0627  11.0628  11.1720  11.1720  11.5297  11.5297
    11.6923  11.6923  11.6923  11.6923  11.8446  11.8446  12.0662  12.0662
    12.1611  12.1611  13.6893  13.6893  13.6893  13.6893  15.9401  15.9401
    20.2939  20.2939  20.2939  20.2939  21.6955  21.6955

          k = 0.2427 0.3397 0.3397 ( 11339 PWs)   bands (ev):

   -71.0691 -71.0628 -71.0627 -71.0572 -71.0565 -71.0510 -71.0509 -71.0447
   -36.8609 -36.8535 -36.8534 -36.8461 -36.8314 -36.8314 -36.8255 -36.8229
   -36.8179 -36.8179 -36.8120 -36.8096 -36.7578 -36.7553 -36.7498 -36.7498
   -36.7451 -36.7430 -36.7376 -36.7376 -36.7204 -36.7142 -36.7141 -36.7079
     9.2829   9.6301   9.6301   9.6566   9.6566   9.6971   9.6982   9.7048
     9.8894   9.9019   9.9019   9.9246   9.9347  10.1220  10.2247  10.3362
    10.3362  10.3941  10.4662  10.4662  10.5839  10.8163  10.8163  10.8810
    10.9637  10.9638  11.0280  11.2095  11.2367  11.2367  11.5074  11.5705
    11.6275  11.6807  11.7491  11.7491  11.8022  11.8043  11.8044  11.8996
    11.9741  12.5028  12.5028  13.4095  13.6427  14.6487  14.6487  15.7918
    20.2897  21.1131  21.1131  21.4287  21.4287  21.6695

          k = 0.2427 0.3397-0.4368 ( 11324 PWs)   bands (ev):

   -71.0660 -71.0659 -71.0596 -71.0596 -71.0541 -71.0541 -71.0478 -71.0478
   -36.8572 -36.8572 -36.8498 -36.8498 -36.8278 -36.8278 -36.8144 -36.8144
   -36.7941 -36.7941 -36.7871 -36.7870 -36.7811 -36.7811 -36.7742 -36.7742
   -36.7531 -36.7531 -36.7408 -36.7408 -36.7173 -36.7173 -36.7110 -36.7110
     9.4766   9.4766   9.6997   9.6997   9.7039   9.7039   9.8214   9.8214
     9.8324   9.8324   9.9740   9.9740  10.2285  10.2285  10.2692  10.2692
    10.3771  10.3772  10.6214  10.6214  10.7229  10.7229  10.7874  10.7874
    10.8738  10.8738  11.0898  11.0898  11.2240  11.2240  11.4399  11.4399
    11.5665  11.5665  11.6262  11.6262  11.7556  11.7556  11.7933  11.7933
    12.1004  12.1004  12.8569  12.8569  14.0815  14.0815  15.1626  15.1626
    20.7376  20.7376  21.7194  21.7194  21.7943  21.7943

          k = 0.2427-0.4368-0.4368 ( 11340 PWs)   bands (ev):

   -71.0628 -71.0628 -71.0628 -71.0627 -71.0510 -71.0510 -71.0509 -71.0509
   -36.8535 -36.8535 -36.8534 -36.8534 -36.7921 -36.7920 -36.7920 -36.7920
   -36.7892 -36.7892 -36.7891 -36.7891 -36.7791 -36.7790 -36.7790 -36.7790
   -36.7764 -36.7764 -36.7763 -36.7763 -36.7143 -36.7143 -36.7142 -36.7142
     9.5988   9.5988   9.5988   9.5988   9.8108   9.8108   9.8108   9.8108
     9.9847   9.9847   9.9847   9.9848  10.4231  10.4232  10.4232  10.4232
    10.4594  10.4594  10.4594  10.4595  10.7422  10.7422  10.7423  10.7423
    10.8913  10.8913  10.8913  10.8913  11.3582  11.3583  11.3583  11.3583
    11.5586  11.5586  11.5586  11.5586  11.6295  11.6296  11.6296  11.6296
    12.3405  12.3405  12.3405  12.3405  14.5594  14.5594  14.5594  14.5594
    21.2476  21.2476  21.2476  21.2477  23.0525  23.0525

          k = 0.3397 0.3397 0.3397 ( 11335 PWs)   bands (ev):

   -71.0663 -71.0601 -71.0601 -71.0599 -71.0538 -71.0538 -71.0536 -71.0474
   -36.8283 -36.8283 -36.8283 -36.8225 -36.8225 -36.8224 -36.8199 -36.8199
   -36.8199 -36.8165 -36.8127 -36.8127 -36.7560 -36.7523 -36.7523 -36.7480
   -36.7480 -36.7480 -36.7458 -36.7457 -36.7457 -36.7404 -36.7404 -36.7404
     9.5710   9.7756   9.7756   9.7756   9.7775   9.8536   9.8536   9.8536
     9.9368   9.9368  10.0571  10.0571  10.0571  10.2759  10.2759  10.2759
    10.4205  10.4205  10.5064  10.5064  10.5064  10.8667  10.8667  10.8667
    10.9969  10.9969  10.9970  11.0914  11.0914  11.0914  11.4924  11.4924
    11.5044  11.5044  11.5044  11.5766  11.5766  11.6100  11.6100  11.6100
    12.0564  12.8084  12.8084  12.8084  13.8176  13.8176  13.8176  14.9649
    21.8452  21.8452  21.8452  22.2478  22.2478  22.2478

          k = 0.3397 0.3397-0.4368 ( 11360 PWs)   bands (ev):

   -71.0632 -71.0632 -71.0570 -71.0569 -71.0568 -71.0568 -71.0506 -71.0506
   -36.8247 -36.8247 -36.8247 -36.8247 -36.8190 -36.8190 -36.8164 -36.8164
   -36.7911 -36.7911 -36.7842 -36.7841 -36.7841 -36.7840 -36.7773 -36.7772
   -36.7514 -36.7514 -36.7491 -36.7491 -36.7437 -36.7437 -36.7436 -36.7436
     9.7422   9.7422   9.8047   9.8047   9.8607   9.8607   9.8607   9.8607
     9.9941   9.9941  10.2183  10.2183  10.2183  10.2183  10.2797  10.2797
    10.4678  10.4678  10.6471  10.6471  10.7077  10.7077  10.7077  10.7077
    11.0332  11.0332  11.0332  11.0332  11.0793  11.0793  11.3305  11.3305
    11.4462  11.4462  11.4462  11.4462  11.4857  11.4858  11.5589  11.5589
    12.2935  12.2935  13.2219  13.2219  13.2219  13.2219  14.3216  14.3217
    22.2769  22.2769  22.2769  22.2769  22.9464  22.9464

          k = 0.3397-0.4368-0.4368 ( 11324 PWs)   bands (ev):

   -71.0601 -71.0601 -71.0600 -71.0600 -71.0538 -71.0538 -71.0537 -71.0537
   -36.8213 -36.8213 -36.8212 -36.8212 -36.7890 -36.7890 -36.7889 -36.7889
   -36.7862 -36.7861 -36.7861 -36.7861 -36.7820 -36.7819 -36.7819 -36.7819
   -36.7793 -36.7793 -36.7792 -36.7792 -36.7470 -36.7470 -36.7469 -36.7469
     9.8394   9.8394   9.8394   9.8394   9.8692   9.8692   9.8692   9.8692
    10.1672  10.1672  10.1672  10.1672  10.4771  10.4771  10.4771  10.4771
    10.4794  10.4794  10.4794  10.4794  10.6800  10.6800  10.6800  10.6800
    11.0002  11.0002  11.0002  11.0002  11.2187  11.2187  11.2187  11.2187
    11.3347  11.3347  11.3348  11.3348  11.4080  11.4080  11.4080  11.4080
    12.6373  12.6373  12.6373  12.6373  13.6905  13.6905  13.6905  13.6905
    22.8110  22.8110  22.8110  22.8110  23.6098  23.6099

          k =-0.4368-0.4368-0.4368 ( 11296 PWs)   bands (ev):

   -71.0570 -71.0570 -71.0570 -71.0569 -71.0569 -71.0569 -71.0567 -71.0567
   -36.7869 -36.7869 -36.7869 -36.7869 -36.7869 -36.7868 -36.7868 -36.7868
   -36.7827 -36.7827 -36.7827 -36.7827 -36.7827 -36.7827 -36.7827 -36.7827
   -36.7827 -36.7827 -36.7826 -36.7826 -36.7826 -36.7826 -36.7826 -36.7826
     9.8938   9.8938   9.8938   9.8938   9.8938   9.8938   9.8938   9.8938
    10.4911  10.4911  10.4911  10.4911  10.4911  10.4911  10.4911  10.4911
    10.4911  10.4911  10.4911  10.4911  10.4911  10.4911  10.4912  10.4912
    11.1837  11.1837  11.1837  11.1837  11.1837  11.1837  11.1837  11.1837
    11.1837  11.1837  11.1837  11.1838  11.1838  11.1838  11.1838  11.1838
    13.0624  13.0625  13.0625  13.0625  13.0625  13.0625  13.0625  13.0625
    24.2899  24.2899  24.2899  24.2899  24.2899  24.2899

     the Fermi energy is    12.4878 ev

!    total energy              =   -4095.84021461 Ry

     total all-electron energy =    -80736.053641 Ry
     estimated scf accuracy    <       0.00000035 Ry
     smearing contrib. (-TS)   =       0.05762888 Ry
     internal energy E=F+TS    =   -4095.89784349 Ry

     The total energy is F=E-TS. E is the sum of the following terms:
     one-electron contribution =    -926.47450690 Ry
     hartree contribution      =     534.53058462 Ry
     xc contribution           =    -245.83858051 Ry
     ewald contribution        =   -1416.31926726 Ry
     one-center paw contrib.   =   -2041.79607344 Ry

     convergence has been achieved in  14 iterations

     Forces acting on atoms (cartesian axes, Ry/au):

     atom    1 type  1   force =     0.00000000    0.00000000    0.00000000
     atom    2 type  1   force =     0.00000000    0.00000000    0.00000000
     atom    3 type  1   force =     0.00000000    0.00000000    0.00000000
     atom    4 type  1   force =     0.00000000    0.00000000    0.00000000
     atom    5 type  1   force =     0.00000000    0.00000000    0.00000000
     atom    6 type  1   force =     0.00000000    0.00000000    0.00000000
     atom    7 type  1   force =     0.00000000    0.00000000    0.00000000
     atom    8 type  1   force =     0.00000000    0.00000000    0.00000000

     Total force =     0.000000     Total SCF correction =     0.000000


     Computing stress (Cartesian axis) and pressure

          total   stress  (Ry/bohr**3)                   (kbar)     P=     -140.26
  -0.00095348   0.00000000   0.00000000         -140.26        0.00        0.00
   0.00000000  -0.00095348   0.00000000            0.00     -140.26        0.00
   0.00000000   0.00000000  -0.00095348            0.00        0.00     -140.26


     Writing output data file /scratch/mKrNRjXhGrhsVIDD.save/
 
     init_run     :      1.25s CPU      1.36s WALL (       1 calls)
     electrons    :     48.79s CPU     50.40s WALL (       1 calls)
     forces       :      0.44s CPU      0.45s WALL (       1 calls)
     stress       :      0.56s CPU      0.57s WALL (       1 calls)

     Called by init_run:
     wfcinit      :      0.83s CPU      0.85s WALL (       1 calls)
     potinit      :      0.11s CPU      0.13s WALL (       1 calls)
     hinit0       :      0.05s CPU      0.05s WALL (       1 calls)

     Called by electrons:
     c_bands      :     42.24s CPU     43.34s WALL (      15 calls)
     sum_band     :      5.59s CPU      6.02s WALL (      15 calls)
     v_of_rho     :      0.09s CPU      0.09s WALL (      15 calls)
     newd         :      0.12s CPU      0.13s WALL (      15 calls)
     PAW_pot      :      0.75s CPU      0.79s WALL (      15 calls)
     mix_rho      :      0.03s CPU      0.04s WALL (      15 calls)

     Called by c_bands:
     init_us_2    :      0.11s CPU      0.12s WALL (    1155 calls)
     cegterg      :     41.47s CPU     42.53s WALL (     525 calls)

     Called by *egterg:
     cdiaghg      :      7.72s CPU      7.79s WALL (    1575 calls)
     h_psi        :     22.58s CPU     23.41s WALL (    1645 calls)
     s_psi        :      0.42s CPU      0.43s WALL (    1645 calls)
     g_psi        :      0.04s CPU      0.04s WALL (    1085 calls)

     Called by h_psi:
     h_psi:calbec :      2.33s CPU      2.37s WALL (    1645 calls)
     vloc_psi     :     19.57s CPU     20.35s WALL (    1645 calls)
     add_vuspsi   :      0.61s CPU      0.61s WALL (    1645 calls)

     General routines
     calbec       :      3.47s CPU      3.53s WALL (    2345 calls)
     fft          :      0.13s CPU      0.13s WALL (     219 calls)
     ffts         :      0.01s CPU      0.01s WALL (      30 calls)
     fftw         :     23.09s CPU     24.22s WALL (  265956 calls)
     interpolate  :      0.02s CPU      0.02s WALL (      15 calls)
 
     Parallel routines
     fft_scatt_xy :      1.44s CPU      1.50s WALL (  266205 calls)
     fft_scatt_yz :     19.35s CPU     20.34s WALL (  266205 calls)
 
     PWSCF        :     55.06s CPU     57.26s WALL

 
   This run was terminated on:   3:43:46  30Nov2021            

=------------------------------------------------------------------------------=
   JOB DONE.
=------------------------------------------------------------------------------=
