
     Program PWSCF v.6.7MaX starts on 30Nov2021 at  3:44:56 

     This program is part of the open-source Quantum ESPRESSO suite
     for quantum simulation of materials; please cite
         "P. Giannozzi et al., J. Phys.:Condens. Matter 21 395502 (2009);
         "P. Giannozzi et al., J. Phys.:Condens. Matter 29 465901 (2017);
          URL http://www.quantum-espresso.org", 
     in publications or presentations arising from this work. More details at
     http://www.quantum-espresso.org/quote

     Parallel version (MPI & OpenMP), running on      72 processor cores
     Number of MPI processes:                72
     Threads/MPI process:                     1

     MPI processes distributed on     1 nodes
     R & G space division:  proc/nbgrp/npool/nimage =      72
     Reading input from sc_9.in
Warning: card &CELL ignored
Warning: card CELL_DYNAMICS = 'BFGS', ignored
Warning: card CELL_FACTOR = 2.0, ignored
Warning: card PRESS = 0.0, ignored
Warning: card / ignored

     Current dimensions of program PWSCF are:
     Max number of different atomic species (ntypx) = 10
     Max number of k-points (npk) =  40000
     Max angular momentum in pseudopotentials (lmaxx) =  3
     file Pd.pbe-spn-kjpaw_psl.1.0.0.UPF: wavefunction(s)  4S 5S 4D renormalized

     Subspace diagonalization in iterative solution of the eigenvalue problem:
     one sub-group per band group will be used
     ELPA distributed-memory algorithm (size of sub-group:  8*  8 procs)

     Found symmetry operation: I + (  0.0000  0.0000 -0.5000)
     This is a supercell, fractional translations are disabled
     Message from routine setup:
     using ibrav=0 with symmetry is DISCOURAGED, use correct ibrav instead
 
     Parallelization info
     --------------------
     sticks:   dense  smooth     PW     G-vecs:    dense   smooth      PW
     Min          63      42     11                 3245     1734     251
     Max          64      43     12                 3250     1742     258
     Sum        4597    3025    845               233817   125183   18349
 


     bravais-lattice index     =            0
     lattice parameter (alat)  =       9.0720  a.u.
     unit-cell volume          =    1552.3282 (a.u.)^3
     number of atoms/cell      =            8
     number of atomic types    =            1
     number of electrons       =       144.00
     number of Kohn-Sham states=           86
     kinetic-energy cutoff     =      71.0000  Ry
     charge density cutoff     =     430.0000  Ry
     scf convergence threshold =      1.0E-06
     mixing beta               =       0.1000
     number of iterations used =           10  TF        mixing
     Exchange-correlation= SLA  PW   PBX  PBC
                           (   1   4   3   4   0   0   0)

     celldm(1)=   9.072000  celldm(2)=   0.000000  celldm(3)=   0.000000
     celldm(4)=   0.000000  celldm(5)=   0.000000  celldm(6)=   0.000000

     crystal axes: (cart. coord. in units of alat)
               a(1) = (   1.276316   0.000000   0.000000 )  
               a(2) = (   0.000000   1.276316   0.000000 )  
               a(3) = (   0.000000   0.000000   1.276316 )  

     reciprocal axes: (cart. coord. in units 2 pi/alat)
               b(1) = (  0.783505  0.000000  0.000000 )  
               b(2) = (  0.000000  0.783505  0.000000 )  
               b(3) = (  0.000000  0.000000  0.783505 )  


     PseudoPot. # 1 for Pd read from file:
     /rds/homes/b/bxp912/pp/Pd.pbe-spn-kjpaw_psl.1.0.0.UPF
     MD5 check sum: 790f2ebce206edfd9790dcb9844eca51
     Pseudo is Projector augmented-wave + core cor, Zval = 18.0
     Generated using &quot;atomic&quot; code by A. Dal Corso  v.6.3
     Shape of augmentation charge: PSQ
     Using radial grid of 1235 points,  6 beta functions with: 
                l(1) =   0
                l(2) =   0
                l(3) =   1
                l(4) =   1
                l(5) =   2
                l(6) =   2
     Q(r) pseudized with 0 coefficients 


     atomic species   valence    mass     pseudopotential
        Pd            18.00   106.42000     Pd( 1.00)

     48 Sym. Ops., with inversion, found



   Cartesian axes

     site n.     atom                  positions (alat units)
         1           Pd  tau(   1) = (   0.0000000   0.0000000   0.0000000  )
         2           Pd  tau(   2) = (   0.0000000   0.0000000   0.6381579  )
         3           Pd  tau(   3) = (   0.0000000   0.6381579   0.0000000  )
         4           Pd  tau(   4) = (   0.0000000   0.6381579   0.6381579  )
         5           Pd  tau(   5) = (   0.6381579   0.0000000   0.0000000  )
         6           Pd  tau(   6) = (   0.6381579   0.0000000   0.6381579  )
         7           Pd  tau(   7) = (   0.6381579   0.6381579   0.0000000  )
         8           Pd  tau(   8) = (   0.6381579   0.6381579   0.6381579  )

     number of k points=    35  Marzari-Vanderbilt smearing, width (Ry)=  0.0400
                       cart. coord. in units 2pi/alat
        k(    1) = (   0.0435281   0.0435281   0.0435281), wk =   0.0219479
        k(    2) = (   0.0435281   0.0435281   0.1305842), wk =   0.0658436
        k(    3) = (   0.0435281   0.0435281   0.2176403), wk =   0.0658436
        k(    4) = (   0.0435281   0.0435281   0.3046964), wk =   0.0658436
        k(    5) = (   0.0435281   0.0435281  -0.3917526), wk =   0.0329218
        k(    6) = (   0.0435281   0.1305842   0.1305842), wk =   0.0658436
        k(    7) = (   0.0435281   0.1305842   0.2176403), wk =   0.1316872
        k(    8) = (   0.0435281   0.1305842   0.3046964), wk =   0.1316872
        k(    9) = (   0.0435281   0.1305842  -0.3917526), wk =   0.0658436
        k(   10) = (   0.0435281   0.2176403   0.2176403), wk =   0.0658436
        k(   11) = (   0.0435281   0.2176403   0.3046964), wk =   0.1316872
        k(   12) = (   0.0435281   0.2176403  -0.3917526), wk =   0.0658436
        k(   13) = (   0.0435281   0.3046964   0.3046964), wk =   0.0658436
        k(   14) = (   0.0435281   0.3046964  -0.3917526), wk =   0.0658436
        k(   15) = (   0.0435281  -0.3917526  -0.3917526), wk =   0.0164609
        k(   16) = (   0.1305842   0.1305842   0.1305842), wk =   0.0219479
        k(   17) = (   0.1305842   0.1305842   0.2176403), wk =   0.0658436
        k(   18) = (   0.1305842   0.1305842   0.3046964), wk =   0.0658436
        k(   19) = (   0.1305842   0.1305842  -0.3917526), wk =   0.0329218
        k(   20) = (   0.1305842   0.2176403   0.2176403), wk =   0.0658436
        k(   21) = (   0.1305842   0.2176403   0.3046964), wk =   0.1316872
        k(   22) = (   0.1305842   0.2176403  -0.3917526), wk =   0.0658436
        k(   23) = (   0.1305842   0.3046964   0.3046964), wk =   0.0658436
        k(   24) = (   0.1305842   0.3046964  -0.3917526), wk =   0.0658436
        k(   25) = (   0.1305842  -0.3917526  -0.3917526), wk =   0.0164609
        k(   26) = (   0.2176403   0.2176403   0.2176403), wk =   0.0219479
        k(   27) = (   0.2176403   0.2176403   0.3046964), wk =   0.0658436
        k(   28) = (   0.2176403   0.2176403  -0.3917526), wk =   0.0329218
        k(   29) = (   0.2176403   0.3046964   0.3046964), wk =   0.0658436
        k(   30) = (   0.2176403   0.3046964  -0.3917526), wk =   0.0658436
        k(   31) = (   0.2176403  -0.3917526  -0.3917526), wk =   0.0164609
        k(   32) = (   0.3046964   0.3046964   0.3046964), wk =   0.0219479
        k(   33) = (   0.3046964   0.3046964  -0.3917526), wk =   0.0329218
        k(   34) = (   0.3046964  -0.3917526  -0.3917526), wk =   0.0164609
        k(   35) = (  -0.3917526  -0.3917526  -0.3917526), wk =   0.0027435

     Dense  grid:   233817 G-vectors     FFT dimensions: (  80,  80,  80)

     Smooth grid:   125183 G-vectors     FFT dimensions: (  64,  64,  64)

     Estimated max dynamical RAM per process >      25.17 MB

     Estimated total dynamical RAM >       1.77 GB

     Check: negative core charge=   -0.000001

     Initial potential from superposition of free atoms

     starting charge  143.99694, renormalised to  144.00000
     Starting wfcs are   80 randomized atomic wfcs +    6 random wfcs
     Checking if some PAW data can be deallocated... 

     total cpu time spent up to now is        4.0 secs

     Self-consistent Calculation

     iteration #  1     ecut=    71.00 Ry     beta= 0.10
     Davidson diagonalization with overlap
     ethr =  1.00E-02,  avg # of iterations =  3.7

     total cpu time spent up to now is        7.9 secs

     total energy              =   -4095.65737423 Ry
     estimated scf accuracy    <       2.14835893 Ry

     iteration #  2     ecut=    71.00 Ry     beta= 0.10
     Davidson diagonalization with overlap
     ethr =  1.49E-03,  avg # of iterations =  1.0

     total cpu time spent up to now is       10.5 secs

     total energy              =   -4095.18112598 Ry
     estimated scf accuracy    <       1.38829270 Ry

     iteration #  3     ecut=    71.00 Ry     beta= 0.10
     Davidson diagonalization with overlap
     ethr =  9.64E-04,  avg # of iterations =  2.0

     total cpu time spent up to now is       14.9 secs

     total energy              =   -4095.37280143 Ry
     estimated scf accuracy    <       0.05841062 Ry

     iteration #  4     ecut=    71.00 Ry     beta= 0.10
     Davidson diagonalization with overlap
     ethr =  4.06E-05,  avg # of iterations =  2.6

     total cpu time spent up to now is       17.9 secs

     total energy              =   -4095.37168803 Ry
     estimated scf accuracy    <       0.03068165 Ry

     iteration #  5     ecut=    71.00 Ry     beta= 0.10
     Davidson diagonalization with overlap
     ethr =  2.13E-05,  avg # of iterations =  1.0

     total cpu time spent up to now is       20.4 secs

     total energy              =   -4095.36149614 Ry
     estimated scf accuracy    <       0.02334590 Ry

     iteration #  6     ecut=    71.00 Ry     beta= 0.10
     Davidson diagonalization with overlap
     ethr =  1.62E-05,  avg # of iterations =  2.0

     total cpu time spent up to now is       23.9 secs

     total energy              =   -4095.36378643 Ry
     estimated scf accuracy    <       0.00367809 Ry

     iteration #  7     ecut=    71.00 Ry     beta= 0.10
     Davidson diagonalization with overlap
     ethr =  2.55E-06,  avg # of iterations =  1.8

     total cpu time spent up to now is       26.8 secs

     total energy              =   -4095.36539197 Ry
     estimated scf accuracy    <       0.00297415 Ry

     iteration #  8     ecut=    71.00 Ry     beta= 0.10
     Davidson diagonalization with overlap
     ethr =  2.07E-06,  avg # of iterations =  2.0

     total cpu time spent up to now is       31.6 secs

     total energy              =   -4095.36491720 Ry
     estimated scf accuracy    <       0.00216894 Ry

     iteration #  9     ecut=    71.00 Ry     beta= 0.10
     Davidson diagonalization with overlap
     ethr =  1.51E-06,  avg # of iterations =  1.9

     total cpu time spent up to now is       35.1 secs

     total energy              =   -4095.36515811 Ry
     estimated scf accuracy    <       0.00025151 Ry

     iteration # 10     ecut=    71.00 Ry     beta= 0.10
     Davidson diagonalization with overlap
     ethr =  1.75E-07,  avg # of iterations =  2.0

     total cpu time spent up to now is       38.5 secs

     total energy              =   -4095.36530277 Ry
     estimated scf accuracy    <       0.00012191 Ry

     iteration # 11     ecut=    71.00 Ry     beta= 0.10
     Davidson diagonalization with overlap
     ethr =  8.47E-08,  avg # of iterations =  2.6

     total cpu time spent up to now is       42.7 secs

     total energy              =   -4095.36523404 Ry
     estimated scf accuracy    <       0.00049540 Ry

     iteration # 12     ecut=    71.00 Ry     beta= 0.10
     Davidson diagonalization with overlap
     ethr =  8.47E-08,  avg # of iterations =  2.5

     total cpu time spent up to now is       47.3 secs

     total energy              =   -4095.36533866 Ry
     estimated scf accuracy    <       0.00003699 Ry

     iteration # 13     ecut=    71.00 Ry     beta= 0.10
     Davidson diagonalization with overlap
     ethr =  2.57E-08,  avg # of iterations =  2.0

     total cpu time spent up to now is       51.7 secs

     total energy              =   -4095.36535198 Ry
     estimated scf accuracy    <       0.00001903 Ry

     iteration # 14     ecut=    71.00 Ry     beta= 0.10
     Davidson diagonalization with overlap
     ethr =  1.32E-08,  avg # of iterations =  2.0

     total cpu time spent up to now is       55.4 secs

     total energy              =   -4095.36535286 Ry
     estimated scf accuracy    <       0.00000709 Ry

     iteration # 15     ecut=    71.00 Ry     beta= 0.10
     Davidson diagonalization with overlap
     ethr =  4.92E-09,  avg # of iterations =  2.0

     total cpu time spent up to now is       58.7 secs

     End of self-consistent calculation

          k = 0.0435 0.0435 0.0435 ( 15651 PWs)   bands (ev):

   -75.5929 -75.5891 -75.5890 -75.5890 -75.5853 -75.5852 -75.5852 -75.5815
   -41.3614 -41.3614 -41.3614 -41.3559 -41.3558 -41.3558 -41.3558 -41.3558
   -41.3558 -41.3500 -41.3497 -41.3497 -41.2981 -41.2981 -41.2981 -41.2935
   -41.2935 -41.2935 -41.2934 -41.2934 -41.2934 -41.2888 -41.2888 -41.2888
     4.0304   5.1504   5.1504   5.1982   5.1982   5.1982   5.3450   5.3450
     5.3450   5.3580   5.3580   5.3580   5.5538   5.5639   5.5639   5.6245
     5.6245   5.6245   6.5433   6.5433   6.5433   6.5632   6.5632   6.5632
     6.6753   6.6753   6.6753   6.6766   6.6766   6.6766   7.2160   7.2183
     7.2183   7.2775   7.2775   7.2775   7.6954   7.6954   7.6954   7.7436
     7.7436   8.7931   8.7931   8.7931  10.3348  10.3348  10.3348  11.9570
    11.9570  11.9570  12.3212  12.3212  12.3212  14.3810

          k = 0.0435 0.0435 0.1306 ( 15682 PWs)   bands (ev):

   -75.5927 -75.5893 -75.5889 -75.5888 -75.5855 -75.5854 -75.5850 -75.5817
   -41.3610 -41.3610 -41.3577 -41.3561 -41.3561 -41.3555 -41.3555 -41.3520
   -41.3520 -41.3503 -41.3502 -41.3464 -41.3020 -41.2979 -41.2979 -41.2972
   -41.2972 -41.2938 -41.2937 -41.2932 -41.2932 -41.2926 -41.2891 -41.2891
     4.1378   5.1625   5.2124   5.2188   5.2540   5.2540   5.2930   5.3451
     5.3692   5.3692   5.4704   5.4704   5.5350   5.6077   5.6077   5.6137
     5.6178   5.7327   6.4120   6.4120   6.5656   6.5656   6.5771   6.5885
     6.5898   6.5996   6.6687   6.6687   6.7095   6.7095   7.1739   7.1752
     7.2213   7.2387   7.2387   7.2738   7.5423   7.5423   7.5917   7.6991
     7.7410   8.0054   8.9727   8.9727  10.3921  10.3921  11.3077  11.3700
    11.3700  12.1143  12.2262  12.2262  12.4936  14.4329

          k = 0.0435 0.0435 0.2176 ( 15685 PWs)   bands (ev):

   -75.5922 -75.5897 -75.5884 -75.5884 -75.5859 -75.5859 -75.5846 -75.5821
   -41.3604 -41.3604 -41.3567 -41.3567 -41.3548 -41.3548 -41.3509 -41.3509
   -41.3504 -41.3449 -41.3449 -41.3393 -41.3093 -41.3043 -41.3043 -41.2997
   -41.2974 -41.2974 -41.2943 -41.2943 -41.2927 -41.2927 -41.2897 -41.2897
     4.3368   5.1855   5.1911   5.2580   5.3209   5.3468   5.3633   5.3633
     5.3993   5.3993   5.4927   5.5763   5.5763   5.7034   5.7034   5.7180
     5.7223   5.9412   6.1975   6.1975   6.4357   6.4368   6.5785   6.5785
     6.6317   6.6552   6.6552   6.6690   6.7726   6.7726   7.0954   7.0956
     7.1669   7.1669   7.2270   7.2280   7.2524   7.2525   7.2673   7.3167
     7.7054   7.7360   9.2692   9.2692  10.5170  10.5170  10.8174  10.8174
    11.8689  11.8689  12.4058  12.4710  12.8171  14.5399

          k = 0.0435 0.0435 0.3047 ( 15701 PWs)   bands (ev):

   -75.5916 -75.5903 -75.5878 -75.5878 -75.5865 -75.5865 -75.5840 -75.5827
   -41.3596 -41.3596 -41.3576 -41.3576 -41.3540 -41.3540 -41.3519 -41.3518
   -41.3409 -41.3354 -41.3353 -41.3302 -41.3189 -41.3138 -41.3138 -41.3090
   -41.2967 -41.2967 -41.2950 -41.2950 -41.2920 -41.2920 -41.2903 -41.2903
     4.5891   5.0401   5.2166   5.2887   5.3115   5.4364   5.4399   5.4399
     5.5179   5.5179   5.5384   5.5384   5.5808   5.8661   5.8705   5.9417
     5.9417   6.0499   6.0499   6.2133   6.2476   6.2678   6.4611   6.5963
     6.5963   6.6371   6.6371   6.7645   6.8066   6.8266   6.8266   6.8992
     6.8992   6.9654   6.9912   6.9931   7.0724   7.0724   7.2371   7.2578
     7.7131   7.7293   9.6163   9.6163  10.3631  10.3632  10.7286  10.7286
    11.4402  11.4402  12.7961  13.2583  13.7277  13.7416

          k = 0.0435 0.0435-0.3918 ( 15696 PWs)   bands (ev):

   -75.5910 -75.5910 -75.5872 -75.5872 -75.5872 -75.5871 -75.5834 -75.5833
   -41.3585 -41.3585 -41.3585 -41.3585 -41.3530 -41.3529 -41.3529 -41.3529
   -41.3299 -41.3298 -41.3246 -41.3246 -41.3246 -41.3245 -41.3196 -41.3196
   -41.2959 -41.2959 -41.2959 -41.2959 -41.2912 -41.2912 -41.2912 -41.2912
     4.8372   4.8372   5.2524   5.2524   5.3733   5.3734   5.4864   5.4864
     5.4864   5.4864   5.7225   5.7225   5.7225   5.7225   5.9538   5.9538
     6.0464   6.0464   6.0512   6.0512   6.4372   6.4372   6.4372   6.4372
     6.5907   6.5907   6.6166   6.6166   6.6167   6.6167   6.8761   6.8761
     6.8836   6.8836   6.9685   6.9685   6.9685   6.9685   7.2474   7.2474
     7.7214   7.7214   9.9777   9.9777   9.9777   9.9777  11.0414  11.0414
    11.0414  11.0414  13.2499  13.2499  13.7805  13.7805

          k = 0.0435 0.1306 0.1306 ( 15689 PWs)   bands (ev):

   -75.5924 -75.5891 -75.5890 -75.5886 -75.5857 -75.5853 -75.5852 -75.5819
   -41.3607 -41.3573 -41.3573 -41.3558 -41.3557 -41.3524 -41.3523 -41.3517
   -41.3517 -41.3506 -41.3467 -41.3465 -41.3019 -41.3015 -41.2976 -41.2975
   -41.2975 -41.2971 -41.2969 -41.2935 -41.2935 -41.2929 -41.2929 -41.2894
     4.2459   5.2006   5.2471   5.2740   5.2740   5.3068   5.3381   5.3381
     5.4357   5.4357   5.4584   5.5159   5.5614   5.5908   5.6207   5.6687
     5.7151   5.7151   6.3602   6.4432   6.4433   6.4995   6.5808   6.5808
     6.6017   6.6017   6.6235   6.6235   6.6971   6.7077   7.1315   7.1724
     7.1847   7.1983   7.2348   7.2348   7.4163   7.5222   7.5515   7.5515
     7.6596   8.1543   8.1543   9.1388  10.4563  10.6050  11.4007  11.4007
    11.5062  11.5062  12.3883  12.3883  12.7781  14.1380

          k = 0.0435 0.1306 0.2176 ( 15691 PWs)   bands (ev):

   -75.5920 -75.5895 -75.5886 -75.5882 -75.5861 -75.5857 -75.5848 -75.5823
   -41.3601 -41.3567 -41.3564 -41.3552 -41.3530 -41.3513 -41.3510 -41.3502
   -41.3473 -41.3453 -41.3446 -41.3396 -41.3090 -41.3046 -41.3039 -41.3012
   -41.3000 -41.2981 -41.2971 -41.2964 -41.2940 -41.2934 -41.2930 -41.2899
     4.4451   5.2335   5.2586   5.3120   5.3693   5.3730   5.3820   5.3896
     5.4091   5.5037   5.5358   5.5603   5.6583   5.6828   5.7099   5.7295
     5.7701   5.9211   6.1860   6.2370   6.4263   6.4744   6.4817   6.4860
     6.5653   6.6142   6.6700   6.6847   6.6884   6.7665   7.0529   7.0989
     7.1241   7.1626   7.1672   7.1868   7.2270   7.2748   7.2811   7.3832
     7.5656   7.6254   8.3919   9.4161   9.9426  10.5953  10.9379  11.5844
    11.7586  12.0180  12.5767  12.6931  12.8296  13.5244

          k = 0.0435 0.1306 0.3047 ( 15699 PWs)   bands (ev):

   -75.5914 -75.5901 -75.5880 -75.5876 -75.5867 -75.5863 -75.5842 -75.5829
   -41.3592 -41.3573 -41.3558 -41.3543 -41.3538 -41.3522 -41.3501 -41.3482
   -41.3405 -41.3357 -41.3350 -41.3306 -41.3186 -41.3141 -41.3135 -41.3093
   -41.3005 -41.2988 -41.2964 -41.2957 -41.2947 -41.2941 -41.2923 -41.2907
     4.6939   5.1224   5.2676   5.3469   5.3637   5.4153   5.4837   5.5036
     5.5376   5.5454   5.5726   5.5981   5.6406   5.8558   5.8946   5.9135
     5.9467   6.0661   6.0967   6.1815   6.2413   6.3152   6.3726   6.5003
     6.5447   6.6314   6.6709   6.7246   6.7620   6.7937   6.8764   6.8959
     6.9421   6.9493   6.9531   6.9968   7.0279   7.0676   7.1962   7.2182
     7.5808   7.6099   8.6781   9.4191   9.7441  10.4753  10.8269  11.5762
    11.8519  12.1000  12.5467  12.9835  13.1103  13.8403

          k = 0.0435 0.1306-0.3918 ( 15688 PWs)   bands (ev):

   -75.5908 -75.5907 -75.5874 -75.5874 -75.5869 -75.5869 -75.5836 -75.5836
   -41.3582 -41.3582 -41.3548 -41.3548 -41.3533 -41.3533 -41.3491 -41.3491
   -41.3296 -41.3295 -41.3249 -41.3249 -41.3243 -41.3242 -41.3199 -41.3198
   -41.2997 -41.2997 -41.2956 -41.2956 -41.2949 -41.2949 -41.2914 -41.2914
     4.9323   4.9323   5.3060   5.3060   5.4234   5.4234   5.4627   5.4627
     5.5919   5.5919   5.7342   5.7342   5.7498   5.7498   5.9590   5.9590
     6.0358   6.0358   6.0866   6.0866   6.4124   6.4124   6.4379   6.4379
     6.5218   6.5218   6.5762   6.5763   6.6512   6.6513   6.8543   6.8544
     6.8896   6.8896   6.9293   6.9293   6.9629   6.9629   7.2071   7.2071
     7.5957   7.5957   9.0114   9.0114  10.0921  10.0921  11.1607  11.1608
    12.1859  12.1859  12.5105  12.5105  13.6066  13.6066

          k = 0.0435 0.2176 0.2176 ( 15701 PWs)   bands (ev):

   -75.5916 -75.5891 -75.5890 -75.5877 -75.5866 -75.5853 -75.5852 -75.5828
   -41.3594 -41.3558 -41.3558 -41.3520 -41.3496 -41.3496 -41.3461 -41.3458
   -41.3439 -41.3439 -41.3407 -41.3400 -41.3086 -41.3081 -41.3052 -41.3052
   -41.3036 -41.3032 -41.3004 -41.3004 -41.2966 -41.2936 -41.2935 -41.2905
     4.6408   5.3161   5.3161   5.3169   5.4172   5.4172   5.4389   5.4816
     5.5470   5.5835   5.5878   5.5878   5.6559   5.7286   5.8267   5.8651
     5.8859   5.8859   6.1217   6.2856   6.2856   6.3812   6.4083   6.4083
     6.5397   6.5397   6.6817   6.6817   6.7411   6.7640   6.9770   6.9888
     7.0464   7.0943   7.1219   7.1536   7.1542   7.1542   7.3051   7.3051
     7.4836   7.5970   7.5970   9.1858   9.6645  10.7616  11.1618  11.1618
    12.3006  12.3006  12.7804  12.7804  12.8647  13.5618

          k = 0.0435 0.2176 0.3047 ( 15686 PWs)   bands (ev):

   -75.5910 -75.5896 -75.5885 -75.5872 -75.5871 -75.5858 -75.5847 -75.5834
   -41.3585 -41.3566 -41.3549 -41.3529 -41.3487 -41.3468 -41.3431 -41.3412
   -41.3398 -41.3364 -41.3345 -41.3311 -41.3180 -41.3146 -41.3129 -41.3098
   -41.3076 -41.3059 -41.3027 -41.3011 -41.2959 -41.2942 -41.2928 -41.2912
     4.8728   5.2200   5.3665   5.3868   5.4646   5.4672   5.5134   5.5663
     5.5676   5.6350   5.6473   5.7371   5.8336   5.8413   5.8438   5.9452
     5.9989   6.1056   6.1464   6.1470   6.2219   6.2495   6.3509   6.3843
     6.3852   6.5930   6.6953   6.6980   6.7370   6.7718   6.8542   6.8792
     6.8878   6.9494   6.9909   7.0045   7.0223   7.0583   7.1214   7.1464
     7.3358   7.4073   7.8496   8.5950   9.9642  10.6814  11.0292  11.4691
    11.8383  12.3106  12.6917  13.0652  13.6692  13.6824

          k = 0.0435 0.2176-0.3918 ( 15672 PWs)   bands (ev):

   -75.5903 -75.5903 -75.5878 -75.5878 -75.5865 -75.5865 -75.5840 -75.5840
   -41.3576 -41.3576 -41.3540 -41.3540 -41.3477 -41.3477 -41.3421 -41.3421
   -41.3289 -41.3289 -41.3255 -41.3254 -41.3237 -41.3237 -41.3204 -41.3204
   -41.3067 -41.3067 -41.3019 -41.3019 -41.2951 -41.2951 -41.2920 -41.2920
     5.0744   5.0744   5.4184   5.4185   5.4467   5.4467   5.5178   5.5178
     5.7508   5.7508   5.7929   5.7930   5.7964   5.7964   5.9661   5.9661
     6.0170   6.0170   6.1553   6.1553   6.3600   6.3601   6.3625   6.3625
     6.4323   6.4323   6.5430   6.5430   6.7167   6.7167   6.8293   6.8293
     6.8706   6.8706   6.9018   6.9018   6.9526   6.9526   7.1329   7.1329
     7.3674   7.3674   8.1656   8.1656  10.2958  10.2958  11.3972  11.3972
    11.8504  11.8504  13.1624  13.1624  13.3955  13.3955

          k = 0.0435 0.3047 0.3047 ( 15668 PWs)   bands (ev):

   -75.5904 -75.5891 -75.5890 -75.5877 -75.5866 -75.5853 -75.5852 -75.5839
   -41.3577 -41.3558 -41.3557 -41.3538 -41.3390 -41.3390 -41.3375 -41.3370
   -41.3337 -41.3337 -41.3322 -41.3315 -41.3174 -41.3169 -41.3154 -41.3154
   -41.3124 -41.3119 -41.3105 -41.3105 -41.2952 -41.2935 -41.2935 -41.2919
     5.0559   5.2934   5.2934   5.4168   5.5829   5.6053   5.6053   5.6376
     5.7217   5.7489   5.7670   5.7671   5.8762   5.8971   5.9427   6.1051
     6.1051   6.1173   6.1476   6.1476   6.1993   6.1993   6.2104   6.2254
     6.4490   6.4490   6.5167   6.7270   6.7872   6.7872   6.8061   6.8265
     6.8529   6.8610   7.0014   7.0348   7.0348   7.0381   7.0437   7.0438
     7.2073   7.2073   7.2105   7.9387  10.2403  10.9635  10.9635  11.3381
    11.7605  12.2073  12.2073  13.1626  14.3468  14.3469

          k = 0.0435 0.3047-0.3918 ( 15672 PWs)   bands (ev):

   -75.5898 -75.5897 -75.5884 -75.5884 -75.5859 -75.5859 -75.5846 -75.5846
   -41.3567 -41.3567 -41.3548 -41.3548 -41.3381 -41.3381 -41.3328 -41.3328
   -41.3281 -41.3281 -41.3263 -41.3263 -41.3230 -41.3229 -41.3212 -41.3212
   -41.3162 -41.3162 -41.3114 -41.3113 -41.2944 -41.2943 -41.2927 -41.2927
     5.1935   5.1935   5.3577   5.3577   5.6391   5.6391   5.6967   5.6967
     5.7658   5.7658   5.8467   5.8467   5.9771   5.9771   6.0063   6.0063
     6.0502   6.0502   6.1875   6.1875   6.2451   6.2451   6.2633   6.2633
     6.4037   6.4037   6.4723   6.4724   6.8042   6.8042   6.8358   6.8358
     6.8400   6.8400   6.9257   6.9257   6.9394   6.9394   7.0376   7.0376
     7.0963   7.0963   7.4853   7.4853  10.5656  10.5656  11.3188  11.3188
    11.7407  11.7408  12.6583  12.6583  14.6370  14.6370

          k = 0.0435-0.3918-0.3918 ( 15660 PWs)   bands (ev):

   -75.5891 -75.5891 -75.5890 -75.5890 -75.5853 -75.5852 -75.5852 -75.5852
   -41.3557 -41.3557 -41.3557 -41.3557 -41.3275 -41.3275 -41.3275 -41.3274
   -41.3270 -41.3270 -41.3270 -41.3269 -41.3225 -41.3225 -41.3225 -41.3224
   -41.3217 -41.3217 -41.3216 -41.3216 -41.2936 -41.2935 -41.2935 -41.2935
     5.2833   5.2833   5.2833   5.2833   5.7393   5.7393   5.7393   5.7393
     5.8656   5.8656   5.8656   5.8656   6.0461   6.0461   6.0461   6.0461
     6.0869   6.0870   6.0870   6.0870   6.3117   6.3117   6.3117   6.3117
     6.3389   6.3389   6.3389   6.3389   6.8771   6.8771   6.8771   6.8771
     6.8941   6.8941   6.8941   6.8941   6.9442   6.9442   6.9442   6.9443
     7.0597   7.0597   7.0597   7.0597  10.9000  10.9000  10.9000  10.9000
    12.1709  12.1709  12.1709  12.1709  15.6739  15.6739

          k = 0.1306 0.1306 0.1306 ( 15675 PWs)   bands (ev):

   -75.5922 -75.5889 -75.5888 -75.5888 -75.5855 -75.5854 -75.5854 -75.5821
   -41.3570 -41.3570 -41.3570 -41.3520 -41.3520 -41.3520 -41.3519 -41.3519
   -41.3519 -41.3471 -41.3468 -41.3468 -41.3017 -41.3014 -41.3014 -41.2974
   -41.2973 -41.2973 -41.2971 -41.2971 -41.2971 -41.2931 -41.2931 -41.2931
     4.3552   5.2592   5.2592   5.3264   5.3264   5.3264   5.4447   5.4447
     5.4447   5.4628   5.4628   5.4628   5.5879   5.6731   5.6731   5.6974
     5.6974   5.6974   6.3889   6.3889   6.3889   6.5381   6.5381   6.5381
     6.6101   6.6102   6.6102   6.6204   6.6204   6.6204   7.1276   7.1398
     7.1398   7.1939   7.1939   7.1939   7.4290   7.4290   7.4291   7.5181
     7.5181   8.2906   8.2906   8.2906  10.7373  10.7373  10.7373  11.4974
    11.4974  11.4974  12.9432  12.9432  12.9432  13.4419

          k = 0.1306 0.1306 0.2176 ( 15702 PWs)   bands (ev):

   -75.5918 -75.5893 -75.5884 -75.5884 -75.5859 -75.5859 -75.5850 -75.5826
   -41.3564 -41.3564 -41.3526 -41.3526 -41.3514 -41.3513 -41.3498 -41.3478
   -41.3475 -41.3450 -41.3449 -41.3401 -41.3086 -41.3043 -41.3043 -41.3010
   -41.3008 -41.3002 -41.2979 -41.2977 -41.2967 -41.2967 -41.2937 -41.2937
     4.5558   5.2820   5.3628   5.3634   5.3876   5.4194   5.4283   5.4283
     5.4804   5.4804   5.5753   5.6651   5.6651   5.6799   5.6799   5.7472
     5.7747   5.9006   6.2251   6.2251   6.4182   6.4605   6.4692   6.5238
     6.5239   6.5994   6.5994   6.6112   6.6771   6.6771   7.0570   7.0577
     7.1189   7.1189   7.1443   7.1843   7.1907   7.1907   7.2585   7.4475
     7.5099   7.5162   8.5153   8.5153  10.0683  10.0683  10.9831  11.6877
    11.6877  12.6843  12.7858  12.9804  12.9804  13.2553

          k = 0.1306 0.1306 0.3047 ( 15704 PWs)   bands (ev):

   -75.5912 -75.5899 -75.5878 -75.5878 -75.5865 -75.5865 -75.5845 -75.5832
   -41.3555 -41.3555 -41.3534 -41.3534 -41.3506 -41.3504 -41.3486 -41.3484
   -41.3402 -41.3354 -41.3354 -41.3309 -41.3183 -41.3138 -41.3137 -41.3096
   -41.3003 -41.3002 -41.2987 -41.2985 -41.2960 -41.2960 -41.2944 -41.2944
     4.8034   5.2213   5.3132   5.3862   5.4135   5.5212   5.5212   5.5284
     5.5665   5.5665   5.6145   5.6305   5.6305   5.8846   5.9039   5.9039
     5.9186   6.1070   6.1070   6.1472   6.2846   6.3164   6.3233   6.5371
     6.5371   6.5794   6.5794   6.7065   6.7065   6.7114   6.9101   6.9101
     6.9226   6.9482   6.9693   6.9935   7.0216   7.0216   7.1545   7.1807
     7.4664   7.4983   8.7944   8.7944   9.5383   9.5383  11.3193  11.9636
    11.9636  12.2173  12.6806  12.6806  13.6853  13.9540

          k = 0.1306 0.1306-0.3918 ( 15708 PWs)   bands (ev):

   -75.5905 -75.5905 -75.5872 -75.5872 -75.5872 -75.5871 -75.5838 -75.5838
   -41.3545 -41.3545 -41.3545 -41.3545 -41.3496 -41.3496 -41.3495 -41.3494
   -41.3292 -41.3292 -41.3247 -41.3246 -41.3246 -41.3246 -41.3202 -41.3201
   -41.2995 -41.2995 -41.2993 -41.2993 -41.2952 -41.2952 -41.2952 -41.2952
     5.0357   5.0357   5.3493   5.3493   5.4710   5.4710   5.5670   5.5670
     5.5670   5.5670   5.7620   5.7620   5.7620   5.7620   5.9642   5.9643
     6.0539   6.0539   6.0938   6.0938   6.4136   6.4136   6.4136   6.4136
     6.5580   6.5580   6.5580   6.5580   6.5634   6.5634   6.8282   6.8282
     6.9017   6.9017   6.9206   6.9206   6.9206   6.9206   7.1666   7.1666
     7.4836   7.4836   9.1266   9.1266   9.1266   9.1266  11.7312  11.7312
    12.3075  12.3075  12.3075  12.3075  14.1998  14.1998

          k = 0.1306 0.2176 0.2176 ( 15675 PWs)   bands (ev):

   -75.5913 -75.5889 -75.5888 -75.5880 -75.5863 -75.5855 -75.5854 -75.5830
   -41.3557 -41.3520 -41.3520 -41.3492 -41.3492 -41.3483 -41.3457 -41.3454
   -41.3443 -41.3443 -41.3410 -41.3404 -41.3083 -41.3078 -41.3048 -41.3048
   -41.3039 -41.3036 -41.3007 -41.3007 -41.3004 -41.2972 -41.2972 -41.2942
     4.7559   5.3647   5.4283   5.4283   5.4506   5.4631   5.4631   5.5140
     5.6047   5.6047   5.6187   5.6364   5.6403   5.7611   5.7779   5.8600
     5.8649   5.8649   6.1676   6.2700   6.2700   6.4243   6.4470   6.4470
     6.5310   6.5310   6.5948   6.5948   6.6525   6.6685   6.9823   7.0202
     7.0398   7.0597   7.0739   7.1079   7.1079   7.1480   7.2208   7.2208
     7.3636   7.7169   7.7169   8.7274   9.3117  10.3020  10.3020  11.8897
    12.0963  12.8918  12.8918  13.2660  13.2660  13.7187

          k = 0.1306 0.2176 0.3047 ( 15680 PWs)   bands (ev):

   -75.5908 -75.5894 -75.5882 -75.5874 -75.5869 -75.5861 -75.5849 -75.5836
   -41.3549 -41.3528 -41.3511 -41.3491 -41.3484 -41.3465 -41.3435 -41.3415
   -41.3395 -41.3360 -41.3348 -41.3314 -41.3176 -41.3143 -41.3132 -41.3101
   -41.3073 -41.3055 -41.3030 -41.3014 -41.2997 -41.2980 -41.2965 -41.2949
     4.9908   5.3349   5.4218   5.4734   5.5092   5.5314   5.5639   5.6037
     5.6053   5.6492   5.6698   5.7136   5.8206   5.8454   5.8856   5.9146
     5.9934   6.1093   6.1303   6.1520   6.2325   6.2797   6.3756   6.3941
     6.4251   6.5809   6.6053   6.6288   6.6660   6.6891   6.8444   6.8679
     6.8891   6.9406   6.9417   6.9746   7.0089   7.0669   7.0796   7.1662
     7.2494   7.3059   7.9659   8.7183   9.0010   9.7588  10.6239  11.5117
    12.1804  12.9359  13.1822  13.6604  13.8103  14.1714

          k = 0.1306 0.2176-0.3918 ( 15678 PWs)   bands (ev):

   -75.5901 -75.5901 -75.5876 -75.5876 -75.5867 -75.5867 -75.5843 -75.5842
   -41.3539 -41.3539 -41.3502 -41.3501 -41.3474 -41.3474 -41.3425 -41.3425
   -41.3286 -41.3285 -41.3252 -41.3252 -41.3241 -41.3240 -41.3207 -41.3207
   -41.3065 -41.3064 -41.3022 -41.3022 -41.2989 -41.2988 -41.2957 -41.2957
     5.1908   5.1908   5.4721   5.4721   5.5223   5.5223   5.5602   5.5602
     5.7472   5.7472   5.7971   5.7972   5.8083   5.8083   5.9718   5.9718
     6.0458   6.0458   6.1525   6.1525   6.3621   6.3621   6.4001   6.4001
     6.4145   6.4146   6.5337   6.5337   6.6250   6.6250   6.7914   6.7914
     6.8548   6.8548   6.9038   6.9038   6.9264   6.9264   7.0955   7.0955
     7.2763   7.2763   8.2843   8.2843   9.3366   9.3366  11.0254  11.0254
    12.5415  12.5415  13.5213  13.5213  14.1335  14.1335

          k = 0.1306 0.3047 0.3047 ( 15667 PWs)   bands (ev):

   -75.5902 -75.5889 -75.5888 -75.5875 -75.5868 -75.5855 -75.5854 -75.5842
   -41.3540 -41.3520 -41.3520 -41.3500 -41.3387 -41.3387 -41.3372 -41.3366
   -41.3340 -41.3340 -41.3324 -41.3318 -41.3171 -41.3166 -41.3151 -41.3151
   -41.3128 -41.3122 -41.3108 -41.3108 -41.2989 -41.2973 -41.2972 -41.2956
     5.1767   5.4029   5.4029   5.5189   5.6094   5.6411   5.6411   5.6706
     5.7321   5.7643   5.7810   5.7810   5.8919   5.9199   5.9200   6.0676
     6.0676   6.1104   6.1481   6.1481   6.2043   6.2595   6.2595   6.2790
     6.4402   6.4402   6.5034   6.6926   6.6927   6.7114   6.7225   6.8111
     6.8204   6.8473   6.9764   6.9764   6.9864   6.9865   6.9865   6.9977
     7.1221   7.3314   7.3314   8.0663   9.2771  10.0630  10.0630  10.9245
    12.4897  13.2921  13.2921  14.2009  14.4681  14.4681

          k = 0.1306 0.3047-0.3918 ( 15678 PWs)   bands (ev):

   -75.5895 -75.5895 -75.5882 -75.5882 -75.5862 -75.5861 -75.5848 -75.5848
   -41.3530 -41.3530 -41.3511 -41.3510 -41.3379 -41.3379 -41.3331 -41.3331
   -41.3278 -41.3278 -41.3260 -41.3260 -41.3233 -41.3232 -41.3216 -41.3215
   -41.3160 -41.3159 -41.3116 -41.3116 -41.2981 -41.2981 -41.2964 -41.2964
     5.3082   5.3082   5.4627   5.4627   5.6730   5.6730   5.7141   5.7141
     5.7869   5.7869   5.8579   5.8579   5.9835   5.9835   6.0179   6.0179
     6.0381   6.0381   6.2394   6.2394   6.2473   6.2473   6.2665   6.2665
     6.3875   6.3875   6.4694   6.4694   6.7092   6.7092   6.7693   6.7693
     6.8066   6.8066   6.8826   6.8826   6.9469   6.9470   7.0256   7.0256
     7.0445   7.0446   7.6133   7.6133   9.6239   9.6239  10.4477  10.4477
    12.8719  12.8719  13.7245  13.7245  14.7697  14.7697

          k = 0.1306-0.3918-0.3918 ( 15652 PWs)   bands (ev):

   -75.5889 -75.5888 -75.5888 -75.5888 -75.5856 -75.5855 -75.5854 -75.5854
   -41.3521 -41.3520 -41.3520 -41.3520 -41.3271 -41.3271 -41.3271 -41.3271
   -41.3266 -41.3266 -41.3266 -41.3265 -41.3228 -41.3228 -41.3228 -41.3227
   -41.3220 -41.3220 -41.3220 -41.3220 -41.2973 -41.2972 -41.2972 -41.2972
     5.3918   5.3918   5.3918   5.3918   5.7636   5.7636   5.7636   5.7637
     5.8770   5.8770   5.8770   5.8770   6.0719   6.0719   6.0719   6.0719
     6.0933   6.0933   6.0933   6.0933   6.3207   6.3207   6.3207   6.3208
     6.3277   6.3277   6.3277   6.3277   6.7662   6.7662   6.7662   6.7662
     6.8440   6.8440   6.8440   6.8440   6.8903   6.8903   6.8903   6.8903
     7.1940   7.1940   7.1940   7.1940   9.9885   9.9885   9.9885   9.9885
    13.2771  13.2771  13.2771  13.2771  15.8183  15.8183

          k = 0.2176 0.2176 0.2176 ( 15666 PWs)   bands (ev):

   -75.5909 -75.5885 -75.5884 -75.5884 -75.5860 -75.5859 -75.5859 -75.5834
   -41.3486 -41.3486 -41.3486 -41.3451 -41.3451 -41.3451 -41.3448 -41.3448
   -41.3447 -41.3419 -41.3410 -41.3410 -41.3078 -41.3073 -41.3073 -41.3044
   -41.3044 -41.3044 -41.3041 -41.3041 -41.3041 -41.3012 -41.3012 -41.3012
     4.9637   5.4728   5.4728   5.5506   5.5506   5.5506   5.6125   5.6125
     5.6125   5.6597   5.6597   5.6597   5.6645   5.8289   5.8289   5.8289
     5.8732   5.8732   6.2146   6.2146   6.2146   6.5050   6.5050   6.5050
     6.5064   6.5065   6.5065   6.5208   6.5208   6.5208   6.9852   6.9852
     7.0090   7.0258   7.0258   7.0258   7.0526   7.0526   7.0527   7.1373
     7.1373   7.9122   7.9122   7.9122   9.5437   9.5437   9.5437  11.3729
    13.1064  13.1064  13.1064  14.0179  14.0179  14.0179

          k = 0.2176 0.2176 0.3047 ( 15682 PWs)   bands (ev):

   -75.5903 -75.5890 -75.5878 -75.5878 -75.5865 -75.5865 -75.5853 -75.5840
   -41.3478 -41.3478 -41.3458 -41.3458 -41.3443 -41.3439 -41.3424 -41.3419
   -41.3389 -41.3355 -41.3354 -41.3319 -41.3171 -41.3139 -41.3138 -41.3106
   -41.3069 -41.3066 -41.3052 -41.3049 -41.3036 -41.3036 -41.3020 -41.3020
     5.1998   5.5035   5.5362   5.5773   5.5937   5.6658   5.6658   5.6687
     5.6687   5.6709   5.6788   5.7905   5.7905   5.8646   5.8646   5.9517
     6.0077   6.0687   6.1596   6.1597   6.1904   6.3479   6.3683   6.4734
     6.4734   6.4910   6.4910   6.5548   6.5548   6.6142   6.8355   6.8463
     6.8463   6.8689   6.9226   6.9226   6.9377   6.9984   7.0176   7.0799
     7.1220   7.3072   8.1657   8.1657   8.9425   8.9425   9.8634  10.7645
    13.4073  13.4073  14.0792  14.0792  14.3942  14.4353

          k = 0.2176 0.2176-0.3918 ( 15672 PWs)   bands (ev):

   -75.5897 -75.5896 -75.5872 -75.5872 -75.5872 -75.5871 -75.5847 -75.5847
   -41.3468 -41.3468 -41.3468 -41.3468 -41.3433 -41.3433 -41.3429 -41.3429
   -41.3280 -41.3280 -41.3247 -41.3246 -41.3246 -41.3246 -41.3213 -41.3213
   -41.3060 -41.3060 -41.3058 -41.3057 -41.3028 -41.3028 -41.3027 -41.3027
     5.3895   5.3895   5.5395   5.5396   5.6383   5.6383   5.7095   5.7095
     5.7095   5.7095   5.8343   5.8343   5.8343   5.8343   5.9805   5.9805
     6.0791   6.0791   6.1707   6.1708   6.3607   6.3607   6.3607   6.3608
     6.4818   6.4818   6.4818   6.4818   6.5130   6.5130   6.7400   6.7400
     6.8250   6.8250   6.8250   6.8250   6.9375   6.9375   7.0620   7.0621
     7.1028   7.1028   8.4957   8.4957   8.4957   8.4957  10.2668  10.2668
    13.7621  13.7621  13.7621  13.7621  14.9421  14.9421

          k = 0.2176 0.3047 0.3047 ( 15674 PWs)   bands (ev):

   -75.5897 -75.5884 -75.5884 -75.5872 -75.5871 -75.5859 -75.5859 -75.5846
   -41.3469 -41.3450 -41.3450 -41.3430 -41.3382 -41.3382 -41.3366 -41.3360
   -41.3346 -41.3346 -41.3330 -41.3324 -41.3165 -41.3160 -41.3145 -41.3145
   -41.3134 -41.3128 -41.3114 -41.3114 -41.3060 -41.3044 -41.3043 -41.3027
     5.4009   5.6044   5.6044   5.6632   5.6945   5.7065   5.7065   5.7267
     5.7520   5.8061   5.8061   5.8067   5.8708   5.8863   6.0034   6.0266
     6.0266   6.1048   6.1457   6.1457   6.1928   6.3397   6.3397   6.3722
     6.4255   6.4255   6.4620   6.5699   6.5782   6.5782   6.7147   6.7527
     6.7983   6.8203   6.8603   6.8604   6.8912   6.8951   6.8951   6.9485
     7.0175   7.5142   7.5143   8.2892   8.4338   9.2508   9.2508  10.1432
    13.7229  14.4534  14.4534  14.7005  14.7005  14.9899

          k = 0.2176 0.3047-0.3918 ( 15656 PWs)   bands (ev):

   -75.5891 -75.5890 -75.5878 -75.5877 -75.5866 -75.5866 -75.5853 -75.5852
   -41.3460 -41.3460 -41.3441 -41.3440 -41.3372 -41.3372 -41.3337 -41.3337
   -41.3272 -41.3271 -41.3254 -41.3254 -41.3239 -41.3238 -41.3221 -41.3220
   -41.3154 -41.3154 -41.3122 -41.3122 -41.3051 -41.3051 -41.3035 -41.3035
     5.5202   5.5202   5.6546   5.6546   5.7334   5.7334   5.7468   5.7468
     5.8188   5.8189   5.8794   5.8794   5.9823   5.9823   5.9945   5.9945
     6.0911   6.0911   6.2360   6.2360   6.2698   6.2698   6.3231   6.3231
     6.3667   6.3667   6.4662   6.4662   6.5762   6.5762   6.6939   6.6939
     6.7510   6.7511   6.7901   6.7901   6.8692   6.8692   6.8864   6.8864
     7.1421   7.1421   7.8220   7.8220   8.7845   8.7845   9.6453   9.6453
    14.0988  14.0988  14.9026  14.9026  15.0236  15.0236

          k = 0.2176-0.3918-0.3918 ( 15668 PWs)   bands (ev):

   -75.5885 -75.5884 -75.5884 -75.5884 -75.5860 -75.5859 -75.5859 -75.5859
   -41.3450 -41.3450 -41.3450 -41.3450 -41.3266 -41.3266 -41.3266 -41.3265
   -41.3260 -41.3260 -41.3260 -41.3259 -41.3233 -41.3233 -41.3233 -41.3233
   -41.3227 -41.3227 -41.3226 -41.3226 -41.3044 -41.3044 -41.3043 -41.3043
     5.5913   5.5913   5.5914   5.5914   5.8052   5.8052   5.8052   5.8052
     5.8972   5.8972   5.8972   5.8972   6.1047   6.1047   6.1047   6.1047
     6.1077   6.1077   6.1077   6.1077   6.3056   6.3056   6.3056   6.3056
     6.3522   6.3522   6.3522   6.3522   6.6546   6.6546   6.6546   6.6546
     6.7453   6.7453   6.7453   6.7453   6.7924   6.7924   6.7924   6.7924
     7.3720   7.3720   7.3720   7.3720   9.1593   9.1593   9.1593   9.1593
    14.5023  14.5023  14.5023  14.5024  16.0975  16.0975

          k = 0.3047 0.3047 0.3047 ( 15651 PWs)   bands (ev):

   -75.5892 -75.5879 -75.5878 -75.5878 -75.5866 -75.5865 -75.5865 -75.5852
   -41.3374 -41.3374 -41.3374 -41.3358 -41.3358 -41.3358 -41.3351 -41.3351
   -41.3351 -41.3342 -41.3332 -41.3332 -41.3160 -41.3152 -41.3152 -41.3141
   -41.3141 -41.3141 -41.3136 -41.3136 -41.3135 -41.3121 -41.3121 -41.3121
     5.6467   5.7797   5.7797   5.7811   5.7849   5.7849   5.7849   5.8254
     5.8254   5.8254   5.8494   5.8494   5.8494   5.9891   5.9891   5.9891
     6.1180   6.1180   6.1523   6.1523   6.1523   6.3737   6.3737   6.3737
     6.4394   6.4395   6.4395   6.4925   6.4925   6.4925   6.7063   6.7063
     6.7139   6.7139   6.7139   6.7664   6.7664   6.7837   6.7837   6.7837
     7.1007   7.7591   7.7591   7.7591   8.5920   8.5920   8.5920   9.4959
    15.0224  15.0224  15.0224  15.3970  15.3970  15.3970

          k = 0.3047 0.3047-0.3918 ( 15638 PWs)   bands (ev):

   -75.5885 -75.5885 -75.5872 -75.5872 -75.5872 -75.5871 -75.5858 -75.5858
   -41.3364 -41.3364 -41.3364 -41.3364 -41.3349 -41.3349 -41.3341 -41.3341
   -41.3264 -41.3264 -41.3247 -41.3246 -41.3246 -41.3245 -41.3228 -41.3227
   -41.3150 -41.3149 -41.3144 -41.3144 -41.3130 -41.3130 -41.3130 -41.3130
     5.7573   5.7573   5.8021   5.8021   5.8130   5.8130   5.8369   5.8369
     5.8369   5.8369   5.9591   5.9591   5.9591   5.9591   6.0128   6.0129
     6.1384   6.1384   6.2491   6.2491   6.2663   6.2663   6.2663   6.2663
     6.4595   6.4595   6.4595   6.4595   6.4632   6.4632   6.6283   6.6283
     6.6857   6.6857   6.6857   6.6857   6.7028   6.7028   6.7566   6.7567
     7.3156   7.3156   8.1026   8.1026   8.1026   8.1026   8.9858   8.9858
    15.3768  15.3768  15.3768  15.3768  15.8985  15.8985

          k = 0.3047-0.3918-0.3918 ( 15624 PWs)   bands (ev):

   -75.5879 -75.5878 -75.5878 -75.5878 -75.5866 -75.5865 -75.5865 -75.5865
   -41.3355 -41.3355 -41.3354 -41.3354 -41.3259 -41.3259 -41.3258 -41.3258
   -41.3252 -41.3252 -41.3251 -41.3251 -41.3240 -41.3240 -41.3240 -41.3240
   -41.3234 -41.3234 -41.3234 -41.3233 -41.3139 -41.3139 -41.3138 -41.3138
     5.8173   5.8173   5.8173   5.8173   5.8489   5.8489   5.8489   5.8489
     5.9440   5.9440   5.9440   5.9440   6.1183   6.1183   6.1183   6.1183
     6.1289   6.1289   6.1289   6.1289   6.2599   6.2599   6.2599   6.2599
     6.4252   6.4252   6.4252   6.4252   6.5663   6.5664   6.5664   6.5664
     6.6161   6.6161   6.6161   6.6161   6.6678   6.6678   6.6678   6.6678
     7.6153   7.6154   7.6154   7.6154   8.4788   8.4788   8.4788   8.4788
    15.7837  15.7837  15.7837  15.7837  16.4948  16.4948

          k =-0.3918-0.3918-0.3918 ( 15624 PWs)   bands (ev):

   -75.5873 -75.5872 -75.5872 -75.5872 -75.5872 -75.5871 -75.5871 -75.5871
   -41.3254 -41.3254 -41.3254 -41.3253 -41.3253 -41.3253 -41.3253 -41.3253
   -41.3243 -41.3243 -41.3243 -41.3243 -41.3243 -41.3243 -41.3242 -41.3242
   -41.3242 -41.3242 -41.3242 -41.3242 -41.3242 -41.3242 -41.3242 -41.3242
     5.8728   5.8728   5.8728   5.8728   5.8728   5.8728   5.8728   5.8728
     6.1291   6.1291   6.1291   6.1291   6.1291   6.1291   6.1291   6.1292
     6.1292   6.1292   6.1292   6.1292   6.1292   6.1292   6.1292   6.1292
     6.5376   6.5376   6.5376   6.5377   6.5377   6.5377   6.5377   6.5377
     6.5377   6.5377   6.5377   6.5377   6.5377   6.5377   6.5377   6.5377
     7.9690   7.9690   7.9690   7.9690   7.9690   7.9690   7.9690   7.9690
    16.9900  16.9900  16.9900  16.9900  16.9900  16.9900

     the Fermi energy is     7.3704 ev

!    total energy              =   -4095.36535697 Ry

     total all-electron energy =    -80735.578784 Ry
     estimated scf accuracy    <       0.00000081 Ry
     smearing contrib. (-TS)   =       0.10544497 Ry
     internal energy E=F+TS    =   -4095.47080194 Ry

     The total energy is F=E-TS. E is the sum of the following terms:
     one-electron contribution =   -1170.67236647 Ry
     hartree contribution      =     632.49095564 Ry
     xc contribution           =    -245.23873035 Ry
     ewald contribution        =   -1270.30697167 Ry
     one-center paw contrib.   =   -2041.74368909 Ry

     convergence has been achieved in  15 iterations

     Forces acting on atoms (cartesian axes, Ry/au):

     atom    1 type  1   force =     0.00000000    0.00000000    0.00000000
     atom    2 type  1   force =     0.00000000    0.00000000    0.00000000
     atom    3 type  1   force =     0.00000000    0.00000000    0.00000000
     atom    4 type  1   force =     0.00000000    0.00000000    0.00000000
     atom    5 type  1   force =     0.00000000    0.00000000    0.00000000
     atom    6 type  1   force =     0.00000000    0.00000000    0.00000000
     atom    7 type  1   force =     0.00000000    0.00000000    0.00000000
     atom    8 type  1   force =     0.00000000    0.00000000    0.00000000

     Total force =     0.000000     Total SCF correction =     0.000000


     Computing stress (Cartesian axis) and pressure

          total   stress  (Ry/bohr**3)                   (kbar)     P=     -166.99
  -0.00113520   0.00000000   0.00000000         -166.99        0.00        0.00
   0.00000000  -0.00113520   0.00000000            0.00     -166.99        0.00
   0.00000000   0.00000000  -0.00113520            0.00        0.00     -166.99


     Writing output data file /scratch/ifwTQEcMZAQFjwcV.save/
 
     init_run     :      1.35s CPU      1.46s WALL (       1 calls)
     electrons    :     53.43s CPU     54.77s WALL (       1 calls)
     forces       :      0.43s CPU      0.44s WALL (       1 calls)
     stress       :      0.69s CPU      0.71s WALL (       1 calls)

     Called by init_run:
     wfcinit      :      0.90s CPU      0.94s WALL (       1 calls)
     potinit      :      0.08s CPU      0.10s WALL (       1 calls)
     hinit0       :      0.05s CPU      0.05s WALL (       1 calls)

     Called by electrons:
     c_bands      :     46.37s CPU     47.36s WALL (      15 calls)
     sum_band     :      5.87s CPU      6.10s WALL (      15 calls)
     v_of_rho     :      0.13s CPU      0.14s WALL (      16 calls)
     newd         :      0.18s CPU      0.23s WALL (      16 calls)
     PAW_pot      :      0.81s CPU      0.85s WALL (      16 calls)
     mix_rho      :      0.07s CPU      0.08s WALL (      15 calls)

     Called by c_bands:
     init_us_2    :      0.19s CPU      0.20s WALL (    1155 calls)
     cegterg      :     45.38s CPU     46.32s WALL (     525 calls)

     Called by *egterg:
     cdiaghg      :      9.06s CPU      9.11s WALL (    1608 calls)
     h_psi        :     24.48s CPU     25.27s WALL (    1643 calls)
     s_psi        :      0.55s CPU      0.56s WALL (    1643 calls)
     g_psi        :      0.05s CPU      0.05s WALL (    1083 calls)

     Called by h_psi:
     h_psi:calbec :      2.12s CPU      2.16s WALL (    1643 calls)
     vloc_psi     :     21.56s CPU     22.30s WALL (    1643 calls)
     add_vuspsi   :      0.69s CPU      0.70s WALL (    1643 calls)

     General routines
     calbec       :      3.39s CPU      3.44s WALL (    2343 calls)
     fft          :      0.13s CPU      0.14s WALL (     231 calls)
     ffts         :      0.01s CPU      0.01s WALL (      31 calls)
     fftw         :     25.16s CPU     26.00s WALL (  257210 calls)
     interpolate  :      0.02s CPU      0.02s WALL (      16 calls)
 
     Parallel routines
     fft_scatt_xy :      2.24s CPU      2.31s WALL (  257472 calls)
     fft_scatt_yz :     20.83s CPU     21.55s WALL (  257472 calls)
 
     PWSCF        :     59.71s CPU   1m 1.72s WALL

 
   This run was terminated on:   3:45:57  30Nov2021            

=------------------------------------------------------------------------------=
   JOB DONE.
=------------------------------------------------------------------------------=
