
     Program PWSCF v.6.7MaX starts on 25Nov2021 at 16:59:29 

     This program is part of the open-source Quantum ESPRESSO suite
     for quantum simulation of materials; please cite
         "P. Giannozzi et al., J. Phys.:Condens. Matter 21 395502 (2009);
         "P. Giannozzi et al., J. Phys.:Condens. Matter 29 465901 (2017);
          URL http://www.quantum-espresso.org", 
     in publications or presentations arising from this work. More details at
     http://www.quantum-espresso.org/quote

     Parallel version (MPI & OpenMP), running on      72 processor cores
     Number of MPI processes:                72
     Threads/MPI process:                     1

     MPI processes distributed on     1 nodes
     R & G space division:  proc/nbgrp/npool/nimage =      72
     Reading input from fcc_7.in
Warning: card &CELL ignored
Warning: card CELL_DYNAMICS = 'BFGS', ignored
Warning: card CELL_FACTOR = 2.0, ignored
Warning: card PRESS = 0.0, ignored
Warning: card / ignored

     Current dimensions of program PWSCF are:
     Max number of different atomic species (ntypx) = 10
     Max number of k-points (npk) =  40000
     Max angular momentum in pseudopotentials (lmaxx) =  3
     file Ru.pbe-spn-kjpaw_psl.1.0.0.UPF: wavefunction(s)  4D renormalized

     Subspace diagonalization in iterative solution of the eigenvalue problem:
     one sub-group per band group will be used
     ELPA distributed-memory algorithm (size of sub-group:  8*  8 procs)

     Found symmetry operation: I + (  0.2500  0.2500  0.0000)
     This is a supercell, fractional translations are disabled
     Message from routine setup:
     using ibrav=0 with symmetry is DISCOURAGED, use correct ibrav instead
 
     Parallelization info
     --------------------
     sticks:   dense  smooth     PW     G-vecs:    dense   smooth      PW
     Min         252     166     43                25580    13724    1853
     Max         253     167     44                25583    13731    1862
     Sum       18165   11993   3149              1841829   988355  133819
 


     bravais-lattice index     =            0
     lattice parameter (alat)  =      14.4000  a.u.
     unit-cell volume          =   12230.5905 (a.u.)^3
     number of atoms/cell      =           32
     number of atomic types    =            1
     number of electrons       =       512.00
     number of Kohn-Sham states=          307
     kinetic-energy cutoff     =      71.0000  Ry
     charge density cutoff     =     430.0000  Ry
     scf convergence threshold =      1.0E-06
     mixing beta               =       0.1000
     number of iterations used =           10  TF        mixing
     Exchange-correlation= SLA  PW   PBX  PBC
                           (   1   4   3   4   0   0   0)

     celldm(1)=  14.400000  celldm(2)=   0.000000  celldm(3)=   0.000000
     celldm(4)=   0.000000  celldm(5)=   0.000000  celldm(6)=   0.000000

     crystal axes: (cart. coord. in units of alat)
               a(1) = (   1.600000   0.000000   0.000000 )  
               a(2) = (   0.000000   1.600000   0.000000 )  
               a(3) = (   0.000000   0.000000   1.600000 )  

     reciprocal axes: (cart. coord. in units 2 pi/alat)
               b(1) = (  0.625000  0.000000  0.000000 )  
               b(2) = (  0.000000  0.625000  0.000000 )  
               b(3) = (  0.000000  0.000000  0.625000 )  


     PseudoPot. # 1 for Ru read from file:
     /rds/homes/b/bxp912/pp/Ru.pbe-spn-kjpaw_psl.1.0.0.UPF
     MD5 check sum: 0ae1f594dea09af7be8575c3a481d1ae
     Pseudo is Projector augmented-wave + core cor, Zval = 16.0
     Generated using "atomic" code by A. Dal Corso  v.5.1
     Shape of augmentation charge: PSQ
     Using radial grid of 1233 points,  6 beta functions with: 
                l(1) =   0
                l(2) =   0
                l(3) =   1
                l(4) =   1
                l(5) =   2
                l(6) =   2
     Q(r) pseudized with 0 coefficients 


     atomic species   valence    mass     pseudopotential
        Ru            16.00   101.07000     Ru( 1.00)

     48 Sym. Ops., with inversion, found



   Cartesian axes

     site n.     atom                  positions (alat units)
         1           Ru  tau(   1) = (   0.0000000   0.0000000   0.0000000  )
         2           Ru  tau(   2) = (   0.4000000   0.4000000   0.0000000  )
         3           Ru  tau(   3) = (   0.4000000   0.0000000   0.4000000  )
         4           Ru  tau(   4) = (   0.0000000   0.4000000   0.4000000  )
         5           Ru  tau(   5) = (   0.0000000   0.0000000   0.8000000  )
         6           Ru  tau(   6) = (   0.4000000   0.4000000   0.8000000  )
         7           Ru  tau(   7) = (   0.4000000   0.0000000   1.2000000  )
         8           Ru  tau(   8) = (   0.0000000   0.4000000   1.2000000  )
         9           Ru  tau(   9) = (   0.0000000   0.8000000   0.0000000  )
        10           Ru  tau(  10) = (   0.4000000   1.2000000   0.0000000  )
        11           Ru  tau(  11) = (   0.4000000   0.8000000   0.4000000  )
        12           Ru  tau(  12) = (   0.0000000   1.2000000   0.4000000  )
        13           Ru  tau(  13) = (   0.0000000   0.8000000   0.8000000  )
        14           Ru  tau(  14) = (   0.4000000   1.2000000   0.8000000  )
        15           Ru  tau(  15) = (   0.4000000   0.8000000   1.2000000  )
        16           Ru  tau(  16) = (   0.0000000   1.2000000   1.2000000  )
        17           Ru  tau(  17) = (   0.8000000   0.0000000   0.0000000  )
        18           Ru  tau(  18) = (   1.2000000   0.4000000   0.0000000  )
        19           Ru  tau(  19) = (   1.2000000   0.0000000   0.4000000  )
        20           Ru  tau(  20) = (   0.8000000   0.4000000   0.4000000  )
        21           Ru  tau(  21) = (   0.8000000   0.0000000   0.8000000  )
        22           Ru  tau(  22) = (   1.2000000   0.4000000   0.8000000  )
        23           Ru  tau(  23) = (   1.2000000   0.0000000   1.2000000  )
        24           Ru  tau(  24) = (   0.8000000   0.4000000   1.2000000  )
        25           Ru  tau(  25) = (   0.8000000   0.8000000   0.0000000  )
        26           Ru  tau(  26) = (   1.2000000   1.2000000   0.0000000  )
        27           Ru  tau(  27) = (   1.2000000   0.8000000   0.4000000  )
        28           Ru  tau(  28) = (   0.8000000   1.2000000   0.4000000  )
        29           Ru  tau(  29) = (   0.8000000   0.8000000   0.8000000  )
        30           Ru  tau(  30) = (   1.2000000   1.2000000   0.8000000  )
        31           Ru  tau(  31) = (   1.2000000   0.8000000   1.2000000  )
        32           Ru  tau(  32) = (   0.8000000   1.2000000   1.2000000  )

     number of k points=    35  Marzari-Vanderbilt smearing, width (Ry)=  0.0400
                       cart. coord. in units 2pi/alat
        k(    1) = (   0.0347222   0.0347222   0.0347222), wk =   0.0219479
        k(    2) = (   0.0347222   0.0347222   0.1041667), wk =   0.0658436
        k(    3) = (   0.0347222   0.0347222   0.1736111), wk =   0.0658436
        k(    4) = (   0.0347222   0.0347222   0.2430556), wk =   0.0658436
        k(    5) = (   0.0347222   0.0347222  -0.3125000), wk =   0.0329218
        k(    6) = (   0.0347222   0.1041667   0.1041667), wk =   0.0658436
        k(    7) = (   0.0347222   0.1041667   0.1736111), wk =   0.1316872
        k(    8) = (   0.0347222   0.1041667   0.2430556), wk =   0.1316872
        k(    9) = (   0.0347222   0.1041667  -0.3125000), wk =   0.0658436
        k(   10) = (   0.0347222   0.1736111   0.1736111), wk =   0.0658436
        k(   11) = (   0.0347222   0.1736111   0.2430556), wk =   0.1316872
        k(   12) = (   0.0347222   0.1736111  -0.3125000), wk =   0.0658436
        k(   13) = (   0.0347222   0.2430556   0.2430556), wk =   0.0658436
        k(   14) = (   0.0347222   0.2430556  -0.3125000), wk =   0.0658436
        k(   15) = (   0.0347222  -0.3125000  -0.3125000), wk =   0.0164609
        k(   16) = (   0.1041667   0.1041667   0.1041667), wk =   0.0219479
        k(   17) = (   0.1041667   0.1041667   0.1736111), wk =   0.0658436
        k(   18) = (   0.1041667   0.1041667   0.2430556), wk =   0.0658436
        k(   19) = (   0.1041667   0.1041667  -0.3125000), wk =   0.0329218
        k(   20) = (   0.1041667   0.1736111   0.1736111), wk =   0.0658436
        k(   21) = (   0.1041667   0.1736111   0.2430556), wk =   0.1316872
        k(   22) = (   0.1041667   0.1736111  -0.3125000), wk =   0.0658436
        k(   23) = (   0.1041667   0.2430556   0.2430556), wk =   0.0658436
        k(   24) = (   0.1041667   0.2430556  -0.3125000), wk =   0.0658436
        k(   25) = (   0.1041667  -0.3125000  -0.3125000), wk =   0.0164609
        k(   26) = (   0.1736111   0.1736111   0.1736111), wk =   0.0219479
        k(   27) = (   0.1736111   0.1736111   0.2430556), wk =   0.0658436
        k(   28) = (   0.1736111   0.1736111  -0.3125000), wk =   0.0329218
        k(   29) = (   0.1736111   0.2430556   0.2430556), wk =   0.0658436
        k(   30) = (   0.1736111   0.2430556  -0.3125000), wk =   0.0658436
        k(   31) = (   0.1736111  -0.3125000  -0.3125000), wk =   0.0164609
        k(   32) = (   0.2430556   0.2430556   0.2430556), wk =   0.0219479
        k(   33) = (   0.2430556   0.2430556  -0.3125000), wk =   0.0329218
        k(   34) = (   0.2430556  -0.3125000  -0.3125000), wk =   0.0164609
        k(   35) = (  -0.3125000  -0.3125000  -0.3125000), wk =   0.0027435

     Dense  grid:  1841829 G-vectors     FFT dimensions: ( 160, 160, 160)

     Smooth grid:   988355 G-vectors     FFT dimensions: ( 125, 125, 125)

     Estimated max dynamical RAM per process >     433.13 MB

     Estimated total dynamical RAM >      30.45 GB

     Check: negative core charge=   -0.000001

     Initial potential from superposition of free atoms

     starting charge  511.97959, renormalised to  512.00000
     Starting wfcs are  320 randomized atomic wfcs
     Checking if some PAW data can be deallocated... 

     total cpu time spent up to now is       39.8 secs

     Self-consistent Calculation

     iteration #  1     ecut=    71.00 Ry     beta= 0.10
     Davidson diagonalization with overlap
     ethr =  1.00E-02,  avg # of iterations =  2.0

     total cpu time spent up to now is      124.9 secs

     total energy              =  -13798.90544470 Ry
     estimated scf accuracy    <      13.59683914 Ry

     iteration #  2     ecut=    71.00 Ry     beta= 0.10
     Davidson diagonalization with overlap
     ethr =  2.66E-03,  avg # of iterations =  1.1

     total cpu time spent up to now is      204.6 secs

     total energy              =  -13796.91907237 Ry
     estimated scf accuracy    <       7.92738594 Ry

     iteration #  3     ecut=    71.00 Ry     beta= 0.10
     Davidson diagonalization with overlap
     ethr =  1.55E-03,  avg # of iterations =  2.0

     total cpu time spent up to now is      298.5 secs

     total energy              =  -13797.69917328 Ry
     estimated scf accuracy    <       5.40801022 Ry

     iteration #  4     ecut=    71.00 Ry     beta= 0.10
     Davidson diagonalization with overlap
     ethr =  1.06E-03,  avg # of iterations =  1.3

     total cpu time spent up to now is      373.8 secs

     total energy              =  -13797.78937108 Ry
     estimated scf accuracy    <       0.32542022 Ry

     iteration #  5     ecut=    71.00 Ry     beta= 0.10
     Davidson diagonalization with overlap
     ethr =  6.36E-05,  avg # of iterations =  5.1

     total cpu time spent up to now is      473.2 secs

     total energy              =  -13797.76055846 Ry
     estimated scf accuracy    <       0.14114565 Ry

     iteration #  6     ecut=    71.00 Ry     beta= 0.10
     Davidson diagonalization with overlap
     ethr =  2.76E-05,  avg # of iterations =  2.0

     total cpu time spent up to now is      569.2 secs

     total energy              =  -13797.76103666 Ry
     estimated scf accuracy    <       1.39814228 Ry

     iteration #  7     ecut=    71.00 Ry     beta= 0.10
     Davidson diagonalization with overlap
     ethr =  2.76E-05,  avg # of iterations =  1.0

     total cpu time spent up to now is      646.1 secs

     total energy              =  -13797.76490795 Ry
     estimated scf accuracy    <       0.32917041 Ry

     iteration #  8     ecut=    71.00 Ry     beta= 0.10
     Davidson diagonalization with overlap
     ethr =  2.76E-05,  avg # of iterations =  1.0

     total cpu time spent up to now is      717.4 secs

     total energy              =  -13797.76705689 Ry
     estimated scf accuracy    <       0.10061844 Ry

     iteration #  9     ecut=    71.00 Ry     beta= 0.10
     Davidson diagonalization with overlap
     ethr =  1.97E-05,  avg # of iterations =  1.0

     total cpu time spent up to now is      787.8 secs

     total energy              =  -13797.76893156 Ry
     estimated scf accuracy    <       0.10564747 Ry

     iteration # 10     ecut=    71.00 Ry     beta= 0.10
     Davidson diagonalization with overlap
     ethr =  1.97E-05,  avg # of iterations =  1.0

     total cpu time spent up to now is      855.5 secs

     total energy              =  -13797.77084960 Ry
     estimated scf accuracy    <       0.10566577 Ry

     iteration # 11     ecut=    71.00 Ry     beta= 0.10
     Davidson diagonalization with overlap
     ethr =  1.97E-05,  avg # of iterations =  1.0

     total cpu time spent up to now is      923.6 secs

     total energy              =  -13797.76735027 Ry
     estimated scf accuracy    <       0.04167399 Ry

     iteration # 12     ecut=    71.00 Ry     beta= 0.10
     Davidson diagonalization with overlap
     ethr =  8.14E-06,  avg # of iterations =  1.0

     total cpu time spent up to now is      991.2 secs

     total energy              =  -13797.76751864 Ry
     estimated scf accuracy    <       0.01785796 Ry

     iteration # 13     ecut=    71.00 Ry     beta= 0.10
     Davidson diagonalization with overlap
     ethr =  3.49E-06,  avg # of iterations =  1.0

     total cpu time spent up to now is     1058.5 secs

     total energy              =  -13797.76571448 Ry
     estimated scf accuracy    <       0.01782682 Ry

     iteration # 14     ecut=    71.00 Ry     beta= 0.10
     Davidson diagonalization with overlap
     ethr =  3.48E-06,  avg # of iterations =  2.0

     total cpu time spent up to now is     1140.9 secs

     total energy              =  -13797.76673387 Ry
     estimated scf accuracy    <       0.00063284 Ry

     iteration # 15     ecut=    71.00 Ry     beta= 0.10
     Davidson diagonalization with overlap
     ethr =  1.24E-07,  avg # of iterations =  5.5

     total cpu time spent up to now is     1249.8 secs

     total energy              =  -13797.76669957 Ry
     estimated scf accuracy    <       0.00044070 Ry

     iteration # 16     ecut=    71.00 Ry     beta= 0.10
     Davidson diagonalization with overlap
     ethr =  8.61E-08,  avg # of iterations =  3.7

     total cpu time spent up to now is     1348.2 secs

     total energy              =  -13797.76682080 Ry
     estimated scf accuracy    <       0.00004198 Ry

     iteration # 17     ecut=    71.00 Ry     beta= 0.10
     Davidson diagonalization with overlap
     ethr =  8.20E-09,  avg # of iterations =  6.2

     total cpu time spent up to now is     1518.9 secs

     total energy              =  -13797.76692524 Ry
     estimated scf accuracy    <       0.00163963 Ry

     iteration # 18     ecut=    71.00 Ry     beta= 0.10
     Davidson diagonalization with overlap
     ethr =  8.20E-09,  avg # of iterations =  4.8

     total cpu time spent up to now is     1629.1 secs

     total energy              =  -13797.76668933 Ry
     estimated scf accuracy    <       0.00077253 Ry

     iteration # 19     ecut=    71.00 Ry     beta= 0.10
     Davidson diagonalization with overlap
     ethr =  8.20E-09,  avg # of iterations =  6.0

     total cpu time spent up to now is     1774.8 secs

     total energy              =  -13797.76682157 Ry
     estimated scf accuracy    <       0.00000888 Ry

     iteration # 20     ecut=    71.00 Ry     beta= 0.10
     Davidson diagonalization with overlap
     ethr =  1.73E-09,  avg # of iterations =  5.9

     total cpu time spent up to now is     1929.3 secs

     total energy              =  -13797.76683211 Ry
     estimated scf accuracy    <       0.00013522 Ry

     iteration # 21     ecut=    71.00 Ry     beta= 0.10
     Davidson diagonalization with overlap
     ethr =  1.73E-09,  avg # of iterations =  4.3

     total cpu time spent up to now is     2035.0 secs

     total energy              =  -13797.76682409 Ry
     estimated scf accuracy    <       0.00005777 Ry

     iteration # 22     ecut=    71.00 Ry     beta= 0.10
     Davidson diagonalization with overlap
     ethr =  1.73E-09,  avg # of iterations =  4.5

     total cpu time spent up to now is     2144.1 secs

     total energy              =  -13797.76682480 Ry
     estimated scf accuracy    <       0.00001141 Ry

     iteration # 23     ecut=    71.00 Ry     beta= 0.10
     Davidson diagonalization with overlap
     ethr =  1.73E-09,  avg # of iterations =  2.1

     total cpu time spent up to now is     2225.4 secs

     total energy              =  -13797.76682435 Ry
     estimated scf accuracy    <       0.00000303 Ry

     iteration # 24     ecut=    71.00 Ry     beta= 0.10
     Davidson diagonalization with overlap
     ethr =  5.92E-10,  avg # of iterations =  4.9

     total cpu time spent up to now is     2337.6 secs

     End of self-consistent calculation

          k = 0.0347 0.0347 0.0347 (123590 PWs)   bands (ev):

   -69.3518 -69.3516 -69.3516 -69.3516 -69.3516 -69.3515 -69.3515 -69.3515
   -69.3515 -69.3515 -69.3515 -69.3515 -69.3515 -69.3515 -69.3515 -69.3515
   -69.3515 -69.3515 -69.3515 -69.3515 -69.3515 -69.3515 -69.3515 -69.3515
   -69.3515 -69.3515 -69.3515 -69.3515 -69.3515 -69.3515 -69.3515 -69.3515
   -39.3882 -39.3882 -39.3882 -39.3882 -39.3882 -39.3882 -39.3882 -39.3875
   -39.3875 -39.3875 -39.3875 -39.3875 -39.3874 -39.3874 -39.3874 -39.3874
   -39.3874 -39.3874 -39.3874 -39.3874 -39.3874 -39.3874 -39.3874 -39.3874
   -39.3874 -39.3872 -39.3872 -39.3872 -39.3872 -39.3872 -39.3872 -39.3869
   -39.3868 -39.3868 -39.3867 -39.3867 -39.3867 -39.3866 -39.3866 -39.3866
   -39.3866 -39.3866 -39.3866 -39.3866 -39.3866 -39.3866 -39.3865 -39.3865
   -39.3865 -39.3865 -39.3865 -39.3865 -39.3865 -39.3865 -39.3865 -39.3864
   -39.3864 -39.3864 -39.3864 -39.3864 -39.3864 -39.3859 -39.3859 -39.3859
   -39.3859 -39.3859 -39.3859 -39.3858 -39.3858 -39.3858 -39.3858 -39.3858
   -39.3858 -39.3858 -39.3858 -39.3858 -39.3857 -39.3857 -39.3857 -39.3857
   -39.3857 -39.3857 -39.3857 -39.3857 -39.3857 -39.3857 -39.3857 -39.3857
   -39.3857 -39.3857 -39.3857 -39.3857 -39.3856 -39.3852 -39.3852 -39.3852
     0.1590   1.0343   1.0343   1.0343   1.1913   1.1913   1.1913   1.2521
     1.2579   1.2579   1.2579   1.3661   1.3661   1.3661   1.4150   1.4150
     1.4150   1.4852   1.4852   1.4852   1.5279   1.5279   1.5279   1.5279
     1.5279   1.5279   1.5448   1.5448   1.5448   1.5622   1.5622   1.5622
     1.5810   1.5810   1.5810   1.5810   1.5810   1.5810   1.5911   1.5911
     1.5911   1.6747   1.6747   1.6747   1.6747   1.6747   1.6747   1.6841
     1.6841   1.6841   1.6894   1.6894   1.6894   1.6894   1.6894   1.6894
     1.7032   1.7032   1.7032   1.7361   1.7361   1.7361   1.7362   1.7362
     1.7362   1.7424   1.7424   1.7424   1.7440   1.7449   1.7449   1.7467
     1.7467   1.7467   1.7467   1.7467   1.7718   1.7718   1.7718   1.7718
     1.7718   1.7718   1.7808   1.7808   1.7808   1.7825   1.7825   1.7825
     1.8789   1.8789   1.8789   1.8895   1.8896   1.8896   1.9029   1.9029
     1.9029   1.9039   1.9039   1.9039   1.9039   1.9039   1.9039   1.9175
     1.9175   1.9175   1.9242   1.9242   1.9242   1.9447   1.9447   1.9447
     1.9619   1.9619   1.9619   1.9666   1.9666   1.9666   1.9678   1.9678
     1.9782   1.9782   1.9782   1.9782   1.9782   1.9782   1.9890   1.9890
     1.9890   1.9890   1.9890   1.9890   1.9969   1.9969   1.9969   2.0048
     2.0048   2.0048   2.0459   2.0459   2.0459   2.0613   2.0613   2.0613
     2.1348   2.1348   2.1348   2.1399   2.1399   2.1399   2.1454   2.1454
     2.1481   2.1481   2.1481   2.1888   2.1888   2.1888   2.1924   2.1924
     2.1924   2.1924   2.1924   2.1924   2.1928   2.1928   2.1928   2.6491
     2.6491   2.6491   2.8243   2.8243   2.8243   2.8243   2.8243   2.8243
     3.0113   3.0113   3.0113

          k = 0.0347 0.0347 0.1042 (123514 PWs)   bands (ev):

   -69.3518 -69.3516 -69.3516 -69.3515 -69.3515 -69.3515 -69.3515 -69.3515
   -69.3515 -69.3515 -69.3515 -69.3515 -69.3515 -69.3515 -69.3515 -69.3515
   -69.3515 -69.3515 -69.3515 -69.3515 -69.3515 -69.3515 -69.3515 -69.3515
   -69.3515 -69.3515 -69.3515 -69.3515 -69.3515 -69.3515 -69.3515 -69.3515
   -39.3882 -39.3882 -39.3882 -39.3882 -39.3881 -39.3881 -39.3881 -39.3876
   -39.3875 -39.3875 -39.3875 -39.3875 -39.3875 -39.3875 -39.3875 -39.3875
   -39.3874 -39.3874 -39.3874 -39.3874 -39.3874 -39.3874 -39.3873 -39.3873
   -39.3873 -39.3873 -39.3873 -39.3872 -39.3872 -39.3871 -39.3871 -39.3871
   -39.3869 -39.3869 -39.3868 -39.3868 -39.3867 -39.3867 -39.3866 -39.3866
   -39.3866 -39.3865 -39.3865 -39.3865 -39.3865 -39.3865 -39.3865 -39.3865
   -39.3865 -39.3865 -39.3865 -39.3864 -39.3864 -39.3864 -39.3864 -39.3864
   -39.3864 -39.3864 -39.3863 -39.3863 -39.3863 -39.3861 -39.3860 -39.3860
   -39.3860 -39.3859 -39.3859 -39.3858 -39.3858 -39.3858 -39.3858 -39.3858
   -39.3858 -39.3858 -39.3858 -39.3858 -39.3857 -39.3857 -39.3857 -39.3857
   -39.3857 -39.3857 -39.3857 -39.3857 -39.3857 -39.3857 -39.3857 -39.3857
   -39.3857 -39.3857 -39.3857 -39.3856 -39.3856 -39.3853 -39.3852 -39.3852
     0.1856   0.8635   1.0537   1.0537   1.2085   1.2085   1.2554   1.2670
     1.2670   1.2726   1.3070   1.3701   1.3760   1.3760   1.4199   1.4226
     1.4226   1.4301   1.4301   1.4488   1.4888   1.4888   1.5007   1.5007
     1.5100   1.5340   1.5570   1.5570   1.5618   1.5618   1.5621   1.5621
     1.5669   1.5669   1.5841   1.5841   1.5873   1.5873   1.5951   1.5951
     1.6195   1.6195   1.6196   1.6722   1.6722   1.6725   1.6725   1.6744
     1.6744   1.6747   1.6747   1.6900   1.6900   1.7029   1.7029   1.7032
     1.7067   1.7125   1.7125   1.7287   1.7287   1.7373   1.7373   1.7380
     1.7393   1.7402   1.7402   1.7455   1.7486   1.7496   1.7496   1.7517
     1.7519   1.7519   1.7521   1.7526   1.7526   1.7540   1.7709   1.7709
     1.7768   1.7768   1.8021   1.8021   1.8070   1.8070   1.8120   1.8233
     1.8490   1.8490   1.8656   1.8674   1.8742   1.8742   1.8837   1.8837
     1.8837   1.8883   1.8944   1.8944   1.9088   1.9185   1.9185   1.9193
     1.9193   1.9217   1.9217   1.9285   1.9285   1.9516   1.9516   1.9588
     1.9588   1.9628   1.9704   1.9739   1.9739   1.9783   1.9785   1.9785
     1.9802   1.9802   1.9806   1.9806   1.9901   1.9929   1.9929   2.0002
     2.0113   2.0113   2.0170   2.0170   2.0238   2.0267   2.0267   2.0303
     2.0303   2.0309   2.0552   2.0552   2.0767   2.0817   2.0817   2.0961
     2.1221   2.1235   2.1235   2.1279   2.1279   2.1318   2.1366   2.1374
     2.1446   2.1452   2.1452   2.1686   2.1686   2.1802   2.1832   2.1832
     2.1833   2.1833   2.1848   2.1923   2.1923   2.1924   2.1924   2.5045
     2.5045   2.6626   2.6630   2.6630   2.8431   2.8431   3.0309   3.0309
     3.0340   3.2238   3.2238

          k = 0.0347 0.0347 0.1736 (123531 PWs)   bands (ev):

   -69.3518 -69.3516 -69.3516 -69.3515 -69.3515 -69.3515 -69.3515 -69.3515
   -69.3515 -69.3515 -69.3515 -69.3515 -69.3515 -69.3515 -69.3515 -69.3515
   -69.3515 -69.3515 -69.3515 -69.3515 -69.3515 -69.3515 -69.3515 -69.3515
   -69.3515 -69.3515 -69.3515 -69.3515 -69.3515 -69.3515 -69.3515 -69.3515
   -39.3882 -39.3881 -39.3881 -39.3881 -39.3881 -39.3881 -39.3880 -39.3877
   -39.3877 -39.3877 -39.3876 -39.3876 -39.3876 -39.3875 -39.3875 -39.3875
   -39.3875 -39.3875 -39.3874 -39.3874 -39.3874 -39.3873 -39.3873 -39.3873
   -39.3873 -39.3873 -39.3872 -39.3872 -39.3872 -39.3872 -39.3870 -39.3870
   -39.3870 -39.3870 -39.3869 -39.3869 -39.3868 -39.3868 -39.3867 -39.3867
   -39.3866 -39.3866 -39.3865 -39.3865 -39.3865 -39.3865 -39.3864 -39.3864
   -39.3864 -39.3864 -39.3864 -39.3863 -39.3863 -39.3863 -39.3863 -39.3863
   -39.3863 -39.3862 -39.3862 -39.3862 -39.3862 -39.3861 -39.3861 -39.3860
   -39.3860 -39.3859 -39.3859 -39.3859 -39.3859 -39.3859 -39.3859 -39.3859
   -39.3858 -39.3858 -39.3858 -39.3858 -39.3858 -39.3858 -39.3857 -39.3857
   -39.3857 -39.3857 -39.3857 -39.3857 -39.3857 -39.3857 -39.3857 -39.3857
   -39.3856 -39.3856 -39.3856 -39.3856 -39.3856 -39.3853 -39.3852 -39.3852
     0.2387   0.6986   1.0916   1.0917   1.2418   1.2418   1.2677   1.2851
     1.2851   1.2959   1.3626   1.3627   1.3688   1.3774   1.3951   1.3951
     1.4019   1.4294   1.4377   1.4377   1.4385   1.4385   1.4590   1.4590
     1.4615   1.5073   1.5301   1.5301   1.5675   1.5675   1.5705   1.5705
     1.5762   1.5762   1.5882   1.5882   1.5902   1.5902   1.5991   1.5991
     1.6031   1.6031   1.6471   1.6514   1.6514   1.6607   1.6607   1.6711
     1.6711   1.6735   1.6735   1.6847   1.6847   1.7063   1.7125   1.7125
     1.7137   1.7138   1.7170   1.7170   1.7227   1.7265   1.7266   1.7291
     1.7323   1.7366   1.7366   1.7390   1.7390   1.7401   1.7401   1.7443
     1.7548   1.7548   1.7578   1.7626   1.7629   1.7637   1.7637   1.7666
     1.7677   1.7677   1.8183   1.8183   1.8303   1.8303   1.8403   1.8443
     1.8443   1.8506   1.8551   1.8575   1.8713   1.8713   1.8718   1.8794
     1.8794   1.8827   1.8966   1.9078   1.9078   1.9204   1.9204   1.9370
     1.9370   1.9391   1.9391   1.9465   1.9465   1.9521   1.9521   1.9531
     1.9572   1.9572   1.9754   1.9782   1.9782   1.9795   1.9795   1.9835
     1.9835   1.9874   1.9874   2.0168   2.0174   2.0174   2.0200   2.0296
     2.0306   2.0306   2.0376   2.0402   2.0402   2.0483   2.0483   2.0497
     2.0535   2.0535   2.0871   2.0871   2.0921   2.0929   2.0952   2.0952
     2.1131   2.1131   2.1138   2.1219   2.1255   2.1309   2.1309   2.1348
     2.1348   2.1351   2.1424   2.1424   2.1633   2.1657   2.1657   2.1660
     2.1660   2.1696   2.1923   2.1923   2.1923   2.1923   2.2858   2.3866
     2.3866   2.5256   2.5256   2.6919   2.8825   2.8825   3.0762   3.0806
     3.2665   3.2665   3.3102

          k = 0.0347 0.0347 0.2431 (123531 PWs)   bands (ev):

   -69.3518 -69.3516 -69.3516 -69.3515 -69.3515 -69.3515 -69.3515 -69.3515
   -69.3515 -69.3515 -69.3515 -69.3515 -69.3515 -69.3515 -69.3515 -69.3515
   -69.3515 -69.3515 -69.3515 -69.3515 -69.3515 -69.3515 -69.3515 -69.3515
   -69.3515 -69.3515 -69.3515 -69.3515 -69.3515 -69.3515 -69.3515 -69.3515
   -39.3881 -39.3881 -39.3880 -39.3880 -39.3880 -39.3880 -39.3879 -39.3878
   -39.3878 -39.3878 -39.3878 -39.3878 -39.3877 -39.3876 -39.3875 -39.3875
   -39.3875 -39.3875 -39.3875 -39.3875 -39.3874 -39.3874 -39.3872 -39.3872
   -39.3872 -39.3872 -39.3871 -39.3871 -39.3871 -39.3871 -39.3870 -39.3870
   -39.3870 -39.3870 -39.3869 -39.3869 -39.3869 -39.3869 -39.3868 -39.3868
   -39.3867 -39.3867 -39.3865 -39.3865 -39.3864 -39.3864 -39.3864 -39.3864
   -39.3863 -39.3863 -39.3862 -39.3862 -39.3862 -39.3862 -39.3862 -39.3862
   -39.3862 -39.3862 -39.3862 -39.3861 -39.3861 -39.3861 -39.3861 -39.3861
   -39.3860 -39.3860 -39.3860 -39.3860 -39.3860 -39.3859 -39.3859 -39.3859
   -39.3859 -39.3859 -39.3858 -39.3858 -39.3858 -39.3858 -39.3857 -39.3857
   -39.3857 -39.3857 -39.3857 -39.3857 -39.3857 -39.3857 -39.3857 -39.3856
   -39.3856 -39.3856 -39.3856 -39.3855 -39.3855 -39.3854 -39.3853 -39.3853
     0.3177   0.5497   1.1459   1.1460   1.2877   1.2877   1.2887   1.2887
     1.2890   1.3119   1.3119   1.3274   1.3572   1.3860   1.3899   1.3899
     1.3909   1.4045   1.4046   1.4120   1.4223   1.4223   1.4433   1.4604
     1.4604   1.4828   1.4927   1.4927   1.5274   1.5274   1.5773   1.5774
     1.5894   1.5894   1.5899   1.5899   1.6137   1.6137   1.6145   1.6145
     1.6146   1.6146   1.6288   1.6288   1.6448   1.6448   1.6681   1.6681
     1.6721   1.6721   1.6725   1.6751   1.6751   1.7030   1.7030   1.7074
     1.7074   1.7114   1.7114   1.7117   1.7142   1.7196   1.7196   1.7255
     1.7314   1.7317   1.7317   1.7408   1.7408   1.7415   1.7446   1.7446
     1.7455   1.7455   1.7665   1.7665   1.7721   1.7788   1.7789   1.7797
     1.7797   1.7840   1.7926   1.7926   1.7931   1.7931   1.8142   1.8238
     1.8238   1.8248   1.8254   1.8306   1.9070   1.9157   1.9157   1.9191
     1.9191   1.9395   1.9395   1.9395   1.9416   1.9416   1.9447   1.9447
     1.9481   1.9481   1.9545   1.9545   1.9554   1.9554   1.9567   1.9567
     1.9698   1.9698   1.9755   1.9755   1.9826   1.9826   1.9828   1.9842
     1.9842   1.9889   1.9889   2.0038   2.0196   2.0196   2.0457   2.0457
     2.0499   2.0527   2.0544   2.0544   2.0692   2.0692   2.0717   2.0718
     2.0724   2.0724   2.0729   2.0760   2.0809   2.0809   2.0831   2.0831
     2.0987   2.0987   2.1021   2.1079   2.1154   2.1179   2.1179   2.1200
     2.1390   2.1411   2.1411   2.1417   2.1417   2.1418   2.1418   2.1488
     2.1923   2.1923   2.1923   2.1923   2.2194   2.2194   2.2898   2.2898
     2.4084   2.4085   2.5512   2.7419   2.9296   2.9457   2.9457   3.1528
     3.1576   3.1577   3.2248

          k = 0.0347 0.0347-0.3125 (123478 PWs)   bands (ev):

   -69.3518 -69.3516 -69.3516 -69.3515 -69.3515 -69.3515 -69.3515 -69.3515
   -69.3515 -69.3515 -69.3515 -69.3515 -69.3515 -69.3515 -69.3515 -69.3515
   -69.3515 -69.3515 -69.3515 -69.3515 -69.3515 -69.3515 -69.3515 -69.3515
   -69.3515 -69.3515 -69.3515 -69.3515 -69.3515 -69.3515 -69.3515 -69.3515
   -39.3880 -39.3880 -39.3879 -39.3879 -39.3879 -39.3879 -39.3879 -39.3879
   -39.3879 -39.3879 -39.3878 -39.3878 -39.3877 -39.3877 -39.3875 -39.3875
   -39.3875 -39.3875 -39.3874 -39.3874 -39.3874 -39.3874 -39.3872 -39.3872
   -39.3871 -39.3871 -39.3871 -39.3871 -39.3871 -39.3871 -39.3870 -39.3870
   -39.3870 -39.3870 -39.3869 -39.3869 -39.3869 -39.3869 -39.3867 -39.3867
   -39.3867 -39.3867 -39.3865 -39.3864 -39.3864 -39.3864 -39.3863 -39.3863
   -39.3863 -39.3863 -39.3862 -39.3861 -39.3861 -39.3861 -39.3861 -39.3861
   -39.3861 -39.3861 -39.3861 -39.3861 -39.3861 -39.3861 -39.3861 -39.3861
   -39.3861 -39.3861 -39.3861 -39.3860 -39.3860 -39.3860 -39.3860 -39.3860
   -39.3860 -39.3860 -39.3858 -39.3858 -39.3857 -39.3857 -39.3857 -39.3857
   -39.3857 -39.3857 -39.3857 -39.3857 -39.3856 -39.3856 -39.3856 -39.3856
   -39.3856 -39.3856 -39.3856 -39.3856 -39.3854 -39.3854 -39.3854 -39.3854
     0.4218   0.4219   1.2131   1.2131   1.2131   1.2131   1.3191   1.3191
     1.3450   1.3451   1.3451   1.3451   1.3471   1.3471   1.3471   1.3471
     1.3665   1.3665   1.3927   1.3927   1.4556   1.4556   1.4556   1.4556
     1.4613   1.4613   1.4904   1.4904   1.4904   1.4904   1.5854   1.5854
     1.5854   1.5854   1.6077   1.6077   1.6077   1.6077   1.6250   1.6250
     1.6250   1.6250   1.6288   1.6288   1.6288   1.6288   1.6621   1.6621
     1.6621   1.6621   1.6869   1.6869   1.6869   1.6869   1.6952   1.6952
     1.7056   1.7056   1.7056   1.7056   1.7184   1.7184   1.7260   1.7260
     1.7260   1.7260   1.7373   1.7373   1.7425   1.7425   1.7425   1.7426
     1.7632   1.7632   1.7632   1.7632   1.7753   1.7753   1.7753   1.7753
     1.7911   1.7911   1.7998   1.7998   1.7999   1.7999   1.8001   1.8001
     1.8001   1.8001   1.8056   1.8056   1.9179   1.9179   1.9179   1.9179
     1.9233   1.9233   1.9529   1.9529   1.9529   1.9529   1.9688   1.9688
     1.9688   1.9688   1.9695   1.9695   1.9695   1.9695   1.9802   1.9802
     1.9802   1.9802   1.9924   1.9924   2.0015   2.0015   2.0015   2.0015
     2.0027   2.0027   2.0044   2.0044   2.0044   2.0044   2.0101   2.0101
     2.0101   2.0101   2.0149   2.0149   2.0736   2.0736   2.0736   2.0736
     2.0777   2.0777   2.0956   2.0956   2.0956   2.0956   2.0987   2.0987
     2.0999   2.0999   2.1081   2.1081   2.1127   2.1127   2.1127   2.1127
     2.1133   2.1133   2.1133   2.1133   2.1265   2.1265   2.1923   2.1923
     2.1923   2.1923   2.2090   2.2090   2.2090   2.2090   2.3075   2.3075
     2.3075   2.3075   2.8191   2.8192   2.8686   2.8686   3.0364   3.0364
     3.0364   3.0364   3.2523

          k = 0.0347 0.1042 0.1042 (123513 PWs)   bands (ev):

   -69.3518 -69.3516 -69.3516 -69.3515 -69.3515 -69.3515 -69.3515 -69.3515
   -69.3515 -69.3515 -69.3515 -69.3515 -69.3515 -69.3515 -69.3515 -69.3515
   -69.3515 -69.3515 -69.3515 -69.3515 -69.3515 -69.3515 -69.3515 -69.3515
   -69.3515 -69.3515 -69.3515 -69.3515 -69.3515 -69.3515 -69.3515 -69.3515
   -39.3882 -39.3882 -39.3881 -39.3881 -39.3881 -39.3881 -39.3881 -39.3876
   -39.3876 -39.3876 -39.3876 -39.3875 -39.3875 -39.3875 -39.3875 -39.3875
   -39.3875 -39.3875 -39.3874 -39.3874 -39.3874 -39.3874 -39.3873 -39.3873
   -39.3872 -39.3872 -39.3872 -39.3871 -39.3871 -39.3871 -39.3871 -39.3871
   -39.3871 -39.3869 -39.3869 -39.3867 -39.3867 -39.3867 -39.3866 -39.3866
   -39.3866 -39.3866 -39.3866 -39.3865 -39.3865 -39.3865 -39.3865 -39.3865
   -39.3864 -39.3864 -39.3864 -39.3864 -39.3864 -39.3864 -39.3864 -39.3864
   -39.3864 -39.3864 -39.3862 -39.3862 -39.3862 -39.3861 -39.3861 -39.3860
   -39.3860 -39.3859 -39.3859 -39.3859 -39.3858 -39.3858 -39.3858 -39.3858
   -39.3858 -39.3858 -39.3858 -39.3858 -39.3858 -39.3858 -39.3857 -39.3857
   -39.3857 -39.3857 -39.3857 -39.3857 -39.3857 -39.3857 -39.3857 -39.3857
   -39.3856 -39.3856 -39.3856 -39.3856 -39.3855 -39.3853 -39.3852 -39.3852
     0.2121   0.8849   0.8850   1.0718   1.2237   1.2522   1.2702   1.2869
     1.2869   1.3222   1.3222   1.3457   1.3801   1.3801   1.3842   1.4009
     1.4009   1.4273   1.4273   1.4314   1.4619   1.4619   1.5230   1.5230
     1.5283   1.5283   1.5393   1.5393   1.5511   1.5574   1.5574   1.5593
     1.5593   1.5687   1.5687   1.5733   1.5902   1.5902   1.6006   1.6214
     1.6214   1.6231   1.6231   1.6276   1.6276   1.6656   1.6656   1.6681
     1.6681   1.6732   1.6934   1.6934   1.6999   1.6999   1.7011   1.7011
     1.7047   1.7047   1.7216   1.7216   1.7304   1.7331   1.7331   1.7375
     1.7375   1.7375   1.7396   1.7468   1.7523   1.7541   1.7571   1.7578
     1.7621   1.7621   1.7737   1.7737   1.7743   1.7891   1.7892   1.7895
     1.7906   1.7906   1.7942   1.7942   1.8013   1.8013   1.8164   1.8164
     1.8338   1.8421   1.8421   1.8531   1.8695   1.8695   1.8832   1.8866
     1.8866   1.8937   1.8937   1.9006   1.9006   1.9075   1.9082   1.9082
     1.9233   1.9233   1.9244   1.9300   1.9334   1.9334   1.9402   1.9480
     1.9480   1.9617   1.9695   1.9792   1.9792   1.9801   1.9801   1.9915
     1.9915   1.9969   1.9969   1.9971   1.9971   2.0079   2.0094   2.0094
     2.0127   2.0127   2.0366   2.0366   2.0382   2.0382   2.0421   2.0441
     2.0441   2.0569   2.0744   2.0744   2.0756   2.0839   2.1004   2.1004
     2.1041   2.1207   2.1214   2.1226   2.1226   2.1395   2.1464   2.1464
     2.1475   2.1536   2.1616   2.1616   2.1647   2.1648   2.1755   2.1755
     2.1831   2.1831   2.1835   2.1835   2.1845   2.1845   2.1872   2.3801
     2.5130   2.5130   2.6779   2.6779   2.8588   2.8588   3.0462   3.0543
     3.0543   3.2496   3.2496

          k = 0.0347 0.1042 0.1736 (123546 PWs)   bands (ev):

   -69.3518 -69.3516 -69.3516 -69.3515 -69.3515 -69.3515 -69.3515 -69.3515
   -69.3515 -69.3515 -69.3515 -69.3515 -69.3515 -69.3515 -69.3515 -69.3515
   -69.3515 -69.3515 -69.3515 -69.3515 -69.3515 -69.3515 -69.3515 -69.3515
   -69.3515 -69.3515 -69.3515 -69.3515 -69.3515 -69.3515 -69.3515 -69.3515
   -39.3882 -39.3882 -39.3881 -39.3880 -39.3880 -39.3880 -39.3880 -39.3877
   -39.3877 -39.3876 -39.3876 -39.3876 -39.3876 -39.3876 -39.3875 -39.3875
   -39.3875 -39.3875 -39.3875 -39.3875 -39.3875 -39.3874 -39.3874 -39.3873
   -39.3872 -39.3872 -39.3872 -39.3872 -39.3871 -39.3870 -39.3870 -39.3870
   -39.3870 -39.3870 -39.3869 -39.3868 -39.3868 -39.3867 -39.3867 -39.3867
   -39.3866 -39.3866 -39.3865 -39.3865 -39.3865 -39.3865 -39.3865 -39.3865
   -39.3864 -39.3864 -39.3864 -39.3863 -39.3863 -39.3863 -39.3863 -39.3863
   -39.3862 -39.3862 -39.3862 -39.3861 -39.3861 -39.3861 -39.3861 -39.3861
   -39.3860 -39.3860 -39.3860 -39.3859 -39.3859 -39.3859 -39.3859 -39.3859
   -39.3859 -39.3858 -39.3858 -39.3858 -39.3858 -39.3858 -39.3858 -39.3857
   -39.3857 -39.3857 -39.3857 -39.3857 -39.3857 -39.3857 -39.3857 -39.3856
   -39.3856 -39.3856 -39.3856 -39.3855 -39.3855 -39.3854 -39.3853 -39.3852
     0.2649   0.7216   0.9271   1.1067   1.2517   1.2527   1.2577   1.2822
     1.3095   1.3145   1.3441   1.3516   1.3620   1.3824   1.3876   1.3995
     1.4001   1.4144   1.4275   1.4367   1.4423   1.4489   1.4728   1.4843
     1.5132   1.5232   1.5338   1.5361   1.5455   1.5471   1.5499   1.5537
     1.5551   1.5736   1.5816   1.5860   1.5862   1.5930   1.6010   1.6019
     1.6117   1.6253   1.6296   1.6425   1.6425   1.6499   1.6519   1.6561
     1.6654   1.6681   1.6783   1.6906   1.6913   1.6923   1.6942   1.6971
     1.6983   1.7129   1.7182   1.7249   1.7267   1.7292   1.7293   1.7310
     1.7378   1.7392   1.7455   1.7477   1.7495   1.7601   1.7633   1.7663
     1.7671   1.7680   1.7736   1.7739   1.7743   1.7755   1.7766   1.7897
     1.7995   1.8020   1.8112   1.8186   1.8198   1.8208   1.8283   1.8365
     1.8390   1.8541   1.8553   1.8579   1.8625   1.8647   1.8690   1.8741
     1.8769   1.8838   1.8857   1.8861   1.8898   1.8988   1.9035   1.9127
     1.9196   1.9219   1.9298   1.9321   1.9405   1.9492   1.9536   1.9681
     1.9734   1.9739   1.9758   1.9789   1.9791   1.9826   1.9881   1.9953
     2.0024   2.0134   2.0142   2.0146   2.0168   2.0201   2.0228   2.0263
     2.0348   2.0431   2.0467   2.0551   2.0629   2.0653   2.0658   2.0660
     2.0676   2.0679   2.0682   2.0686   2.0694   2.0722   2.0832   2.0947
     2.0964   2.0985   2.1075   2.1111   2.1194   2.1294   2.1328   2.1411
     2.1419   2.1421   2.1482   2.1492   2.1608   2.1610   2.1656   2.1663
     2.1700   2.1830   2.1836   2.1843   2.1845   2.2507   2.2829   2.3434
     2.3911   2.5324   2.5371   2.7066   2.7099   2.8678   3.0902   3.1021
     3.1050   3.2930   3.3016

          k = 0.0347 0.1042 0.2431 (123555 PWs)   bands (ev):

   -69.3518 -69.3516 -69.3516 -69.3515 -69.3515 -69.3515 -69.3515 -69.3515
   -69.3515 -69.3515 -69.3515 -69.3515 -69.3515 -69.3515 -69.3515 -69.3515
   -69.3515 -69.3515 -69.3515 -69.3515 -69.3515 -69.3515 -69.3515 -69.3515
   -69.3515 -69.3515 -69.3515 -69.3515 -69.3515 -69.3515 -69.3515 -69.3515
   -39.3881 -39.3881 -39.3880 -39.3880 -39.3880 -39.3879 -39.3879 -39.3879
   -39.3878 -39.3878 -39.3878 -39.3877 -39.3876 -39.3876 -39.3876 -39.3876
   -39.3876 -39.3876 -39.3875 -39.3875 -39.3874 -39.3874 -39.3873 -39.3873
   -39.3872 -39.3872 -39.3871 -39.3871 -39.3871 -39.3871 -39.3870 -39.3870
   -39.3869 -39.3869 -39.3869 -39.3869 -39.3868 -39.3868 -39.3868 -39.3867
   -39.3866 -39.3866 -39.3865 -39.3864 -39.3864 -39.3864 -39.3864 -39.3864
   -39.3864 -39.3864 -39.3863 -39.3863 -39.3862 -39.3862 -39.3862 -39.3862
   -39.3862 -39.3862 -39.3862 -39.3861 -39.3861 -39.3861 -39.3860 -39.3860
   -39.3860 -39.3860 -39.3860 -39.3860 -39.3860 -39.3860 -39.3859 -39.3859
   -39.3859 -39.3859 -39.3858 -39.3858 -39.3858 -39.3858 -39.3858 -39.3858
   -39.3858 -39.3858 -39.3857 -39.3857 -39.3857 -39.3857 -39.3857 -39.3856
   -39.3856 -39.3856 -39.3855 -39.3855 -39.3855 -39.3854 -39.3853 -39.3852
     0.3434   0.5739   0.9884   1.1559   1.1560   1.2718   1.2807   1.2926
     1.3031   1.3250   1.3403   1.3494   1.3700   1.3855   1.3926   1.3967
     1.4032   1.4229   1.4233   1.4269   1.4364   1.4504   1.4647   1.4746
     1.4858   1.4892   1.4917   1.4981   1.5312   1.5454   1.5460   1.5507
     1.5623   1.5657   1.5822   1.5896   1.5995   1.6060   1.6129   1.6182
     1.6238   1.6282   1.6310   1.6324   1.6387   1.6550   1.6589   1.6594
     1.6596   1.6628   1.6649   1.6737   1.6747   1.6779   1.6783   1.7008
     1.7046   1.7117   1.7152   1.7162   1.7194   1.7260   1.7314   1.7350
     1.7371   1.7399   1.7434   1.7444   1.7472   1.7604   1.7620   1.7668
     1.7725   1.7789   1.7817   1.7823   1.7827   1.7877   1.7882   1.7885
     1.7897   1.7937   1.7956   1.7961   1.8027   1.8110   1.8116   1.8206
     1.8222   1.8249   1.8387   1.8440   1.8830   1.8852   1.8875   1.8930
     1.9110   1.9112   1.9140   1.9222   1.9227   1.9233   1.9237   1.9256
     1.9307   1.9377   1.9410   1.9417   1.9494   1.9525   1.9577   1.9689
     1.9758   1.9818   1.9819   1.9822   1.9919   1.9930   1.9935   2.0051
     2.0053   2.0200   2.0232   2.0257   2.0261   2.0284   2.0290   2.0298
     2.0418   2.0469   2.0518   2.0518   2.0532   2.0543   2.0582   2.0652
     2.0708   2.0756   2.0806   2.0879   2.0914   2.0915   2.0918   2.0918
     2.0922   2.0928   2.0932   2.1065   2.1078   2.1148   2.1272   2.1290
     2.1297   2.1311   2.1394   2.1409   2.1412   2.1421   2.1423   2.1515
     2.1830   2.1835   2.1838   2.1841   2.2055   2.2267   2.2917   2.3467
     2.4176   2.5686   2.5724   2.5991   2.7286   2.7636   2.9577   3.1756
     3.2616   3.3524   3.3800

          k = 0.0347 0.1042-0.3125 (123496 PWs)   bands (ev):

   -69.3518 -69.3516 -69.3516 -69.3515 -69.3515 -69.3515 -69.3515 -69.3515
   -69.3515 -69.3515 -69.3515 -69.3515 -69.3515 -69.3515 -69.3515 -69.3515
   -69.3515 -69.3515 -69.3515 -69.3515 -69.3515 -69.3515 -69.3515 -69.3515
   -69.3515 -69.3515 -69.3515 -69.3515 -69.3515 -69.3515 -69.3515 -69.3515
   -39.3880 -39.3880 -39.3880 -39.3879 -39.3879 -39.3879 -39.3879 -39.3879
   -39.3879 -39.3878 -39.3878 -39.3878 -39.3877 -39.3877 -39.3876 -39.3876
   -39.3876 -39.3876 -39.3875 -39.3875 -39.3874 -39.3874 -39.3873 -39.3873
   -39.3872 -39.3872 -39.3872 -39.3872 -39.3870 -39.3870 -39.3870 -39.3870
   -39.3869 -39.3869 -39.3869 -39.3869 -39.3868 -39.3868 -39.3868 -39.3868
   -39.3867 -39.3867 -39.3864 -39.3864 -39.3864 -39.3864 -39.3864 -39.3863
   -39.3863 -39.3863 -39.3863 -39.3862 -39.3862 -39.3862 -39.3862 -39.3862
   -39.3861 -39.3861 -39.3861 -39.3861 -39.3861 -39.3861 -39.3861 -39.3861
   -39.3861 -39.3861 -39.3860 -39.3860 -39.3860 -39.3860 -39.3859 -39.3859
   -39.3859 -39.3859 -39.3858 -39.3858 -39.3858 -39.3858 -39.3858 -39.3858
   -39.3858 -39.3857 -39.3857 -39.3857 -39.3857 -39.3857 -39.3856 -39.3856
   -39.3856 -39.3856 -39.3855 -39.3855 -39.3854 -39.3854 -39.3853 -39.3853
     0.4470   0.4470   1.0661   1.0661   1.2159   1.2159   1.2944   1.2945
     1.3325   1.3325   1.3387   1.3387   1.3785   1.3785   1.3905   1.3905
     1.4040   1.4040   1.4415   1.4415   1.4518   1.4518   1.4606   1.4606
     1.4680   1.4680   1.4945   1.4945   1.5075   1.5075   1.5474   1.5474
     1.5780   1.5780   1.5868   1.5868   1.6086   1.6086   1.6185   1.6185
     1.6328   1.6328   1.6381   1.6381   1.6400   1.6400   1.6492   1.6492
     1.6496   1.6496   1.6642   1.6643   1.6868   1.6868   1.6967   1.6967
     1.7052   1.7052   1.7078   1.7078   1.7119   1.7119   1.7312   1.7312
     1.7449   1.7449   1.7503   1.7503   1.7617   1.7617   1.7663   1.7663
     1.7738   1.7738   1.7745   1.7746   1.7898   1.7898   1.7904   1.7904
     1.7920   1.7920   1.7996   1.7996   1.8003   1.8003   1.8017   1.8017
     1.8157   1.8157   1.8186   1.8186   1.8859   1.8859   1.8881   1.8881
     1.9175   1.9175   1.9265   1.9265   1.9391   1.9391   1.9577   1.9577
     1.9672   1.9672   1.9718   1.9719   1.9730   1.9730   1.9760   1.9760
     1.9826   1.9826   1.9894   1.9894   1.9907   1.9907   1.9925   1.9925
     1.9955   1.9955   2.0022   2.0022   2.0044   2.0044   2.0074   2.0074
     2.0379   2.0379   2.0445   2.0445   2.0635   2.0635   2.0685   2.0685
     2.0789   2.0789   2.0803   2.0803   2.1030   2.1030   2.1045   2.1045
     2.1129   2.1129   2.1131   2.1131   2.1138   2.1138   2.1153   2.1153
     2.1179   2.1179   2.1180   2.1180   2.1327   2.1327   2.1424   2.1424
     2.1831   2.1831   2.1839   2.1839   2.2090   2.2091   2.3154   2.3154
     2.4533   2.4533   2.6306   2.6306   2.8446   2.8446   2.9100   2.9100
     3.2761   3.2761   3.4840

          k = 0.0347 0.1736 0.1736 (123566 PWs)   bands (ev):

   -69.3518 -69.3516 -69.3516 -69.3516 -69.3515 -69.3515 -69.3515 -69.3515
   -69.3515 -69.3515 -69.3515 -69.3515 -69.3515 -69.3515 -69.3515 -69.3515
   -69.3515 -69.3515 -69.3515 -69.3515 -69.3515 -69.3515 -69.3515 -69.3515
   -69.3515 -69.3515 -69.3515 -69.3515 -69.3515 -69.3515 -69.3515 -69.3515
   -39.3881 -39.3881 -39.3880 -39.3880 -39.3880 -39.3880 -39.3879 -39.3877
   -39.3877 -39.3877 -39.3877 -39.3877 -39.3876 -39.3876 -39.3876 -39.3876
   -39.3876 -39.3875 -39.3875 -39.3875 -39.3875 -39.3874 -39.3874 -39.3874
   -39.3874 -39.3873 -39.3872 -39.3871 -39.3871 -39.3871 -39.3870 -39.3870
   -39.3869 -39.3869 -39.3869 -39.3869 -39.3867 -39.3867 -39.3867 -39.3866
   -39.3866 -39.3866 -39.3866 -39.3865 -39.3865 -39.3864 -39.3864 -39.3864
   -39.3863 -39.3863 -39.3863 -39.3863 -39.3863 -39.3863 -39.3862 -39.3862
   -39.3862 -39.3862 -39.3862 -39.3862 -39.3861 -39.3861 -39.3861 -39.3860
   -39.3860 -39.3860 -39.3860 -39.3860 -39.3859 -39.3859 -39.3859 -39.3859
   -39.3859 -39.3859 -39.3859 -39.3859 -39.3858 -39.3858 -39.3858 -39.3858
   -39.3858 -39.3858 -39.3857 -39.3857 -39.3857 -39.3857 -39.3857 -39.3856
   -39.3856 -39.3856 -39.3855 -39.3855 -39.3855 -39.3854 -39.3853 -39.3852
     0.3171   0.7671   0.7671   1.1352   1.1354   1.2553   1.2730   1.2876
     1.3180   1.3180   1.3405   1.3405   1.3883   1.3883   1.4074   1.4074
     1.4086   1.4086   1.4109   1.4513   1.4513   1.4698   1.5056   1.5057
     1.5076   1.5076   1.5169   1.5169   1.5249   1.5249   1.5315   1.5474
     1.5474   1.5777   1.5777   1.5799   1.5799   1.6003   1.6003   1.6065
     1.6091   1.6091   1.6291   1.6356   1.6356   1.6364   1.6364   1.6550
     1.6550   1.6719   1.6809   1.6809   1.6844   1.6844   1.6981   1.6981
     1.7159   1.7159   1.7215   1.7253   1.7258   1.7258   1.7324   1.7324
     1.7377   1.7488   1.7637   1.7637   1.7682   1.7686   1.7753   1.7773
     1.7773   1.7775   1.7924   1.7924   1.7978   1.7978   1.7983   1.7985
     1.8009   1.8026   1.8218   1.8218   1.8259   1.8259   1.8277   1.8277
     1.8507   1.8507   1.8520   1.8520   1.8537   1.8537   1.8639   1.8639
     1.8736   1.8742   1.8742   1.8809   1.8980   1.8980   1.9056   1.9070
     1.9070   1.9081   1.9149   1.9149   1.9259   1.9259   1.9504   1.9535
     1.9701   1.9701   1.9754   1.9960   1.9960   2.0087   2.0087   2.0206
     2.0206   2.0291   2.0291   2.0315   2.0315   2.0331   2.0331   2.0341
     2.0341   2.0347   2.0486   2.0486   2.0545   2.0545   2.0600   2.0730
     2.0759   2.0759   2.0771   2.0807   2.0884   2.0884   2.0886   2.0886
     2.0914   2.0914   2.0915   2.0938   2.0967   2.1297   2.1297   2.1307
     2.1425   2.1425   2.1435   2.1517   2.1517   2.1658   2.1658   2.1668
     2.1668   2.1693   2.1693   2.1758   2.1827   2.2046   2.4025   2.4025
     2.4315   2.4315   2.5629   2.5629   2.6936   2.9290   2.9300   2.9301
     3.3458   3.3458   3.5396

          k = 0.0347 0.1736 0.2431 (123570 PWs)   bands (ev):

   -69.3518 -69.3516 -69.3516 -69.3515 -69.3515 -69.3515 -69.3515 -69.3515
   -69.3515 -69.3515 -69.3515 -69.3515 -69.3515 -69.3515 -69.3515 -69.3515
   -69.3515 -69.3515 -69.3515 -69.3515 -69.3515 -69.3515 -69.3515 -69.3515
   -69.3515 -69.3515 -69.3515 -69.3515 -69.3515 -69.3515 -69.3515 -69.3515
   -39.3881 -39.3881 -39.3879 -39.3879 -39.3879 -39.3879 -39.3879 -39.3878
   -39.3878 -39.3878 -39.3877 -39.3877 -39.3877 -39.3877 -39.3876 -39.3876
   -39.3876 -39.3876 -39.3876 -39.3875 -39.3875 -39.3875 -39.3874 -39.3874
   -39.3874 -39.3873 -39.3872 -39.3872 -39.3871 -39.3870 -39.3870 -39.3869
   -39.3869 -39.3869 -39.3868 -39.3868 -39.3868 -39.3867 -39.3867 -39.3867
   -39.3866 -39.3865 -39.3865 -39.3865 -39.3864 -39.3864 -39.3864 -39.3864
   -39.3864 -39.3863 -39.3863 -39.3863 -39.3863 -39.3863 -39.3862 -39.3862
   -39.3862 -39.3862 -39.3862 -39.3861 -39.3861 -39.3861 -39.3861 -39.3860
   -39.3860 -39.3860 -39.3860 -39.3860 -39.3860 -39.3860 -39.3859 -39.3859
   -39.3859 -39.3859 -39.3859 -39.3858 -39.3858 -39.3858 -39.3858 -39.3858
   -39.3857 -39.3857 -39.3857 -39.3857 -39.3857 -39.3857 -39.3857 -39.3857
   -39.3856 -39.3856 -39.3855 -39.3854 -39.3854 -39.3854 -39.3854 -39.3852
     0.3947   0.6220   0.8340   1.0222   1.1749   1.2605   1.2704   1.2930
     1.2998   1.3011   1.3522   1.3599   1.3735   1.3774   1.4173   1.4269
     1.4280   1.4355   1.4454   1.4574   1.4634   1.4646   1.4733   1.4816
     1.4988   1.5019   1.5082   1.5140   1.5208   1.5320   1.5363   1.5375
     1.5387   1.5426   1.5621   1.5715   1.5821   1.5855   1.5900   1.5940
     1.5980   1.6239   1.6289   1.6366   1.6373   1.6393   1.6555   1.6615
     1.6617   1.6690   1.6716   1.6783   1.6871   1.6875   1.6965   1.7049
     1.7061   1.7148   1.7166   1.7223   1.7226   1.7332   1.7371   1.7401
     1.7443   1.7464   1.7498   1.7703   1.7789   1.7799   1.7803   1.7813
     1.7832   1.7873   1.7876   1.7914   1.7929   1.8034   1.8104   1.8111
     1.8125   1.8128   1.8135   1.8151   1.8193   1.8225   1.8251   1.8318
     1.8514   1.8544   1.8544   1.8544   1.8551   1.8631   1.8643   1.8688
     1.8706   1.8768   1.8783   1.8937   1.8942   1.9042   1.9074   1.9090
     1.9179   1.9212   1.9267   1.9278   1.9289   1.9410   1.9563   1.9600
     1.9655   1.9706   1.9833   1.9852   1.9927   1.9955   1.9995   2.0113
     2.0121   2.0141   2.0166   2.0229   2.0302   2.0320   2.0338   2.0344
     2.0462   2.0474   2.0552   2.0564   2.0580   2.0583   2.0636   2.0687
     2.0691   2.0799   2.0806   2.0821   2.0890   2.0933   2.0962   2.1076
     2.1082   2.1085   2.1094   2.1096   2.1118   2.1185   2.1194   2.1355
     2.1365   2.1375   2.1393   2.1396   2.1402   2.1431   2.1433   2.1434
     2.1498   2.1664   2.1673   2.1685   2.1704   2.2494   2.2977   2.4268
     2.4393   2.5364   2.5615   2.6085   2.6814   2.7852   2.7871   3.1912
     3.3304   3.4246   3.6056

          k = 0.0347 0.1736-0.3125 (123568 PWs)   bands (ev):

   -69.3518 -69.3516 -69.3516 -69.3515 -69.3515 -69.3515 -69.3515 -69.3515
   -69.3515 -69.3515 -69.3515 -69.3515 -69.3515 -69.3515 -69.3515 -69.3515
   -69.3515 -69.3515 -69.3515 -69.3515 -69.3515 -69.3515 -69.3515 -69.3515
   -69.3515 -69.3515 -69.3515 -69.3515 -69.3515 -69.3515 -69.3515 -69.3515
   -39.3880 -39.3880 -39.3880 -39.3880 -39.3879 -39.3878 -39.3878 -39.3878
   -39.3878 -39.3878 -39.3877 -39.3877 -39.3877 -39.3877 -39.3877 -39.3877
   -39.3877 -39.3877 -39.3876 -39.3876 -39.3875 -39.3874 -39.3874 -39.3874
   -39.3873 -39.3873 -39.3872 -39.3872 -39.3871 -39.3871 -39.3869 -39.3869
   -39.3869 -39.3869 -39.3868 -39.3868 -39.3868 -39.3868 -39.3867 -39.3867
   -39.3866 -39.3866 -39.3864 -39.3864 -39.3864 -39.3864 -39.3864 -39.3864
   -39.3864 -39.3863 -39.3863 -39.3863 -39.3863 -39.3863 -39.3863 -39.3863
   -39.3862 -39.3862 -39.3862 -39.3862 -39.3861 -39.3861 -39.3861 -39.3861
   -39.3860 -39.3860 -39.3860 -39.3860 -39.3859 -39.3859 -39.3859 -39.3859
   -39.3859 -39.3859 -39.3859 -39.3859 -39.3858 -39.3858 -39.3858 -39.3858
   -39.3858 -39.3858 -39.3858 -39.3858 -39.3857 -39.3857 -39.3856 -39.3856
   -39.3856 -39.3856 -39.3854 -39.3854 -39.3854 -39.3854 -39.3853 -39.3853
     0.4969   0.4969   0.9201   0.9201   1.2214   1.2214   1.2733   1.2733
     1.3228   1.3228   1.3298   1.3298   1.4128   1.4128   1.4189   1.4189
     1.4258   1.4258   1.4517   1.4517   1.4699   1.4699   1.4816   1.4816
     1.4897   1.4897   1.5027   1.5027   1.5151   1.5151   1.5335   1.5336
     1.5572   1.5572   1.5667   1.5667   1.5679   1.5679   1.5765   1.5765
     1.6052   1.6052   1.6430   1.6430   1.6530   1.6530   1.6666   1.6666
     1.6676   1.6676   1.6777   1.6777   1.6896   1.6896   1.6948   1.6948
     1.6963   1.6963   1.6986   1.6986   1.7358   1.7358   1.7497   1.7497
     1.7541   1.7541   1.7589   1.7589   1.7709   1.7709   1.7924   1.7924
     1.7945   1.7945   1.7953   1.7953   1.8006   1.8006   1.8016   1.8016
     1.8053   1.8053   1.8087   1.8087   1.8104   1.8104   1.8362   1.8362
     1.8379   1.8379   1.8416   1.8416   1.8575   1.8575   1.8603   1.8603
     1.8849   1.8849   1.9200   1.9200   1.9260   1.9260   1.9293   1.9293
     1.9383   1.9383   1.9452   1.9452   1.9467   1.9467   1.9474   1.9474
     1.9525   1.9525   1.9603   1.9603   1.9865   1.9865   1.9914   1.9914
     1.9959   1.9959   2.0095   2.0095   2.0249   2.0249   2.0284   2.0284
     2.0497   2.0497   2.0585   2.0585   2.0671   2.0671   2.0830   2.0830
     2.0854   2.0854   2.0927   2.0927   2.0943   2.0943   2.0989   2.0989
     2.1142   2.1142   2.1169   2.1169   2.1191   2.1191   2.1245   2.1245
     2.1247   2.1247   2.1253   2.1253   2.1263   2.1263   2.1303   2.1303
     2.1677   2.1677   2.1678   2.1678   2.2120   2.2120   2.3356   2.3356
     2.4751   2.4751   2.6543   2.6543   2.6811   2.6811   2.9854   2.9854
     3.4832   3.4832   3.5277

          k = 0.0347 0.2431 0.2431 (123563 PWs)   bands (ev):

   -69.3518 -69.3516 -69.3516 -69.3515 -69.3515 -69.3515 -69.3515 -69.3515
   -69.3515 -69.3515 -69.3515 -69.3515 -69.3515 -69.3515 -69.3515 -69.3515
   -69.3515 -69.3515 -69.3515 -69.3515 -69.3515 -69.3515 -69.3515 -69.3515
   -69.3515 -69.3515 -69.3515 -69.3515 -69.3515 -69.3515 -69.3515 -69.3515
   -39.3880 -39.3880 -39.3879 -39.3879 -39.3878 -39.3878 -39.3878 -39.3878
   -39.3878 -39.3878 -39.3877 -39.3877 -39.3877 -39.3877 -39.3877 -39.3876
   -39.3876 -39.3876 -39.3876 -39.3876 -39.3876 -39.3875 -39.3875 -39.3875
   -39.3874 -39.3874 -39.3873 -39.3872 -39.3871 -39.3871 -39.3870 -39.3869
   -39.3868 -39.3868 -39.3867 -39.3867 -39.3866 -39.3866 -39.3866 -39.3866
   -39.3866 -39.3866 -39.3865 -39.3865 -39.3865 -39.3864 -39.3864 -39.3864
   -39.3864 -39.3864 -39.3863 -39.3863 -39.3863 -39.3863 -39.3862 -39.3862
   -39.3862 -39.3862 -39.3862 -39.3861 -39.3861 -39.3861 -39.3861 -39.3861
   -39.3861 -39.3860 -39.3860 -39.3860 -39.3860 -39.3860 -39.3859 -39.3859
   -39.3859 -39.3859 -39.3859 -39.3859 -39.3858 -39.3858 -39.3858 -39.3858
   -39.3858 -39.3858 -39.3857 -39.3857 -39.3857 -39.3857 -39.3857 -39.3856
   -39.3856 -39.3856 -39.3856 -39.3854 -39.3853 -39.3853 -39.3853 -39.3852
     0.4709   0.6929   0.6929   0.8964   1.2004   1.2552   1.2611   1.2612
     1.3060   1.3098   1.3362   1.3362   1.4109   1.4109   1.4394   1.4464
     1.4464   1.4603   1.4603   1.4826   1.4826   1.4860   1.4860   1.4921
     1.4921   1.4928   1.4929   1.5020   1.5212   1.5212   1.5213   1.5213
     1.5298   1.5436   1.5436   1.5501   1.5501   1.5586   1.5586   1.5821
     1.5821   1.6022   1.6022   1.6410   1.6410   1.6684   1.6698   1.6699
     1.6716   1.6716   1.6796   1.6814   1.6817   1.6817   1.6927   1.6927
     1.6958   1.7096   1.7391   1.7423   1.7423   1.7521   1.7526   1.7526
     1.7688   1.7728   1.7728   1.7746   1.7895   1.7896   1.7896   1.7912
     1.7952   1.8029   1.8029   1.8046   1.8092   1.8114   1.8114   1.8132
     1.8132   1.8273   1.8273   1.8352   1.8352   1.8359   1.8359   1.8461
     1.8502   1.8518   1.8518   1.8556   1.8556   1.8565   1.8565   1.8601
     1.8725   1.8741   1.8741   1.8917   1.8917   1.8998   1.8998   1.9016
     1.9016   1.9078   1.9140   1.9140   1.9217   1.9217   1.9299   1.9358
     1.9387   1.9387   1.9533   1.9565   1.9565   1.9877   1.9877   1.9884
     1.9917   2.0148   2.0218   2.0218   2.0290   2.0290   2.0390   2.0390
     2.0596   2.0596   2.0637   2.0643   2.0643   2.0736   2.0736   2.0859
     2.0859   2.0897   2.0952   2.1024   2.1024   2.1031   2.1031   2.1050
     2.1050   2.1087   2.1108   2.1192   2.1213   2.1213   2.1227   2.1227
     2.1360   2.1363   2.1363   2.1375   2.1375   2.1441   2.1441   2.1460
     2.1460   2.1474   2.1474   2.1587   2.1647   2.2989   2.3145   2.3145
     2.4356   2.4800   2.4800   2.6499   2.7864   2.7864   3.0429   3.0429
     3.4242   3.4242   3.6625

          k = 0.0347 0.2431-0.3125 (123602 PWs)   bands (ev):

   -69.3518 -69.3516 -69.3516 -69.3516 -69.3515 -69.3515 -69.3515 -69.3515
   -69.3515 -69.3515 -69.3515 -69.3515 -69.3515 -69.3515 -69.3515 -69.3515
   -69.3515 -69.3515 -69.3515 -69.3515 -69.3515 -69.3515 -69.3515 -69.3515
   -69.3515 -69.3515 -69.3515 -69.3515 -69.3515 -69.3515 -69.3515 -69.3515
   -39.3880 -39.3880 -39.3879 -39.3879 -39.3878 -39.3878 -39.3878 -39.3878
   -39.3878 -39.3878 -39.3878 -39.3878 -39.3877 -39.3877 -39.3877 -39.3877
   -39.3876 -39.3876 -39.3876 -39.3876 -39.3876 -39.3876 -39.3875 -39.3875
   -39.3874 -39.3874 -39.3873 -39.3873 -39.3871 -39.3871 -39.3870 -39.3870
   -39.3867 -39.3867 -39.3867 -39.3867 -39.3867 -39.3866 -39.3866 -39.3866
   -39.3865 -39.3864 -39.3864 -39.3864 -39.3864 -39.3864 -39.3864 -39.3864
   -39.3864 -39.3864 -39.3863 -39.3863 -39.3863 -39.3863 -39.3863 -39.3863
   -39.3862 -39.3862 -39.3862 -39.3862 -39.3861 -39.3861 -39.3861 -39.3860
   -39.3860 -39.3860 -39.3860 -39.3860 -39.3859 -39.3859 -39.3859 -39.3859
   -39.3859 -39.3859 -39.3859 -39.3859 -39.3858 -39.3858 -39.3858 -39.3858
   -39.3858 -39.3858 -39.3858 -39.3858 -39.3857 -39.3857 -39.3857 -39.3857
   -39.3857 -39.3856 -39.3855 -39.3855 -39.3853 -39.3853 -39.3853 -39.3853
     0.5709   0.5709   0.7853   0.7853   1.2298   1.2298   1.2556   1.2556
     1.3179   1.3179   1.3221   1.3221   1.4495   1.4495   1.4513   1.4513
     1.4566   1.4566   1.4576   1.4576   1.4819   1.4819   1.4893   1.4893
     1.5006   1.5006   1.5021   1.5021   1.5147   1.5147   1.5247   1.5247
     1.5266   1.5266   1.5346   1.5346   1.5477   1.5477   1.5652   1.5652
     1.5652   1.5652   1.6354   1.6354   1.6534   1.6534   1.6558   1.6558
     1.6806   1.6806   1.6806   1.6806   1.6828   1.6828   1.6983   1.6983
     1.7332   1.7332   1.7410   1.7410   1.7438   1.7438   1.7542   1.7542
     1.7570   1.7570   1.7686   1.7686   1.8044   1.8044   1.8052   1.8052
     1.8055   1.8055   1.8101   1.8101   1.8149   1.8149   1.8200   1.8200
     1.8338   1.8338   1.8345   1.8345   1.8372   1.8372   1.8374   1.8374
     1.8458   1.8458   1.8579   1.8579   1.8599   1.8599   1.8619   1.8619
     1.8677   1.8677   1.8844   1.8844   1.8912   1.8912   1.9143   1.9143
     1.9152   1.9152   1.9155   1.9155   1.9176   1.9176   1.9185   1.9186
     1.9228   1.9228   1.9272   1.9272   1.9464   1.9464   1.9687   1.9687
     2.0063   2.0063   2.0074   2.0074   2.0441   2.0441   2.0539   2.0539
     2.0553   2.0553   2.0572   2.0572   2.0847   2.0847   2.0867   2.0867
     2.0905   2.0905   2.0931   2.0931   2.1043   2.1043   2.1114   2.1115
     2.1162   2.1162   2.1245   2.1245   2.1254   2.1254   2.1257   2.1258
     2.1305   2.1305   2.1312   2.1312   2.1318   2.1318   2.1327   2.1327
     2.1455   2.1455   2.1507   2.1507   2.2272   2.2272   2.3552   2.3552
     2.3768   2.3768   2.5482   2.5482   2.9077   2.9077   3.0858   3.0858
     3.3380   3.3380   3.5366

          k = 0.0347-0.3125-0.3125 (123556 PWs)   bands (ev):

   -69.3518 -69.3516 -69.3516 -69.3516 -69.3515 -69.3515 -69.3515 -69.3515
   -69.3515 -69.3515 -69.3515 -69.3515 -69.3515 -69.3515 -69.3515 -69.3515
   -69.3515 -69.3515 -69.3515 -69.3515 -69.3515 -69.3515 -69.3515 -69.3515
   -69.3515 -69.3515 -69.3515 -69.3515 -69.3515 -69.3515 -69.3515 -69.3515
   -39.3879 -39.3879 -39.3879 -39.3879 -39.3879 -39.3879 -39.3879 -39.3879
   -39.3877 -39.3877 -39.3877 -39.3877 -39.3877 -39.3877 -39.3877 -39.3877
   -39.3877 -39.3877 -39.3877 -39.3877 -39.3875 -39.3875 -39.3875 -39.3875
   -39.3874 -39.3874 -39.3874 -39.3874 -39.3871 -39.3871 -39.3870 -39.3870
   -39.3866 -39.3866 -39.3866 -39.3866 -39.3866 -39.3866 -39.3866 -39.3866
   -39.3866 -39.3865 -39.3865 -39.3865 -39.3865 -39.3865 -39.3865 -39.3865
   -39.3863 -39.3863 -39.3863 -39.3863 -39.3862 -39.3862 -39.3862 -39.3862
   -39.3862 -39.3862 -39.3862 -39.3862 -39.3862 -39.3862 -39.3862 -39.3862
   -39.3860 -39.3860 -39.3860 -39.3860 -39.3860 -39.3860 -39.3860 -39.3860
   -39.3858 -39.3858 -39.3858 -39.3858 -39.3858 -39.3858 -39.3858 -39.3858
   -39.3857 -39.3857 -39.3857 -39.3857 -39.3857 -39.3857 -39.3857 -39.3857
   -39.3856 -39.3856 -39.3856 -39.3856 -39.3853 -39.3853 -39.3853 -39.3853
     0.6677   0.6677   0.6677   0.6677   1.2412   1.2412   1.2412   1.2412
     1.3178   1.3178   1.3178   1.3178   1.4701   1.4701   1.4701   1.4701
     1.4874   1.4874   1.4874   1.4874   1.4874   1.4874   1.4874   1.4874
     1.4940   1.4940   1.4940   1.4940   1.4940   1.4940   1.4940   1.4940
     1.5300   1.5300   1.5300   1.5300   1.5300   1.5300   1.5300   1.5300
     1.6001   1.6001   1.6001   1.6001   1.6663   1.6663   1.6663   1.6664
     1.6664   1.6664   1.6664   1.6664   1.6933   1.6933   1.6933   1.6933
     1.7462   1.7462   1.7462   1.7462   1.7587   1.7587   1.7587   1.7587
     1.8027   1.8027   1.8028   1.8028   1.8081   1.8081   1.8081   1.8081
     1.8154   1.8154   1.8154   1.8154   1.8160   1.8160   1.8160   1.8160
     1.8194   1.8194   1.8194   1.8194   1.8370   1.8370   1.8370   1.8370
     1.8763   1.8763   1.8763   1.8763   1.8763   1.8763   1.8763   1.8763
     1.8801   1.8801   1.8801   1.8801   1.8801   1.8801   1.8801   1.8801
     1.8921   1.8921   1.8921   1.8921   1.8921   1.8921   1.8921   1.8921
     1.9205   1.9205   1.9205   1.9205   1.9348   1.9348   1.9348   1.9348
     2.0263   2.0263   2.0263   2.0263   2.0283   2.0283   2.0283   2.0283
     2.0755   2.0755   2.0755   2.0755   2.0755   2.0755   2.0755   2.0755
     2.1054   2.1054   2.1054   2.1054   2.1194   2.1194   2.1194   2.1194
     2.1194   2.1194   2.1194   2.1194   2.1251   2.1251   2.1251   2.1251
     2.1337   2.1337   2.1337   2.1338   2.1338   2.1338   2.1338   2.1338
     2.1362   2.1362   2.1362   2.1362   2.2721   2.2721   2.2721   2.2721
     2.4467   2.4467   2.4467   2.4467   3.2047   3.2047   3.2047   3.2047
     3.2047   3.2047   3.2047

          k = 0.1042 0.1042 0.1042 (123492 PWs)   bands (ev):

   -69.3518 -69.3516 -69.3515 -69.3515 -69.3515 -69.3515 -69.3515 -69.3515
   -69.3515 -69.3515 -69.3515 -69.3515 -69.3515 -69.3515 -69.3515 -69.3515
   -69.3515 -69.3515 -69.3515 -69.3515 -69.3515 -69.3515 -69.3515 -69.3515
   -69.3515 -69.3515 -69.3515 -69.3515 -69.3515 -69.3515 -69.3515 -69.3515
   -39.3882 -39.3882 -39.3881 -39.3881 -39.3881 -39.3881 -39.3880 -39.3876
   -39.3876 -39.3876 -39.3876 -39.3876 -39.3875 -39.3875 -39.3875 -39.3875
   -39.3875 -39.3875 -39.3875 -39.3875 -39.3875 -39.3875 -39.3872 -39.3872
   -39.3872 -39.3872 -39.3871 -39.3871 -39.3871 -39.3871 -39.3871 -39.3871
   -39.3871 -39.3871 -39.3868 -39.3868 -39.3868 -39.3866 -39.3866 -39.3866
   -39.3865 -39.3865 -39.3865 -39.3865 -39.3865 -39.3865 -39.3864 -39.3864
   -39.3864 -39.3864 -39.3864 -39.3864 -39.3864 -39.3864 -39.3864 -39.3864
   -39.3864 -39.3864 -39.3861 -39.3861 -39.3861 -39.3861 -39.3861 -39.3861
   -39.3860 -39.3860 -39.3860 -39.3859 -39.3859 -39.3859 -39.3858 -39.3858
   -39.3858 -39.3858 -39.3858 -39.3858 -39.3858 -39.3858 -39.3858 -39.3857
   -39.3857 -39.3857 -39.3857 -39.3857 -39.3857 -39.3857 -39.3857 -39.3857
   -39.3856 -39.3856 -39.3855 -39.3855 -39.3855 -39.3853 -39.3852 -39.3852
     0.2384   0.9054   0.9054   0.9054   1.2418   1.2954   1.2954   1.2954
     1.3277   1.3277   1.3277   1.3349   1.3349   1.3349   1.3883   1.3883
     1.3883   1.4361   1.4361   1.4361   1.5110   1.5110   1.5110   1.5110
     1.5110   1.5110   1.5308   1.5308   1.5308   1.5465   1.5465   1.5465
     1.5645   1.5645   1.5645   1.5645   1.5645   1.5645   1.6277   1.6277
     1.6277   1.6289   1.6289   1.6289   1.6289   1.6289   1.6289   1.6934
     1.6934   1.6934   1.6934   1.6934   1.6934   1.7036   1.7036   1.7036
     1.7060   1.7060   1.7060   1.7307   1.7307   1.7307   1.7364   1.7509
     1.7509   1.7509   1.7509   1.7509   1.7509   1.7522   1.7522   1.7588
     1.7588   1.7686   1.7686   1.7686   1.7910   1.7910   1.7910   1.7910
     1.7910   1.7910   1.8018   1.8018   1.8018   1.8215   1.8215   1.8215
     1.8310   1.8310   1.8310   1.8563   1.8563   1.8563   1.8763   1.8763
     1.8763   1.8973   1.8973   1.8973   1.9072   1.9072   1.9072   1.9211
     1.9211   1.9211   1.9211   1.9211   1.9211   1.9575   1.9575   1.9575
     1.9597   1.9597   1.9597   1.9648   1.9648   1.9735   1.9735   1.9735
     1.9939   1.9939   1.9939   1.9939   1.9939   1.9939   2.0388   2.0388
     2.0388   2.0406   2.0406   2.0406   2.0406   2.0406   2.0406   2.0575
     2.0575   2.0575   2.0792   2.0792   2.0792   2.0942   2.0942   2.0942
     2.1157   2.1157   2.1157   2.1258   2.1258   2.1437   2.1437   2.1437
     2.1495   2.1495   2.1495   2.1756   2.1756   2.1756   2.1756   2.1756
     2.1756   2.1823   2.1823   2.1823   2.2032   2.2032   2.2032   2.3832
     2.3832   2.3832   2.8339   2.8796   2.8796   2.8796   2.8796   2.8796
     2.8796   3.4635   3.4635

          k = 0.1042 0.1042 0.1736 (123557 PWs)   bands (ev):

   -69.3518 -69.3516 -69.3516 -69.3515 -69.3515 -69.3515 -69.3515 -69.3515
   -69.3515 -69.3515 -69.3515 -69.3515 -69.3515 -69.3515 -69.3515 -69.3515
   -69.3515 -69.3515 -69.3515 -69.3515 -69.3515 -69.3515 -69.3515 -69.3515
   -69.3515 -69.3515 -69.3515 -69.3515 -69.3515 -69.3515 -69.3515 -69.3515
   -39.3882 -39.3881 -39.3881 -39.3880 -39.3880 -39.3880 -39.3879 -39.3877
   -39.3877 -39.3876 -39.3876 -39.3876 -39.3876 -39.3876 -39.3876 -39.3876
   -39.3876 -39.3876 -39.3875 -39.3875 -39.3875 -39.3875 -39.3874 -39.3873
   -39.3872 -39.3872 -39.3871 -39.3871 -39.3871 -39.3871 -39.3870 -39.3870
   -39.3870 -39.3870 -39.3869 -39.3869 -39.3867 -39.3866 -39.3866 -39.3866
   -39.3866 -39.3866 -39.3866 -39.3865 -39.3865 -39.3864 -39.3864 -39.3864
   -39.3864 -39.3864 -39.3864 -39.3864 -39.3864 -39.3863 -39.3863 -39.3863
   -39.3863 -39.3862 -39.3862 -39.3861 -39.3861 -39.3861 -39.3860 -39.3860
   -39.3860 -39.3860 -39.3860 -39.3860 -39.3860 -39.3860 -39.3859 -39.3859
   -39.3859 -39.3859 -39.3859 -39.3858 -39.3858 -39.3858 -39.3858 -39.3858
   -39.3858 -39.3858 -39.3857 -39.3857 -39.3857 -39.3856 -39.3856 -39.3856
   -39.3856 -39.3856 -39.3855 -39.3855 -39.3855 -39.3855 -39.3852 -39.3852
     0.2909   0.7440   0.9455   0.9456   1.2391   1.2450   1.2450   1.3019
     1.3124   1.3124   1.3272   1.3586   1.3586   1.3931   1.3958   1.4042
     1.4042   1.4455   1.4536   1.4536   1.4594   1.4594   1.4900   1.4900
     1.4949   1.5211   1.5274   1.5274   1.5333   1.5333   1.5488   1.5488
     1.5578   1.5578   1.5612   1.5612   1.5737   1.5737   1.5899   1.5899
     1.6315   1.6315   1.6369   1.6369   1.6421   1.6421   1.6537   1.6805
     1.6805   1.6945   1.6945   1.6959   1.6963   1.6964   1.7035   1.7035
     1.7051   1.7051   1.7153   1.7153   1.7209   1.7267   1.7267   1.7296
     1.7342   1.7342   1.7360   1.7556   1.7577   1.7666   1.7680   1.7736
     1.7736   1.7809   1.7809   1.7844   1.7943   1.7943   1.7948   1.7948
     1.8044   1.8044   1.8146   1.8146   1.8149   1.8149   1.8290   1.8297
     1.8427   1.8475   1.8531   1.8531   1.8545   1.8545   1.8567   1.8567
     1.8698   1.8698   1.8720   1.8819   1.8945   1.8945   1.9242   1.9242
     1.9285   1.9330   1.9330   1.9476   1.9476   1.9535   1.9535   1.9558
     1.9559   1.9623   1.9623   1.9710   1.9774   1.9774   1.9872   1.9872
     1.9925   1.9961   1.9961   2.0062   2.0180   2.0180   2.0215   2.0447
     2.0447   2.0477   2.0497   2.0497   2.0523   2.0523   2.0698   2.0698
     2.0717   2.0717   2.0762   2.0762   2.0792   2.0944   2.0944   2.0960
     2.0960   2.1042   2.1067   2.1125   2.1129   2.1159   2.1159   2.1241
     2.1454   2.1479   2.1479   2.1611   2.1611   2.1616   2.1616   2.1733
     2.1759   2.1759   2.1802   2.1802   2.2755   2.2755   2.2824   2.2824
     2.3883   2.3913   2.6575   2.7253   2.7253   2.9227   2.9227   3.1154
     3.1154   3.3606   3.3606

          k = 0.1042 0.1042 0.2431 (123585 PWs)   bands (ev):

   -69.3518 -69.3516 -69.3516 -69.3515 -69.3515 -69.3515 -69.3515 -69.3515
   -69.3515 -69.3515 -69.3515 -69.3515 -69.3515 -69.3515 -69.3515 -69.3515
   -69.3515 -69.3515 -69.3515 -69.3515 -69.3515 -69.3515 -69.3515 -69.3515
   -69.3515 -69.3515 -69.3515 -69.3515 -69.3515 -69.3515 -69.3515 -69.3515
   -39.3881 -39.3880 -39.3880 -39.3880 -39.3879 -39.3879 -39.3878 -39.3878
   -39.3878 -39.3878 -39.3878 -39.3878 -39.3876 -39.3876 -39.3876 -39.3876
   -39.3876 -39.3876 -39.3876 -39.3876 -39.3875 -39.3875 -39.3874 -39.3874
   -39.3873 -39.3873 -39.3871 -39.3871 -39.3870 -39.3870 -39.3870 -39.3870
   -39.3869 -39.3869 -39.3869 -39.3869 -39.3867 -39.3867 -39.3867 -39.3867
   -39.3867 -39.3867 -39.3865 -39.3864 -39.3864 -39.3864 -39.3864 -39.3864
   -39.3864 -39.3863 -39.3863 -39.3863 -39.3862 -39.3862 -39.3862 -39.3862
   -39.3862 -39.3862 -39.3862 -39.3862 -39.3861 -39.3861 -39.3860 -39.3860
   -39.3860 -39.3860 -39.3860 -39.3860 -39.3860 -39.3859 -39.3859 -39.3859
   -39.3859 -39.3859 -39.3859 -39.3858 -39.3858 -39.3858 -39.3858 -39.3858
   -39.3858 -39.3858 -39.3858 -39.3858 -39.3857 -39.3857 -39.3856 -39.3856
   -39.3856 -39.3855 -39.3855 -39.3855 -39.3855 -39.3854 -39.3853 -39.3853
     0.3690   0.5977   1.0035   1.0035   1.1587   1.1587   1.2443   1.2769
     1.3378   1.3378   1.3649   1.3905   1.3905   1.4050   1.4120   1.4120
     1.4126   1.4270   1.4270   1.4516   1.4592   1.4608   1.4608   1.4795
     1.4795   1.4898   1.4898   1.4976   1.5374   1.5374   1.5502   1.5502
     1.5503   1.5503   1.5746   1.5746   1.5834   1.5834   1.5841   1.5841
     1.6363   1.6363   1.6501   1.6501   1.6552   1.6552   1.6592   1.6592
     1.6629   1.6629   1.6778   1.6828   1.6828   1.6947   1.6947   1.6962
     1.7099   1.7099   1.7110   1.7166   1.7216   1.7216   1.7296   1.7296
     1.7326   1.7326   1.7504   1.7539   1.7539   1.7568   1.7684   1.7810
     1.7818   1.7888   1.7888   1.7980   1.7980   1.7984   1.7984   1.8000
     1.8000   1.8045   1.8047   1.8069   1.8070   1.8080   1.8080   1.8183
     1.8219   1.8339   1.8339   1.8547   1.8597   1.8597   1.8657   1.8657
     1.8988   1.8988   1.9179   1.9209   1.9209   1.9217   1.9223   1.9424
     1.9424   1.9436   1.9436   1.9438   1.9558   1.9558   1.9597   1.9597
     1.9701   1.9701   1.9765   1.9765   1.9796   1.9796   1.9801   1.9944
     1.9944   2.0001   2.0001   2.0057   2.0105   2.0112   2.0248   2.0369
     2.0453   2.0453   2.0469   2.0469   2.0626   2.0626   2.0731   2.0829
     2.0869   2.0874   2.0874   2.0883   2.0883   2.0945   2.0945   2.0954
     2.0962   2.0962   2.0977   2.0977   2.1000   2.1000   2.1012   2.1299
     2.1355   2.1391   2.1391   2.1419   2.1419   2.1426   2.1426   2.1609
     2.1765   2.1765   2.1786   2.1786   2.2030   2.2030   2.3662   2.3662
     2.4096   2.5279   2.5898   2.5898   2.6417   2.9903   2.9903   3.2086
     3.2086   3.2971   3.3796

          k = 0.1042 0.1042-0.3125 (123522 PWs)   bands (ev):

   -69.3518 -69.3516 -69.3516 -69.3515 -69.3515 -69.3515 -69.3515 -69.3515
   -69.3515 -69.3515 -69.3515 -69.3515 -69.3515 -69.3515 -69.3515 -69.3515
   -69.3515 -69.3515 -69.3515 -69.3515 -69.3515 -69.3515 -69.3515 -69.3515
   -69.3515 -69.3515 -69.3515 -69.3515 -69.3515 -69.3515 -69.3515 -69.3515
   -39.3880 -39.3880 -39.3879 -39.3879 -39.3879 -39.3879 -39.3879 -39.3878
   -39.3878 -39.3878 -39.3878 -39.3877 -39.3877 -39.3877 -39.3876 -39.3876
   -39.3876 -39.3876 -39.3876 -39.3875 -39.3875 -39.3875 -39.3873 -39.3873
   -39.3873 -39.3873 -39.3871 -39.3871 -39.3871 -39.3871 -39.3868 -39.3868
   -39.3868 -39.3868 -39.3868 -39.3868 -39.3868 -39.3868 -39.3868 -39.3868
   -39.3868 -39.3868 -39.3864 -39.3864 -39.3864 -39.3864 -39.3864 -39.3864
   -39.3863 -39.3863 -39.3863 -39.3863 -39.3862 -39.3862 -39.3862 -39.3862
   -39.3861 -39.3861 -39.3861 -39.3861 -39.3861 -39.3861 -39.3861 -39.3861
   -39.3861 -39.3861 -39.3861 -39.3861 -39.3859 -39.3859 -39.3859 -39.3858
   -39.3858 -39.3858 -39.3858 -39.3858 -39.3858 -39.3858 -39.3858 -39.3858
   -39.3858 -39.3858 -39.3858 -39.3858 -39.3858 -39.3858 -39.3856 -39.3856
   -39.3855 -39.3855 -39.3855 -39.3855 -39.3854 -39.3854 -39.3853 -39.3853
     0.4717   0.4718   1.0761   1.0761   1.0761   1.0761   1.2571   1.2571
     1.3711   1.3711   1.3711   1.3711   1.4070   1.4070   1.4127   1.4127
     1.4262   1.4262   1.4262   1.4262   1.4558   1.4558   1.4558   1.4558
     1.4767   1.4767   1.5124   1.5124   1.5124   1.5124   1.5432   1.5432
     1.5432   1.5432   1.5861   1.5861   1.5861   1.5861   1.6157   1.6157
     1.6157   1.6157   1.6464   1.6464   1.6464   1.6464   1.6662   1.6662
     1.6662   1.6662   1.6779   1.6779   1.6779   1.6779   1.6990   1.6990
     1.7021   1.7021   1.7159   1.7159   1.7159   1.7159   1.7374   1.7374
     1.7374   1.7374   1.7556   1.7556   1.7657   1.7657   1.7657   1.7657
     1.7843   1.7843   1.7907   1.7907   1.7907   1.7907   1.7995   1.7995
     1.7998   1.7998   1.8029   1.8029   1.8029   1.8029   1.8184   1.8184
     1.8184   1.8184   1.8283   1.8283   1.8624   1.8624   1.8624   1.8624
     1.9309   1.9309   1.9483   1.9483   1.9483   1.9483   1.9497   1.9497
     1.9497   1.9497   1.9616   1.9616   1.9616   1.9616   1.9682   1.9682
     1.9708   1.9708   1.9708   1.9708   1.9861   1.9861   1.9861   1.9861
     1.9865   1.9865   1.9865   1.9865   1.9918   1.9918   2.0031   2.0031
     2.0553   2.0553   2.0578   2.0578   2.0642   2.0642   2.0715   2.0715
     2.0715   2.0715   2.0764   2.0764   2.0764   2.0764   2.1201   2.1201
     2.1201   2.1201   2.1204   2.1204   2.1204   2.1204   2.1205   2.1205
     2.1229   2.1229   2.1229   2.1229   2.1389   2.1389   2.1389   2.1389
     2.1462   2.1462   2.1773   2.1773   2.1773   2.1773   2.4493   2.4493
     2.4708   2.4708   2.4708   2.4708   2.9490   2.9490   3.0851   3.0851
     3.0851   3.0851   3.6646

          k = 0.1042 0.1736 0.1736 (123576 PWs)   bands (ev):

   -69.3518 -69.3516 -69.3515 -69.3515 -69.3515 -69.3515 -69.3515 -69.3515
   -69.3515 -69.3515 -69.3515 -69.3515 -69.3515 -69.3515 -69.3515 -69.3515
   -69.3515 -69.3515 -69.3515 -69.3515 -69.3515 -69.3515 -69.3515 -69.3515
   -69.3515 -69.3515 -69.3515 -69.3515 -69.3515 -69.3515 -69.3515 -69.3515
   -39.3881 -39.3881 -39.3880 -39.3880 -39.3879 -39.3879 -39.3878 -39.3878
   -39.3877 -39.3877 -39.3877 -39.3877 -39.3877 -39.3876 -39.3876 -39.3876
   -39.3876 -39.3876 -39.3876 -39.3876 -39.3876 -39.3876 -39.3874 -39.3874
   -39.3873 -39.3872 -39.3872 -39.3870 -39.3870 -39.3870 -39.3870 -39.3870
   -39.3869 -39.3869 -39.3869 -39.3868 -39.3868 -39.3867 -39.3866 -39.3866
   -39.3866 -39.3865 -39.3865 -39.3865 -39.3865 -39.3864 -39.3864 -39.3864
   -39.3864 -39.3863 -39.3863 -39.3863 -39.3863 -39.3863 -39.3863 -39.3863
   -39.3862 -39.3862 -39.3862 -39.3862 -39.3861 -39.3861 -39.3861 -39.3860
   -39.3860 -39.3860 -39.3860 -39.3860 -39.3860 -39.3859 -39.3859 -39.3859
   -39.3859 -39.3859 -39.3859 -39.3859 -39.3859 -39.3858 -39.3858 -39.3858
   -39.3858 -39.3858 -39.3857 -39.3857 -39.3856 -39.3856 -39.3856 -39.3856
   -39.3856 -39.3855 -39.3855 -39.3855 -39.3855 -39.3855 -39.3853 -39.3852
     0.3427   0.7881   0.7881   0.9814   1.1380   1.2268   1.2350   1.2350
     1.3232   1.3475   1.3475   1.3716   1.4118   1.4118   1.4131   1.4131
     1.4146   1.4436   1.4436   1.4630   1.4630   1.4749   1.4975   1.4975
     1.5060   1.5060   1.5192   1.5192   1.5228   1.5289   1.5289   1.5348
     1.5348   1.5373   1.5373   1.5612   1.5612   1.5839   1.5981   1.5981
     1.6129   1.6130   1.6419   1.6419   1.6514   1.6611   1.6611   1.6823
     1.6823   1.6862   1.6862   1.6912   1.6912   1.6957   1.7061   1.7096
     1.7096   1.7147   1.7147   1.7149   1.7149   1.7255   1.7267   1.7364
     1.7364   1.7581   1.7608   1.7608   1.7641   1.7715   1.7751   1.7867
     1.7867   1.7911   1.7911   1.7918   1.7984   1.7984   1.8039   1.8052
     1.8131   1.8131   1.8185   1.8185   1.8219   1.8290   1.8294   1.8294
     1.8339   1.8339   1.8436   1.8436   1.8460   1.8524   1.8524   1.8559
     1.8580   1.8580   1.8996   1.8996   1.8997   1.8997   1.9041   1.9041
     1.9175   1.9175   1.9370   1.9373   1.9378   1.9442   1.9442   1.9549
     1.9624   1.9624   1.9713   1.9836   1.9836   1.9887   1.9887   1.9954
     1.9954   2.0070   2.0082   2.0082   2.0111   2.0132   2.0132   2.0206
     2.0206   2.0298   2.0298   2.0516   2.0727   2.0727   2.0784   2.0784
     2.0802   2.0808   2.0837   2.0837   2.0878   2.0894   2.0952   2.0952
     2.0956   2.0956   2.1044   2.1044   2.1128   2.1134   2.1167   2.1167
     2.1477   2.1477   2.1507   2.1529   2.1529   2.1621   2.1621   2.1628
     2.1628   2.1726   2.1726   2.1750   2.2015   2.2827   2.2827   2.3293
     2.4658   2.4658   2.4840   2.7646   2.7646   2.9542   2.9542   3.1660
     3.1661   3.1848   3.6163

          k = 0.1042 0.1736 0.2431 (123548 PWs)   bands (ev):

   -69.3518 -69.3516 -69.3516 -69.3515 -69.3515 -69.3515 -69.3515 -69.3515
   -69.3515 -69.3515 -69.3515 -69.3515 -69.3515 -69.3515 -69.3515 -69.3515
   -69.3515 -69.3515 -69.3515 -69.3515 -69.3515 -69.3515 -69.3515 -69.3515
   -69.3515 -69.3515 -69.3515 -69.3515 -69.3515 -69.3515 -69.3515 -69.3515
   -39.3881 -39.3880 -39.3880 -39.3879 -39.3879 -39.3879 -39.3878 -39.3878
   -39.3878 -39.3877 -39.3877 -39.3877 -39.3877 -39.3877 -39.3877 -39.3877
   -39.3877 -39.3876 -39.3876 -39.3876 -39.3876 -39.3875 -39.3875 -39.3874
   -39.3874 -39.3873 -39.3871 -39.3871 -39.3870 -39.3869 -39.3869 -39.3869
   -39.3868 -39.3868 -39.3868 -39.3868 -39.3868 -39.3867 -39.3866 -39.3866
   -39.3866 -39.3866 -39.3865 -39.3865 -39.3864 -39.3864 -39.3864 -39.3864
   -39.3863 -39.3863 -39.3863 -39.3863 -39.3863 -39.3862 -39.3862 -39.3862
   -39.3862 -39.3862 -39.3862 -39.3862 -39.3862 -39.3862 -39.3861 -39.3861
   -39.3861 -39.3860 -39.3860 -39.3860 -39.3860 -39.3860 -39.3859 -39.3859
   -39.3859 -39.3859 -39.3859 -39.3858 -39.3858 -39.3858 -39.3858 -39.3858
   -39.3858 -39.3858 -39.3858 -39.3857 -39.3857 -39.3857 -39.3856 -39.3856
   -39.3855 -39.3855 -39.3855 -39.3854 -39.3854 -39.3854 -39.3853 -39.3852
     0.4197   0.6448   0.8527   1.0323   1.0324   1.1644   1.2207   1.2260
     1.3420   1.3752   1.3866   1.3884   1.4026   1.4211   1.4259   1.4303
     1.4314   1.4344   1.4400   1.4507   1.4691   1.4768   1.4842   1.4890
     1.4968   1.5010   1.5040   1.5142   1.5147   1.5158   1.5183   1.5282
     1.5429   1.5460   1.5466   1.5597   1.5603   1.5624   1.5766   1.6114
     1.6174   1.6384   1.6393   1.6447   1.6545   1.6550   1.6686   1.6709
     1.6730   1.6818   1.6832   1.6889   1.6905   1.6910   1.6927   1.7036
     1.7063   1.7078   1.7174   1.7178   1.7234   1.7248   1.7333   1.7401
     1.7450   1.7572   1.7610   1.7732   1.7803   1.7819   1.7827   1.7864
     1.7929   1.7949   1.7972   1.7983   1.8033   1.8036   1.8043   1.8076
     1.8090   1.8134   1.8175   1.8177   1.8201   1.8202   1.8314   1.8351
     1.8379   1.8404   1.8415   1.8423   1.8463   1.8467   1.8482   1.8720
     1.8775   1.8815   1.8926   1.8978   1.9005   1.9057   1.9146   1.9209
     1.9221   1.9321   1.9363   1.9404   1.9461   1.9488   1.9562   1.9578
     1.9592   1.9656   1.9703   1.9741   1.9749   1.9784   1.9802   1.9882
     1.9894   1.9938   1.9975   2.0104   2.0180   2.0192   2.0205   2.0245
     2.0279   2.0323   2.0334   2.0363   2.0429   2.0467   2.0526   2.0734
     2.0794   2.0846   2.0895   2.0900   2.0947   2.0972   2.1031   2.1062
     2.1119   2.1119   2.1124   2.1141   2.1145   2.1157   2.1178   2.1344
     2.1393   2.1413   2.1415   2.1422   2.1443   2.1443   2.1452   2.1464
     2.1623   2.1638   2.1646   2.1699   2.1702   2.1989   2.2872   2.3640
     2.4090   2.5646   2.6271   2.7180   2.8092   2.8275   3.0363   3.2184
     3.2426   3.3637   3.4333

          k = 0.1042 0.1736-0.3125 (123580 PWs)   bands (ev):

   -69.3518 -69.3516 -69.3516 -69.3515 -69.3515 -69.3515 -69.3515 -69.3515
   -69.3515 -69.3515 -69.3515 -69.3515 -69.3515 -69.3515 -69.3515 -69.3515
   -69.3515 -69.3515 -69.3515 -69.3515 -69.3515 -69.3515 -69.3515 -69.3515
   -69.3515 -69.3515 -69.3515 -69.3515 -69.3515 -69.3515 -69.3515 -69.3515
   -39.3880 -39.3880 -39.3879 -39.3879 -39.3879 -39.3878 -39.3878 -39.3878
   -39.3878 -39.3878 -39.3877 -39.3877 -39.3877 -39.3877 -39.3877 -39.3877
[...]
   -39.3862 -39.3861 -39.3861 -39.3861 -39.3861 -39.3860 -39.3860 -39.3860
   -39.3860 -39.3860 -39.3860 -39.3860 -39.3860 -39.3860 -39.3860 -39.3860
   -39.3856 -39.3856 -39.3856 -39.3856 -39.3855 -39.3855 -39.3855 -39.3855
   -39.3855 -39.3855 -39.3855 -39.3855 -39.3853 -39.3853 -39.3853 -39.3853
     0.7309   0.7309   0.7309   0.7309   1.0551   1.0551   1.0551   1.0551
     1.4210   1.4210   1.4210   1.4210   1.4693   1.4693   1.4693   1.4693
     1.4693   1.4693   1.4693   1.4693   1.4714   1.4714   1.4714   1.4714
     1.4742   1.4742   1.4742   1.4742   1.4742   1.4742   1.4742   1.4742
     1.5859   1.5859   1.5859   1.5859   1.5859   1.5859   1.5859   1.5859
     1.6153   1.6153   1.6153   1.6153   1.6793   1.6793   1.6794   1.6794
     1.6794   1.6794   1.6794   1.6794   1.7003   1.7003   1.7003   1.7003
     1.7194   1.7194   1.7194   1.7194   1.7750   1.7750   1.7750   1.7750
     1.7969   1.7969   1.7969   1.7969   1.8025   1.8025   1.8025   1.8025
     1.8026   1.8026   1.8026   1.8027   1.8129   1.8129   1.8129   1.8129
     1.8321   1.8321   1.8321   1.8321   1.8474   1.8474   1.8474   1.8474
     1.8474   1.8474   1.8474   1.8474   1.8762   1.8762   1.8762   1.8762
     1.8762   1.8762   1.8762   1.8762   1.8827   1.8827   1.8827   1.8827
     1.9083   1.9083   1.9083   1.9083   1.9112   1.9112   1.9112   1.9112
     1.9112   1.9112   1.9112   1.9112   1.9522   1.9522   1.9522   1.9522
     1.9914   1.9914   1.9914   1.9914   2.0019   2.0019   2.0019   2.0019
     2.0019   2.0019   2.0019   2.0019   2.0175   2.0175   2.0175   2.0175
     2.0509   2.0509   2.0509   2.0509   2.0573   2.0573   2.0573   2.0573
     2.1472   2.1472   2.1472   2.1472   2.1472   2.1472   2.1472   2.1472
     2.1507   2.1507   2.1507   2.1507   2.1520   2.1520   2.1520   2.1520
     2.1535   2.1535   2.1535   2.1535   2.1535   2.1535   2.1535   2.1535
     2.9065   2.9065   2.9065   2.9065   3.2932   3.2932   3.2932   3.2932
     3.2932   3.2932   3.2932

          k = 0.2431 0.2431 0.2431 (123642 PWs)   bands (ev):

   -69.3518 -69.3515 -69.3515 -69.3515 -69.3515 -69.3515 -69.3515 -69.3515
   -69.3515 -69.3515 -69.3515 -69.3515 -69.3515 -69.3515 -69.3515 -69.3515
   -69.3515 -69.3515 -69.3515 -69.3515 -69.3515 -69.3515 -69.3515 -69.3515
   -69.3515 -69.3515 -69.3515 -69.3515 -69.3515 -69.3515 -69.3515 -69.3515
   -39.3879 -39.3879 -39.3879 -39.3879 -39.3878 -39.3878 -39.3878 -39.3878
   -39.3878 -39.3878 -39.3878 -39.3878 -39.3878 -39.3878 -39.3878 -39.3877
   -39.3877 -39.3877 -39.3877 -39.3877 -39.3877 -39.3877 -39.3877 -39.3877
   -39.3873 -39.3870 -39.3870 -39.3870 -39.3867 -39.3867 -39.3867 -39.3867
   -39.3867 -39.3867 -39.3867 -39.3867 -39.3867 -39.3866 -39.3866 -39.3866
   -39.3866 -39.3866 -39.3866 -39.3864 -39.3864 -39.3864 -39.3864 -39.3864
   -39.3864 -39.3864 -39.3864 -39.3864 -39.3863 -39.3863 -39.3863 -39.3863
   -39.3863 -39.3862 -39.3862 -39.3862 -39.3862 -39.3862 -39.3862 -39.3862
   -39.3862 -39.3861 -39.3861 -39.3861 -39.3861 -39.3861 -39.3861 -39.3861
   -39.3860 -39.3860 -39.3860 -39.3860 -39.3860 -39.3860 -39.3860 -39.3860
   -39.3856 -39.3856 -39.3856 -39.3856 -39.3856 -39.3855 -39.3855 -39.3855
   -39.3854 -39.3854 -39.3854 -39.3854 -39.3854 -39.3854 -39.3853 -39.3853
     0.6139   0.8165   0.8165   0.8165   0.9823   0.9823   0.9823   1.0876
     1.4311   1.4311   1.4311   1.4502   1.4502   1.4502   1.4516   1.4516
     1.4516   1.4640   1.4640   1.4640   1.4640   1.4640   1.4640   1.4803
     1.4803   1.4803   1.4839   1.4839   1.4839   1.4839   1.4839   1.4839
     1.5624   1.5624   1.5624   1.6080   1.6080   1.6080   1.6315   1.6315
     1.6315   1.6315   1.6315   1.6315   1.6743   1.6743   1.6743   1.6743
     1.6743   1.6743   1.6766   1.6766   1.6766   1.6967   1.6967   1.6967
     1.7266   1.7266   1.7266   1.7289   1.7654   1.7654   1.7654   1.7807
     1.7807   1.7918   1.7918   1.7981   1.7981   1.7981   1.8023   1.8023
     1.8023   1.8044   1.8044   1.8044   1.8099   1.8099   1.8099   1.8099
     1.8099   1.8099   1.8143   1.8143   1.8143   1.8594   1.8594   1.8594
     1.8594   1.8594   1.8594   1.8604   1.8604   1.8604   1.8625   1.8625
     1.8625   1.8688   1.8688   1.8688   1.8752   1.8752   1.8752   1.9236
     1.9236   1.9236   1.9270   1.9270   1.9270   1.9270   1.9270   1.9270
     1.9471   1.9483   1.9483   1.9483   1.9527   1.9527   1.9527   1.9740
     1.9740   1.9776   1.9776   1.9776   1.9790   1.9790   1.9790   1.9790
     1.9790   1.9790   1.9862   1.9862   1.9862   2.0084   2.0084   2.0084
     2.0185   2.0185   2.0185   2.0459   2.0459   2.0706   2.0706   2.0706
     2.1431   2.1431   2.1431   2.1487   2.1487   2.1487   2.1487   2.1487
     2.1487   2.1539   2.1539   2.1539   2.1539   2.1539   2.1539   2.1556
     2.1556   2.1556   2.1557   2.1557   2.1557   2.1655   2.1655   2.1655
     2.9671   2.9671   2.9671   3.2054   3.2054   3.2054   3.2054   3.2054
     3.2054   3.4347   3.4347

          k = 0.2431 0.2431-0.3125 (123622 PWs)   bands (ev):

   -69.3518 -69.3515 -69.3515 -69.3515 -69.3515 -69.3515 -69.3515 -69.3515
   -69.3515 -69.3515 -69.3515 -69.3515 -69.3515 -69.3515 -69.3515 -69.3515
   -69.3515 -69.3515 -69.3515 -69.3515 -69.3515 -69.3515 -69.3515 -69.3515
   -69.3515 -69.3515 -69.3515 -69.3515 -69.3515 -69.3515 -69.3515 -69.3515
   -39.3879 -39.3879 -39.3879 -39.3878 -39.3878 -39.3878 -39.3878 -39.3878
   -39.3878 -39.3878 -39.3878 -39.3878 -39.3878 -39.3878 -39.3878 -39.3878
   -39.3878 -39.3878 -39.3877 -39.3877 -39.3877 -39.3877 -39.3877 -39.3877
   -39.3871 -39.3871 -39.3868 -39.3868 -39.3867 -39.3867 -39.3867 -39.3867
   -39.3867 -39.3867 -39.3867 -39.3867 -39.3867 -39.3867 -39.3866 -39.3866
   -39.3866 -39.3866 -39.3865 -39.3865 -39.3865 -39.3865 -39.3864 -39.3864
   -39.3864 -39.3864 -39.3864 -39.3864 -39.3863 -39.3863 -39.3863 -39.3863
   -39.3862 -39.3862 -39.3862 -39.3862 -39.3862 -39.3862 -39.3861 -39.3861
   -39.3861 -39.3861 -39.3861 -39.3861 -39.3861 -39.3861 -39.3861 -39.3861
   -39.3861 -39.3861 -39.3860 -39.3860 -39.3860 -39.3860 -39.3860 -39.3860
   -39.3856 -39.3856 -39.3855 -39.3855 -39.3855 -39.3855 -39.3855 -39.3855
   -39.3854 -39.3854 -39.3854 -39.3854 -39.3854 -39.3854 -39.3853 -39.3853
     0.7059   0.7059   0.8933   0.8933   0.8933   0.8933   1.0324   1.0324
     1.4454   1.4454   1.4454   1.4454   1.4542   1.4542   1.4551   1.4551
     1.4551   1.4551   1.4598   1.4598   1.4648   1.4648   1.4648   1.4648
     1.4782   1.4782   1.4782   1.4782   1.4801   1.4801   1.4801   1.4801
     1.5834   1.5834   1.5979   1.5979   1.5979   1.5979   1.6451   1.6451
     1.6451   1.6451   1.6509   1.6509   1.6509   1.6509   1.6578   1.6578
     1.6578   1.6578   1.6850   1.6850   1.6901   1.6901   1.6901   1.6901
     1.7312   1.7312   1.7510   1.7510   1.7510   1.7510   1.7833   1.7833
     1.7871   1.7871   1.7964   1.7965   1.7965   1.7965   1.7995   1.7995
     1.7995   1.7995   1.8026   1.8026   1.8026   1.8026   1.8327   1.8327
     1.8327   1.8327   1.8335   1.8335   1.8335   1.8335   1.8396   1.8396
     1.8396   1.8396   1.8599   1.8599   1.8599   1.8599   1.8623   1.8623
     1.8655   1.8655   1.8946   1.8946   1.8946   1.8946   1.8958   1.8958
     1.9051   1.9051   1.9051   1.9051   1.9079   1.9079   1.9365   1.9365
     1.9365   1.9365   1.9479   1.9479   1.9479   1.9479   1.9541   1.9541
     1.9541   1.9541   1.9699   1.9699   1.9811   1.9811   1.9845   1.9845
     1.9845   1.9845   1.9920   1.9920   1.9920   1.9920   1.9952   1.9952
     2.0165   2.0165   2.0357   2.0357   2.0357   2.0357   2.0562   2.0562
     2.1502   2.1502   2.1502   2.1502   2.1517   2.1517   2.1534   2.1534
     2.1534   2.1534   2.1550   2.1550   2.1550   2.1550   2.1556   2.1556
     2.1556   2.1556   2.1610   2.1610   2.1610   2.1610   2.1626   2.1626
     3.0765   3.0765   3.0766   3.0766   3.2680   3.2680   3.3094   3.3094
     3.3094   3.3094   3.5020

          k = 0.2431-0.3125-0.3125 (123664 PWs)   bands (ev):

   -69.3518 -69.3515 -69.3515 -69.3515 -69.3515 -69.3515 -69.3515 -69.3515
   -69.3515 -69.3515 -69.3515 -69.3515 -69.3515 -69.3515 -69.3515 -69.3515
   -69.3515 -69.3515 -69.3515 -69.3515 -69.3515 -69.3515 -69.3515 -69.3515
   -69.3515 -69.3515 -69.3515 -69.3515 -69.3515 -69.3515 -69.3515 -69.3515
   -39.3879 -39.3879 -39.3879 -39.3878 -39.3878 -39.3878 -39.3878 -39.3878
   -39.3878 -39.3878 -39.3878 -39.3878 -39.3878 -39.3878 -39.3878 -39.3878
   -39.3878 -39.3878 -39.3878 -39.3878 -39.3877 -39.3877 -39.3877 -39.3877
   -39.3869 -39.3869 -39.3869 -39.3869 -39.3867 -39.3867 -39.3867 -39.3867
   -39.3866 -39.3866 -39.3866 -39.3866 -39.3866 -39.3866 -39.3866 -39.3865
   -39.3865 -39.3865 -39.3865 -39.3865 -39.3865 -39.3865 -39.3865 -39.3865
   -39.3865 -39.3865 -39.3865 -39.3865 -39.3863 -39.3863 -39.3863 -39.3863
   -39.3862 -39.3862 -39.3862 -39.3862 -39.3862 -39.3862 -39.3862 -39.3862
   -39.3862 -39.3862 -39.3862 -39.3862 -39.3861 -39.3861 -39.3861 -39.3861
   -39.3861 -39.3861 -39.3861 -39.3861 -39.3861 -39.3861 -39.3860 -39.3860
   -39.3855 -39.3855 -39.3855 -39.3855 -39.3855 -39.3855 -39.3855 -39.3855
   -39.3854 -39.3854 -39.3854 -39.3854 -39.3854 -39.3854 -39.3854 -39.3854
     0.7917   0.7917   0.7917   0.7917   0.9586   0.9586   0.9586   0.9586
     1.4483   1.4483   1.4483   1.4483   1.4637   1.4637   1.4637   1.4637
     1.4637   1.4637   1.4637   1.4637   1.4672   1.4672   1.4672   1.4672
     1.4672   1.4672   1.4672   1.4672   1.4697   1.4697   1.4697   1.4697
     1.6193   1.6193   1.6193   1.6193   1.6193   1.6193   1.6193   1.6193
     1.6305   1.6305   1.6305   1.6305   1.6727   1.6727   1.6727   1.6727
     1.6727   1.6727   1.6727   1.6727   1.6743   1.6743   1.6743   1.6743
     1.7453   1.7453   1.7453   1.7453   1.7825   1.7825   1.7825   1.7825
     1.7923   1.7923   1.7923   1.7923   1.7958   1.7958   1.7958   1.7958
     1.7975   1.7975   1.7975   1.7975   1.8132   1.8132   1.8132   1.8132
     1.8333   1.8333   1.8333   1.8333   1.8475   1.8475   1.8475   1.8475
     1.8475   1.8475   1.8475   1.8475   1.8699   1.8699   1.8699   1.8699
     1.8699   1.8699   1.8699   1.8699   1.8850   1.8850   1.8850   1.8850
     1.9094   1.9094   1.9094   1.9094   1.9211   1.9211   1.9211   1.9211
     1.9211   1.9211   1.9211   1.9211   1.9650   1.9650   1.9650   1.9650
     1.9650   1.9650   1.9650   1.9650   1.9653   1.9653   1.9653   1.9653
     1.9766   1.9766   1.9766   1.9766   2.0091   2.0091   2.0091   2.0091
     2.0104   2.0104   2.0104   2.0104   2.0305   2.0305   2.0305   2.0305
     2.1552   2.1552   2.1552   2.1552   2.1552   2.1552   2.1552   2.1552
     2.1573   2.1573   2.1573   2.1573   2.1585   2.1585   2.1585   2.1585
     2.1602   2.1602   2.1602   2.1602   2.1602   2.1602   2.1602   2.1602
     3.1826   3.1826   3.1826   3.1826   3.3765   3.3765   3.3765   3.3765
     3.3765   3.3765   3.3765

          k =-0.3125-0.3125-0.3125 (123360 PWs)   bands (ev):

   -69.3518 -69.3515 -69.3515 -69.3515 -69.3515 -69.3515 -69.3515 -69.3515
   -69.3515 -69.3515 -69.3515 -69.3515 -69.3515 -69.3515 -69.3515 -69.3515
   -69.3515 -69.3515 -69.3515 -69.3515 -69.3515 -69.3515 -69.3515 -69.3515
   -69.3515 -69.3515 -69.3515 -69.3515 -69.3515 -69.3515 -69.3515 -69.3515
   -39.3878 -39.3878 -39.3878 -39.3878 -39.3878 -39.3878 -39.3878 -39.3878
   -39.3878 -39.3878 -39.3878 -39.3878 -39.3878 -39.3878 -39.3878 -39.3878
   -39.3878 -39.3878 -39.3878 -39.3878 -39.3878 -39.3878 -39.3878 -39.3878
   -39.3867 -39.3867 -39.3867 -39.3867 -39.3867 -39.3867 -39.3867 -39.3867
   -39.3866 -39.3866 -39.3866 -39.3865 -39.3865 -39.3865 -39.3865 -39.3865
   -39.3865 -39.3865 -39.3865 -39.3865 -39.3865 -39.3865 -39.3865 -39.3865
   -39.3865 -39.3865 -39.3865 -39.3865 -39.3865 -39.3865 -39.3865 -39.3865
   -39.3861 -39.3861 -39.3861 -39.3861 -39.3861 -39.3861 -39.3861 -39.3861
   -39.3861 -39.3861 -39.3861 -39.3861 -39.3861 -39.3861 -39.3861 -39.3861
   -39.3861 -39.3861 -39.3861 -39.3861 -39.3861 -39.3861 -39.3861 -39.3861
   -39.3854 -39.3854 -39.3854 -39.3854 -39.3854 -39.3854 -39.3854 -39.3854
   -39.3854 -39.3854 -39.3854 -39.3854 -39.3854 -39.3854 -39.3854 -39.3854
     0.8690   0.8690   0.8690   0.8690   0.8690   0.8690   0.8690   0.8690
     1.4632   1.4632   1.4632   1.4632   1.4632   1.4632   1.4632   1.4632
     1.4632   1.4632   1.4632   1.4632   1.4632   1.4632   1.4632   1.4632
     1.4632   1.4632   1.4632   1.4632   1.4632   1.4632   1.4632   1.4632
     1.6505   1.6505   1.6505   1.6505   1.6505   1.6505   1.6505   1.6505
     1.6505   1.6505   1.6505   1.6505   1.6505   1.6505   1.6505   1.6505
     1.6505   1.6505   1.6505   1.6505   1.6505   1.6505   1.6505   1.6505
     1.7773   1.7773   1.7773   1.7773   1.7773   1.7773   1.7773   1.7773
     1.7921   1.7921   1.7921   1.7921   1.7921   1.7921   1.7921   1.7921
     1.7921   1.7921   1.7921   1.7921   1.7921   1.7921   1.7921   1.7921
     1.8587   1.8587   1.8587   1.8587   1.8587   1.8587   1.8587   1.8587
     1.8587   1.8587   1.8587   1.8587   1.8587   1.8587   1.8587   1.8587
     1.8587   1.8587   1.8587   1.8587   1.8587   1.8587   1.8587   1.8587
     1.9374   1.9374   1.9374   1.9374   1.9374   1.9374   1.9374   1.9374
     1.9374   1.9374   1.9374   1.9374   1.9374   1.9374   1.9374   1.9374
     1.9374   1.9374   1.9374   1.9374   1.9374   1.9374   1.9374   1.9374
     2.0032   2.0032   2.0032   2.0032   2.0032   2.0032   2.0032   2.0032
     2.0032   2.0032   2.0032   2.0032   2.0032   2.0032   2.0032   2.0032
     2.1602   2.1602   2.1602   2.1602   2.1602   2.1602   2.1602   2.1602
     2.1602   2.1602   2.1602   2.1602   2.1602   2.1602   2.1602   2.1602
     2.1602   2.1602   2.1602   2.1602   2.1602   2.1602   2.1602   2.1602
     3.4810   3.4810   3.4810   3.4810   3.4810   3.4810   3.4810   3.4810
     3.4810   3.4810   3.4811

     the Fermi energy is     2.1239 ev

!    total energy              =  -13797.76682553 Ry

     total all-electron energy =   -289974.157165 Ry
     estimated scf accuracy    <       0.00000064 Ry
     smearing contrib. (-TS)   =      -0.51883034 Ry
     internal energy E=F+TS    =  -13797.24799519 Ry

     The total energy is F=E-TS. E is the sum of the following terms:
     one-electron contribution =   -4167.93617186 Ry
     hartree contribution      =    2134.51054673 Ry
     xc contribution           =    -914.59740651 Ry
     ewald contribution        =   -3260.34636381 Ry
     one-center paw contrib.   =   -7588.87859974 Ry

     convergence has been achieved in  24 iterations

     Forces acting on atoms (cartesian axes, Ry/au):

     atom    1 type  1   force =     0.00000000    0.00000000    0.00000000
     atom    2 type  1   force =     0.00001739    0.00001739   -0.00000000
     atom    3 type  1   force =     0.00001739   -0.00000000    0.00001739
     atom    4 type  1   force =     0.00000000    0.00001739    0.00001739
     atom    5 type  1   force =     0.00000000    0.00000000    0.00000000
     atom    6 type  1   force =    -0.00000084   -0.00000084    0.00000000
     atom    7 type  1   force =     0.00001739   -0.00000000   -0.00001739
     atom    8 type  1   force =     0.00000000    0.00001739   -0.00001739
     atom    9 type  1   force =     0.00000000    0.00000000    0.00000000
     atom   10 type  1   force =     0.00001739   -0.00001739    0.00000000
     atom   11 type  1   force =    -0.00000084    0.00000000   -0.00000084
     atom   12 type  1   force =    -0.00000000   -0.00001739    0.00001739
     atom   13 type  1   force =     0.00000000    0.00000000    0.00000000
     atom   14 type  1   force =    -0.00000084    0.00000084    0.00000000
     atom   15 type  1   force =    -0.00000084   -0.00000000    0.00000084
     atom   16 type  1   force =     0.00000000   -0.00001739   -0.00001739
     atom   17 type  1   force =     0.00000000    0.00000000    0.00000000
     atom   18 type  1   force =    -0.00001739    0.00001739    0.00000000
     atom   19 type  1   force =    -0.00001739   -0.00000000    0.00001739
     atom   20 type  1   force =    -0.00000000   -0.00000084   -0.00000084
     atom   21 type  1   force =     0.00000000    0.00000000    0.00000000
     atom   22 type  1   force =     0.00000084   -0.00000084   -0.00000000
     atom   23 type  1   force =    -0.00001739    0.00000000   -0.00001739
     atom   24 type  1   force =    -0.00000000   -0.00000084    0.00000084
     atom   25 type  1   force =     0.00000000    0.00000000    0.00000000
     atom   26 type  1   force =    -0.00001739   -0.00001739   -0.00000000
     atom   27 type  1   force =     0.00000084    0.00000000   -0.00000084
     atom   28 type  1   force =     0.00000000    0.00000084   -0.00000084
     atom   29 type  1   force =     0.00000000    0.00000000    0.00000000
     atom   30 type  1   force =     0.00000084    0.00000084   -0.00000000
     atom   31 type  1   force =     0.00000084   -0.00000000    0.00000084
     atom   32 type  1   force =     0.00000000    0.00000084    0.00000084

     Total force =     0.000085     Total SCF correction =     0.001067
     SCF correction compared to forces is large: reduce conv_thr to get better values


     Computing stress (Cartesian axis) and pressure

          total   stress  (Ry/bohr**3)                   (kbar)     P=      -87.61
  -0.00059555   0.00000000   0.00000000          -87.61        0.00        0.00
   0.00000000  -0.00059555   0.00000000            0.00      -87.61        0.00
   0.00000000   0.00000000  -0.00059555            0.00        0.00      -87.61


     Writing output data file /scratch/TyxhdmOultatuwMK.save/
 
     init_run     :     36.05s CPU     36.75s WALL (       1 calls)
     electrons    :   2273.12s CPU   2297.91s WALL (       1 calls)
     forces       :     12.61s CPU     12.78s WALL (       1 calls)
     stress       :    162.10s CPU    163.00s WALL (       1 calls)

     Called by init_run:
     wfcinit      :     34.49s CPU     35.06s WALL (       1 calls)
     potinit      :      0.23s CPU      0.27s WALL (       1 calls)
     hinit0       :      0.16s CPU      0.16s WALL (       1 calls)

     Called by electrons:
     c_bands      :   2036.36s CPU   2056.45s WALL (      24 calls)
     sum_band     :    229.55s CPU    233.05s WALL (      24 calls)
     v_of_rho     :      1.73s CPU      1.85s WALL (      25 calls)
     newd         :      2.54s CPU      3.45s WALL (      25 calls)
     PAW_pot      :      2.10s CPU      2.22s WALL (      25 calls)
     mix_rho      :      0.75s CPU      0.81s WALL (      24 calls)

     Called by c_bands:
     init_us_2    :     15.36s CPU     15.51s WALL (    1785 calls)
     cegterg      :   1985.28s CPU   2004.84s WALL (     840 calls)

     Called by *egterg:
     cdiaghg      :    116.10s CPU    116.99s WALL (    3297 calls)
     h_psi        :   1012.27s CPU   1023.04s WALL (    3332 calls)
     s_psi        :    107.02s CPU    107.75s WALL (    3332 calls)
     g_psi        :      4.52s CPU      4.58s WALL (    2457 calls)

     Called by h_psi:
     h_psi:calbec :    142.57s CPU    143.50s WALL (    3332 calls)
     vloc_psi     :    752.33s CPU    761.03s WALL (    3332 calls)
     add_vuspsi   :    108.54s CPU    109.46s WALL (    3332 calls)

     General routines
     calbec       :    219.24s CPU    220.67s WALL (    4347 calls)
     fft          :      2.08s CPU      2.16s WALL (     348 calls)
     ffts         :      0.23s CPU      0.24s WALL (      49 calls)
     fftw         :    870.88s CPU    880.91s WALL ( 1524584 calls)
     interpolate  :      0.17s CPU      0.18s WALL (      25 calls)
 
     Parallel routines
     fft_scatt_xy :     69.65s CPU     70.40s WALL ( 1524981 calls)
     fft_scatt_yz :    572.28s CPU    579.34s WALL ( 1524981 calls)
 
     PWSCF        :  41m43.25s CPU  42m16.58s WALL

 
   This run was terminated on:  17:41:46  25Nov2021            

=------------------------------------------------------------------------------=
   JOB DONE.
=------------------------------------------------------------------------------=
