
     Program PWSCF v.6.7MaX starts on 25Nov2021 at 15:11:32 

     This program is part of the open-source Quantum ESPRESSO suite
     for quantum simulation of materials; please cite
         "P. Giannozzi et al., J. Phys.:Condens. Matter 21 395502 (2009);
         "P. Giannozzi et al., J. Phys.:Condens. Matter 29 465901 (2017);
          URL http://www.quantum-espresso.org", 
     in publications or presentations arising from this work. More details at
     http://www.quantum-espresso.org/quote

     Parallel version (MPI & OpenMP), running on      72 processor cores
     Number of MPI processes:                72
     Threads/MPI process:                     1

     MPI processes distributed on     1 nodes
     R & G space division:  proc/nbgrp/npool/nimage =      72
     Reading input from fcc_1.in
Warning: card &CELL ignored
Warning: card CELL_DYNAMICS = 'BFGS', ignored
Warning: card CELL_FACTOR = 2.0, ignored
Warning: card PRESS = 0.0, ignored
Warning: card / ignored

     Current dimensions of program PWSCF are:
     Max number of different atomic species (ntypx) = 10
     Max number of k-points (npk) =  40000
     Max angular momentum in pseudopotentials (lmaxx) =  3
     file Ru.pbe-spn-kjpaw_psl.1.0.0.UPF: wavefunction(s)  4D renormalized

     Subspace diagonalization in iterative solution of the eigenvalue problem:
     one sub-group per band group will be used
     ELPA distributed-memory algorithm (size of sub-group:  8*  8 procs)

     Found symmetry operation: I + (  0.2500  0.2500  0.0000)
     This is a supercell, fractional translations are disabled
     Message from routine setup:
     using ibrav=0 with symmetry is DISCOURAGED, use correct ibrav instead
 
     Parallelization info
     --------------------
     sticks:   dense  smooth     PW     G-vecs:    dense   smooth      PW
     Min          98      65     17                 6240     3351     475
     Max          99      66     18                 6245     3355     482
     Sum        7113    4693   1281               449479   241377   34457
 


     bravais-lattice index     =            0
     lattice parameter (alat)  =      14.4000  a.u.
     unit-cell volume          =    2985.9840 (a.u.)^3
     number of atoms/cell      =           32
     number of atomic types    =            1
     number of electrons       =       512.00
     number of Kohn-Sham states=          307
     kinetic-energy cutoff     =      71.0000  Ry
     charge density cutoff     =     430.0000  Ry
     scf convergence threshold =      1.0E-06
     mixing beta               =       0.1000
     number of iterations used =           10  TF        mixing
     Exchange-correlation= SLA  PW   PBX  PBC
                           (   1   4   3   4   0   0   0)

     celldm(1)=  14.400000  celldm(2)=   0.000000  celldm(3)=   0.000000
     celldm(4)=   0.000000  celldm(5)=   0.000000  celldm(6)=   0.000000

     crystal axes: (cart. coord. in units of alat)
               a(1) = (   1.000000   0.000000   0.000000 )  
               a(2) = (   0.000000   1.000000   0.000000 )  
               a(3) = (   0.000000   0.000000   1.000000 )  

     reciprocal axes: (cart. coord. in units 2 pi/alat)
               b(1) = (  1.000000  0.000000  0.000000 )  
               b(2) = (  0.000000  1.000000  0.000000 )  
               b(3) = (  0.000000  0.000000  1.000000 )  


     PseudoPot. # 1 for Ru read from file:
     /rds/homes/b/bxp912/pp/Ru.pbe-spn-kjpaw_psl.1.0.0.UPF
     MD5 check sum: 0ae1f594dea09af7be8575c3a481d1ae
     Pseudo is Projector augmented-wave + core cor, Zval = 16.0
     Generated using "atomic" code by A. Dal Corso  v.5.1
     Shape of augmentation charge: PSQ
     Using radial grid of 1233 points,  6 beta functions with: 
                l(1) =   0
                l(2) =   0
                l(3) =   1
                l(4) =   1
                l(5) =   2
                l(6) =   2
     Q(r) pseudized with 0 coefficients 


     atomic species   valence    mass     pseudopotential
        Ru            16.00   101.07000     Ru( 1.00)

     48 Sym. Ops., with inversion, found



   Cartesian axes

     site n.     atom                  positions (alat units)
         1           Ru  tau(   1) = (   0.0000000   0.0000000   0.0000000  )
         2           Ru  tau(   2) = (   0.2500000   0.2500000   0.0000000  )
         3           Ru  tau(   3) = (   0.2500000   0.0000000   0.2500000  )
         4           Ru  tau(   4) = (   0.0000000   0.2500000   0.2500000  )
         5           Ru  tau(   5) = (   0.0000000   0.0000000   0.5000000  )
         6           Ru  tau(   6) = (   0.2500000   0.2500000   0.5000000  )
         7           Ru  tau(   7) = (   0.2500000   0.0000000   0.7500000  )
         8           Ru  tau(   8) = (   0.0000000   0.2500000   0.7500000  )
         9           Ru  tau(   9) = (   0.0000000   0.5000000   0.0000000  )
        10           Ru  tau(  10) = (   0.2500000   0.7500000   0.0000000  )
        11           Ru  tau(  11) = (   0.2500000   0.5000000   0.2500000  )
        12           Ru  tau(  12) = (   0.0000000   0.7500000   0.2500000  )
        13           Ru  tau(  13) = (   0.0000000   0.5000000   0.5000000  )
        14           Ru  tau(  14) = (   0.2500000   0.7500000   0.5000000  )
        15           Ru  tau(  15) = (   0.2500000   0.5000000   0.7500000  )
        16           Ru  tau(  16) = (   0.0000000   0.7500000   0.7500000  )
        17           Ru  tau(  17) = (   0.5000000   0.0000000   0.0000000  )
        18           Ru  tau(  18) = (   0.7500000   0.2500000   0.0000000  )
        19           Ru  tau(  19) = (   0.7500000   0.0000000   0.2500000  )
        20           Ru  tau(  20) = (   0.5000000   0.2500000   0.2500000  )
        21           Ru  tau(  21) = (   0.5000000   0.0000000   0.5000000  )
        22           Ru  tau(  22) = (   0.7500000   0.2500000   0.5000000  )
        23           Ru  tau(  23) = (   0.7500000   0.0000000   0.7500000  )
        24           Ru  tau(  24) = (   0.5000000   0.2500000   0.7500000  )
        25           Ru  tau(  25) = (   0.5000000   0.5000000   0.0000000  )
        26           Ru  tau(  26) = (   0.7500000   0.7500000   0.0000000  )
        27           Ru  tau(  27) = (   0.7500000   0.5000000   0.2500000  )
        28           Ru  tau(  28) = (   0.5000000   0.7500000   0.2500000  )
        29           Ru  tau(  29) = (   0.5000000   0.5000000   0.5000000  )
        30           Ru  tau(  30) = (   0.7500000   0.7500000   0.5000000  )
        31           Ru  tau(  31) = (   0.7500000   0.5000000   0.7500000  )
        32           Ru  tau(  32) = (   0.5000000   0.7500000   0.7500000  )

     number of k points=    35  Marzari-Vanderbilt smearing, width (Ry)=  0.0400
                       cart. coord. in units 2pi/alat
        k(    1) = (   0.0555556   0.0555556   0.0555556), wk =   0.0219479
        k(    2) = (   0.0555556   0.0555556   0.1666667), wk =   0.0658436
        k(    3) = (   0.0555556   0.0555556   0.2777778), wk =   0.0658436
        k(    4) = (   0.0555556   0.0555556   0.3888889), wk =   0.0658436
        k(    5) = (   0.0555556   0.0555556  -0.5000000), wk =   0.0329218
        k(    6) = (   0.0555556   0.1666667   0.1666667), wk =   0.0658436
        k(    7) = (   0.0555556   0.1666667   0.2777778), wk =   0.1316872
        k(    8) = (   0.0555556   0.1666667   0.3888889), wk =   0.1316872
        k(    9) = (   0.0555556   0.1666667  -0.5000000), wk =   0.0658436
        k(   10) = (   0.0555556   0.2777778   0.2777778), wk =   0.0658436
        k(   11) = (   0.0555556   0.2777778   0.3888889), wk =   0.1316872
        k(   12) = (   0.0555556   0.2777778  -0.5000000), wk =   0.0658436
        k(   13) = (   0.0555556   0.3888889   0.3888889), wk =   0.0658436
        k(   14) = (   0.0555556   0.3888889  -0.5000000), wk =   0.0658436
        k(   15) = (   0.0555556  -0.5000000  -0.5000000), wk =   0.0164609
        k(   16) = (   0.1666667   0.1666667   0.1666667), wk =   0.0219479
        k(   17) = (   0.1666667   0.1666667   0.2777778), wk =   0.0658436
        k(   18) = (   0.1666667   0.1666667   0.3888889), wk =   0.0658436
        k(   19) = (   0.1666667   0.1666667  -0.5000000), wk =   0.0329218
        k(   20) = (   0.1666667   0.2777778   0.2777778), wk =   0.0658436
        k(   21) = (   0.1666667   0.2777778   0.3888889), wk =   0.1316872
        k(   22) = (   0.1666667   0.2777778  -0.5000000), wk =   0.0658436
        k(   23) = (   0.1666667   0.3888889   0.3888889), wk =   0.0658436
        k(   24) = (   0.1666667   0.3888889  -0.5000000), wk =   0.0658436
        k(   25) = (   0.1666667  -0.5000000  -0.5000000), wk =   0.0164609
        k(   26) = (   0.2777778   0.2777778   0.2777778), wk =   0.0219479
        k(   27) = (   0.2777778   0.2777778   0.3888889), wk =   0.0658436
        k(   28) = (   0.2777778   0.2777778  -0.5000000), wk =   0.0329218
        k(   29) = (   0.2777778   0.3888889   0.3888889), wk =   0.0658436
        k(   30) = (   0.2777778   0.3888889  -0.5000000), wk =   0.0658436
        k(   31) = (   0.2777778  -0.5000000  -0.5000000), wk =   0.0164609
        k(   32) = (   0.3888889   0.3888889   0.3888889), wk =   0.0219479
        k(   33) = (   0.3888889   0.3888889  -0.5000000), wk =   0.0329218
        k(   34) = (   0.3888889  -0.5000000  -0.5000000), wk =   0.0164609
        k(   35) = (  -0.5000000  -0.5000000  -0.5000000), wk =   0.0027435

     Dense  grid:   449479 G-vectors     FFT dimensions: (  96,  96,  96)

     Smooth grid:   241377 G-vectors     FFT dimensions: (  80,  80,  80)

     Estimated max dynamical RAM per process >     106.91 MB

     Estimated total dynamical RAM >       7.52 GB

     Check: negative core charge=   -0.000002

     Initial potential from superposition of free atoms

     starting charge  511.97959, renormalised to  512.00000
     Starting wfcs are  320 randomized atomic wfcs
     Checking if some PAW data can be deallocated... 

     total cpu time spent up to now is       16.8 secs

     Self-consistent Calculation

     iteration #  1     ecut=    71.00 Ry     beta= 0.10
     Davidson diagonalization with overlap
     ethr =  1.00E-02,  avg # of iterations =  3.4

     Threshold (ethr) on eigenvalues was too large:
     Diagonalizing with lowered threshold

     Davidson diagonalization with overlap
     ethr =  8.35E-05,  avg # of iterations =  5.4

     total cpu time spent up to now is      103.4 secs

     total energy              =  -13813.45351567 Ry
     estimated scf accuracy    <       0.63782328 Ry

     iteration #  2     ecut=    71.00 Ry     beta= 0.10
     Davidson diagonalization with overlap
     ethr =  1.25E-04,  avg # of iterations =  1.1

     total cpu time spent up to now is      135.2 secs

     total energy              =  -13813.17365278 Ry
     estimated scf accuracy    <       0.50264399 Ry

     iteration #  3     ecut=    71.00 Ry     beta= 0.10
     Davidson diagonalization with overlap
     ethr =  9.82E-05,  avg # of iterations =  2.4

     total cpu time spent up to now is      179.0 secs

     total energy              =  -13813.29679560 Ry
     estimated scf accuracy    <       0.01424398 Ry

     iteration #  4     ecut=    71.00 Ry     beta= 0.10
     Davidson diagonalization with overlap
     ethr =  2.78E-06,  avg # of iterations =  3.6

     total cpu time spent up to now is      226.6 secs

     total energy              =  -13813.29864734 Ry
     estimated scf accuracy    <       0.01429729 Ry

     iteration #  5     ecut=    71.00 Ry     beta= 0.10
     Davidson diagonalization with overlap
     ethr =  2.78E-06,  avg # of iterations =  2.6

     total cpu time spent up to now is      275.0 secs

     total energy              =  -13813.30038244 Ry
     estimated scf accuracy    <       0.00795716 Ry

     iteration #  6     ecut=    71.00 Ry     beta= 0.10
     Davidson diagonalization with overlap
     ethr =  1.55E-06,  avg # of iterations =  2.0

     total cpu time spent up to now is      310.6 secs

     total energy              =  -13813.30091053 Ry
     estimated scf accuracy    <       0.00117095 Ry

     iteration #  7     ecut=    71.00 Ry     beta= 0.10
     Davidson diagonalization with overlap
     ethr =  2.29E-07,  avg # of iterations =  2.7

     total cpu time spent up to now is      348.4 secs

     total energy              =  -13813.30093168 Ry
     estimated scf accuracy    <       0.00027451 Ry

     iteration #  8     ecut=    71.00 Ry     beta= 0.10
     Davidson diagonalization with overlap
     ethr =  5.36E-08,  avg # of iterations =  2.2

     total cpu time spent up to now is      382.0 secs

     total energy              =  -13813.30092603 Ry
     estimated scf accuracy    <       0.00007410 Ry

     iteration #  9     ecut=    71.00 Ry     beta= 0.10
     Davidson diagonalization with overlap
     ethr =  1.45E-08,  avg # of iterations =  2.0

     total cpu time spent up to now is      429.8 secs

     total energy              =  -13813.30087189 Ry
     estimated scf accuracy    <       0.00017641 Ry

     iteration # 10     ecut=    71.00 Ry     beta= 0.10
     Davidson diagonalization with overlap
     ethr =  1.45E-08,  avg # of iterations =  2.0

     total cpu time spent up to now is      466.0 secs

     total energy              =  -13813.30087755 Ry
     estimated scf accuracy    <       0.00001449 Ry

     iteration # 11     ecut=    71.00 Ry     beta= 0.10
     Davidson diagonalization with overlap
     ethr =  2.83E-09,  avg # of iterations =  3.4

     total cpu time spent up to now is      511.8 secs

     End of self-consistent calculation

          k = 0.0556 0.0556 0.0556 ( 30224 PWs)   bands (ev):

   -49.9024 -49.8025 -49.8025 -49.8025 -49.7832 -49.7832 -49.7832 -49.7472
   -49.7472 -49.7472 -49.7378 -49.7367 -49.7367 -49.7367 -49.7366 -49.7366
   -49.7366 -49.7362 -49.7361 -49.7361 -49.7278 -49.7278 -49.7278 -49.6823
   -49.6822 -49.6822 -49.6819 -49.6819 -49.6819 -49.6818 -49.6818 -49.6818
   -20.3076 -20.3076 -20.3076 -20.3034 -20.2449 -20.2449 -20.2449 -20.0444
   -20.0444 -20.0444 -20.0330 -20.0330 -20.0330 -20.0329 -20.0329 -20.0329
   -20.0127 -20.0127 -20.0127 -19.9900 -19.9900 -19.9900 -19.9900 -19.9900
   -19.9900 -19.9394 -19.9394 -19.9394 -19.9394 -19.9394 -19.9394 -19.8400
   -19.8400 -19.8400 -19.7668 -19.7668 -19.7668 -19.7590 -19.7590 -19.7590
   -19.7252 -19.7252 -19.7252 -19.7251 -19.7251 -19.7251 -19.6850 -19.6850
   -19.6849 -19.6781 -19.6781 -19.6781 -19.6780 -19.6780 -19.6780 -19.6723
   -19.6722 -19.6722 -19.6677 -19.6677 -19.6677 -19.5050 -19.5050 -19.5050
   -19.5044 -19.5044 -19.5044 -19.4728 -19.4728 -19.4728 -19.4726 -19.4726
   -19.4726 -19.4578 -19.4578 -19.4578 -19.4455 -19.4454 -19.4454 -19.4444
   -19.4444 -19.4444 -19.4444 -19.4444 -19.4444 -19.4424 -19.4424 -19.4424
   -19.4395 -19.4395 -19.4259 -19.4259 -19.4259 -19.3129 -19.3060 -19.3060
    15.3475  16.9044  16.9044  16.9044  17.1846  17.2023  17.2023  17.2023
    17.3729  17.3729  17.3729  17.6017  17.6017  17.6017  17.7729  17.7729
    17.7729  18.3138  18.3138  18.3138  18.3138  18.3138  18.3138  18.6294
    18.6294  18.6294  18.8966  18.8966  18.8966  18.9027  18.9027  18.9027
    19.0021  19.0021  19.0021  19.0058  19.0058  19.0058  19.0058  19.0058
    19.0058  19.4963  19.4963  19.4963  19.4963  19.4963  19.4963  19.6406
    19.6406  19.6407  19.6725  19.6725  19.6725  19.6725  19.6725  19.6725
    19.7369  19.7369  19.7369  20.0002  20.0002  20.0002  20.0013  20.0013
    20.0013  20.0013  20.0013  20.0013  20.0018  20.0018  20.0018  20.0018
    20.0018  20.0018  20.1712  20.1712  20.1712  20.4556  20.4556  20.4556
    20.4917  20.4917  20.5068  20.5068  20.5069  20.5857  20.6171  20.6171
    21.5935  21.5935  21.5935  21.7640  21.7640  21.7640  21.8117  21.8117
    21.8117  21.9119  21.9119  21.9119  21.9119  21.9119  21.9119  21.9258
    21.9258  21.9258  22.2229  22.2229  22.2229  22.3428  22.3428  22.3428
    22.5918  22.5918  22.5918  22.6692  22.6692  22.6692  22.6692  22.6692
    22.6692  22.6878  22.6878  22.6878  22.7280  22.7280  22.7280  22.9178
    22.9178  22.9178  22.9178  22.9178  22.9178  22.9772  22.9772  23.0911
    23.0911  23.0911  23.7527  23.7527  23.7527  23.7987  23.7987  23.7987
    23.9129  23.9130  23.9130  23.9991  24.7326  24.7326  24.7327  24.7749
    24.7749  24.8099  24.8099  24.8099  25.0936  25.0936  25.0936  25.1179
    25.1179  25.1179  25.2801  25.2801  25.2801  25.2802  25.2802  25.2802
    25.2852  25.2852  25.2852  26.7286  26.7286  26.7286  26.8923  26.8923
    26.8923  27.2624  27.2624

          k = 0.0556 0.0556 0.1667 ( 30207 PWs)   bands (ev):

   -49.8991 -49.8214 -49.8006 -49.8006 -49.7817 -49.7816 -49.7642 -49.7576
   -49.7576 -49.7469 -49.7454 -49.7454 -49.7395 -49.7367 -49.7366 -49.7362
   -49.7361 -49.7344 -49.7281 -49.7263 -49.7263 -49.7191 -49.7191 -49.6857
   -49.6837 -49.6837 -49.6834 -49.6834 -49.6823 -49.6822 -49.6819 -49.6818
   -20.3001 -20.2963 -20.2963 -20.2881 -20.2365 -20.2365 -20.2318 -20.0754
   -20.0620 -20.0619 -20.0489 -20.0489 -20.0463 -20.0463 -20.0409 -20.0385
   -20.0385 -20.0152 -20.0152 -20.0004 -20.0004 -19.9869 -19.9869 -19.9860
   -19.9860 -19.9476 -19.9476 -19.9303 -19.9303 -19.9185 -19.8903 -19.8903
   -19.8526 -19.8525 -19.8075 -19.8075 -19.7754 -19.7754 -19.7646 -19.7646
   -19.7337 -19.6959 -19.6959 -19.6839 -19.6839 -19.6828 -19.6828 -19.6780
   -19.6773 -19.6772 -19.6670 -19.6670 -19.6667 -19.6634 -19.6634 -19.6623
   -19.6618 -19.6618 -19.6582 -19.6452 -19.6452 -19.5368 -19.5355 -19.5122
   -19.5122 -19.4966 -19.4966 -19.4798 -19.4798 -19.4774 -19.4774 -19.4690
   -19.4690 -19.4633 -19.4632 -19.4629 -19.4572 -19.4562 -19.4562 -19.4455
   -19.4451 -19.4444 -19.4443 -19.4434 -19.4433 -19.4415 -19.4406 -19.4375
   -19.4375 -19.4368 -19.4263 -19.4141 -19.4141 -19.3303 -19.3116 -19.3096
    15.4338  16.9552  16.9681  16.9681  17.2243  17.2595  17.2595  17.2769
    17.2998  17.4109  17.4349  17.4349  17.6639  17.6639  17.7945  17.8384
    17.8384  18.1930  18.1930  18.3622  18.3622  18.3717  18.3717  18.3720
    18.5828  18.6688  18.6688  18.6881  18.6881  18.7380  18.7597  18.7597
    18.9356  18.9356  18.9455  18.9455  18.9677  18.9677  19.0416  19.0416
    19.1007  19.1007  19.1848  19.4747  19.4747  19.5002  19.5002  19.5517
    19.5517  19.5659  19.5659  19.6246  19.6246  19.7134  19.7134  19.7446
    19.8218  19.8218  19.8406  19.8407  19.9366  19.9540  19.9540  19.9871
    19.9871  20.0002  20.0002  20.0087  20.0087  20.2523  20.2523  20.2738
    20.2738  20.2983  20.3523  20.3820  20.4136  20.4136  20.4886  20.5245
    20.5253  20.5516  20.5516  20.5594  20.5594  20.5702  20.6601  20.6640
    21.3619  21.3619  21.4924  21.4924  21.5820  21.6095  21.7197  21.7197
    21.7497  21.8458  21.8458  21.8826  22.0236  22.0236  22.0274  22.0569
    22.0569  22.1038  22.1038  22.1332  22.1990  22.1990  22.5251  22.5251
    22.5432  22.5432  22.5582  22.5582  22.6709  22.6709  22.6855  22.6855
    22.8059  22.8059  22.8290  22.8290  22.9056  22.9268  22.9366  22.9366
    22.9821  23.0017  23.1418  23.1418  23.1576  23.2053  23.2053  23.2912
    23.3244  23.3244  23.3343  23.3857  23.3857  23.5733  23.5991  23.8152
    23.8152  24.0061  24.0061  24.0758  24.5318  24.5318  24.6441  24.6441
    24.6584  24.6922  24.7569  24.7569  24.7613  24.9571  25.0274  25.1522
    25.1522  25.1535  25.1535  25.1745  25.2787  25.2788  25.2799  25.2799
    25.4604  25.4604  25.6868  26.2095  26.2095  26.5904  26.6699  26.7358
    26.7358  27.2064  27.2065

          k = 0.0556 0.0556 0.2778 ( 30183 PWs)   bands (ev):

   -49.8925 -49.8394 -49.7970 -49.7970 -49.7786 -49.7786 -49.7676 -49.7675
   -49.7538 -49.7537 -49.7462 -49.7460 -49.7412 -49.7366 -49.7365 -49.7362
   -49.7362 -49.7329 -49.7286 -49.7164 -49.7164 -49.7108 -49.7108 -49.6923
   -49.6872 -49.6872 -49.6864 -49.6863 -49.6823 -49.6822 -49.6820 -49.6819
   -20.2816 -20.2741 -20.2741 -20.2622 -20.2200 -20.2200 -20.2061 -20.1211
   -20.1064 -20.1064 -20.0853 -20.0848 -20.0848 -20.0522 -20.0522 -20.0464
   -20.0464 -20.0157 -20.0157 -19.9926 -19.9920 -19.9919 -19.9899 -19.9899
   -19.9538 -19.9538 -19.9503 -19.9503 -19.9148 -19.9148 -19.8750 -19.8750
   -19.8461 -19.8461 -19.8429 -19.8429 -19.8041 -19.8041 -19.8022 -19.8022
   -19.7010 -19.7010 -19.6838 -19.6759 -19.6758 -19.6680 -19.6679 -19.6559
   -19.6517 -19.6508 -19.6507 -19.6445 -19.6445 -19.6374 -19.6374 -19.6342
   -19.6342 -19.6165 -19.6072 -19.6072 -19.5996 -19.5670 -19.5651 -19.5268
   -19.5268 -19.5027 -19.5027 -19.4989 -19.4989 -19.4939 -19.4939 -19.4916
   -19.4831 -19.4830 -19.4789 -19.4789 -19.4628 -19.4561 -19.4484 -19.4484
   -19.4478 -19.4442 -19.4442 -19.4436 -19.4435 -19.4372 -19.4372 -19.4343
   -19.4272 -19.4115 -19.4100 -19.4094 -19.4094 -19.3611 -19.3226 -19.3198
    15.6037  16.9243  17.0538  17.0926  17.0926  17.3214  17.3732  17.3732
    17.4071  17.4866  17.5585  17.5585  17.6995  17.7842  17.7842  17.9656
    17.9656  17.9863  17.9863  18.1360  18.2459  18.3458  18.3458  18.4129
    18.4542  18.4542  18.4853  18.4853  18.5847  18.5847  18.6370  18.6370
    18.7464  18.7464  18.8016  18.8016  18.9153  18.9153  18.9997  18.9997
    19.1729  19.1729  19.3765  19.3765  19.4396  19.4396  19.4418  19.4418
    19.4574  19.4574  19.4675  19.5027  19.5027  19.5982  19.5982  19.7573
    19.7573  19.8090  19.8743  19.8743  19.9378  19.9378  20.0029  20.0029
    20.0190  20.0191  20.0814  20.0814  20.1081  20.2783  20.3411  20.3412
    20.3492  20.3492  20.3982  20.4499  20.6069  20.6573  20.6573  20.6785
    20.6804  20.6946  20.6946  20.7541  20.7575  20.8011  21.0841  21.0841
    21.1451  21.1451  21.1477  21.1477  21.3580  21.4709  21.4710  21.5057
    21.5181  21.5764  21.9353  21.9760  21.9760  22.1858  22.1858  22.2037
    22.2037  22.2414  22.2414  22.3185  22.3185  22.4389  22.4389  22.5387
    22.5387  22.6586  22.6635  22.6635  22.6758  22.6758  22.7013  22.7013
    22.7560  22.7560  22.7678  22.8264  22.8566  22.8566  22.9727  23.0426
    23.0426  23.0501  23.1096  23.1097  23.2491  23.3836  23.4530  23.4530
    23.4560  23.5364  23.5364  23.5798  23.6098  23.6098  23.6303  23.8481
    23.8481  23.9931  23.9931  24.2376  24.2606  24.2606  24.4368  24.4369
    24.4681  24.6026  24.6026  24.6036  24.6331  24.6940  24.9190  24.9190
    24.9202  24.9202  24.9764  25.2779  25.2779  25.2795  25.2795  25.4235
    25.7001  25.7001  25.8953  25.8953  26.0630  26.2066  26.2066  26.2447
    26.5500  27.0896  27.0896

          k = 0.0556 0.0556 0.3889 ( 30161 PWs)   bands (ev):

   -49.8830 -49.8560 -49.7917 -49.7917 -49.7767 -49.7767 -49.7741 -49.7741
   -49.7615 -49.7615 -49.7453 -49.7427 -49.7365 -49.7364 -49.7363 -49.7362
   -49.7315 -49.7293 -49.7293 -49.7073 -49.7073 -49.7031 -49.7031 -49.7020
   -49.6925 -49.6925 -49.6907 -49.6907 -49.6822 -49.6821 -49.6820 -49.6820
   -20.2526 -20.2420 -20.2420 -20.2267 -20.1958 -20.1958 -20.1696 -20.1682
   -20.1551 -20.1550 -20.1349 -20.1272 -20.1272 -20.0600 -20.0511 -20.0511
   -20.0374 -20.0374 -20.0311 -20.0311 -20.0053 -20.0053 -19.9644 -19.9644
   -19.9361 -19.9361 -19.9175 -19.9175 -19.9034 -19.9034 -19.8938 -19.8938
   -19.8813 -19.8813 -19.8399 -19.8399 -19.8369 -19.8369 -19.7990 -19.7990
   -19.7269 -19.7269 -19.6739 -19.6739 -19.6697 -19.6696 -19.6399 -19.6362
   -19.6294 -19.6079 -19.6079 -19.6045 -19.6045 -19.6011 -19.6010 -19.6009
   -19.6009 -19.5948 -19.5922 -19.5719 -19.5719 -19.5707 -19.5481 -19.5481
   -19.5328 -19.5328 -19.5326 -19.5326 -19.5301 -19.5263 -19.5144 -19.5144
   -19.5120 -19.5120 -19.4907 -19.4676 -19.4676 -19.4546 -19.4504 -19.4441
   -19.4440 -19.4437 -19.4437 -19.4428 -19.4428 -19.4327 -19.4327 -19.4320
   -19.4284 -19.4114 -19.4114 -19.4051 -19.3838 -19.3818 -19.3387 -19.3359
    15.8513  16.5328  17.1933  17.2711  17.2712  17.4748  17.5406  17.5419
    17.5419  17.5905  17.5989  17.7400  17.7401  17.7426  17.7426  17.9261
    17.9414  17.9538  17.9538  18.0330  18.0330  18.1008  18.1458  18.1458
    18.2842  18.2842  18.3772  18.3772  18.5791  18.5791  18.5944  18.5944
    18.6500  18.6500  18.8343  18.8343  18.8604  18.8604  19.0800  19.0800
    19.0914  19.0914  19.1842  19.1842  19.3311  19.3311  19.3734  19.3734
    19.4156  19.4156  19.4811  19.4811  19.4895  19.4895  19.7396  19.7396
    19.7413  19.7929  19.7929  19.9078  20.0219  20.0219  20.0278  20.0278
    20.0346  20.0347  20.1557  20.2084  20.2183  20.2462  20.2462  20.2585
    20.2585  20.3835  20.4544  20.4544  20.7350  20.7997  20.7997  20.8102
    20.8102  20.8271  20.8271  20.8349  20.8944  20.8968  21.1173  21.1303
    21.1303  21.1955  21.2570  21.2877  21.2944  21.2944  21.2979  21.3082
    21.7778  21.7778  22.1011  22.1011  22.1092  22.1726  22.1726  22.3043
    22.3043  22.3090  22.3599  22.3730  22.3730  22.4174  22.4174  22.4533
    22.4533  22.5032  22.5032  22.5146  22.5146  22.5749  22.6290  22.6290
    22.6681  22.6681  22.6907  22.6907  22.7794  22.7794  22.9996  22.9996
    23.1215  23.1392  23.1392  23.2560  23.3267  23.4568  23.4568  23.5885
    23.7811  23.7818  23.7818  23.8877  23.8942  23.8942  23.9335  23.9335
    24.1569  24.1569  24.1578  24.2161  24.3130  24.3130  24.3161  24.3765
    24.3765  24.3965  24.4347  24.4358  24.6115  24.6115  24.6152  24.6152
    24.6685  24.6685  24.7478  25.2035  25.2035  25.2779  25.2779  25.2789
    25.2789  25.4176  25.6767  25.6767  25.7960  26.3013  26.3014  26.3653
    26.7361  26.9038  26.9038

          k = 0.0556 0.0556-0.5000 ( 30178 PWs)   bands (ev):

   -49.8707 -49.8707 -49.7849 -49.7849 -49.7848 -49.7848 -49.7684 -49.7683
   -49.7683 -49.7683 -49.7441 -49.7441 -49.7364 -49.7364 -49.7363 -49.7363
   -49.7303 -49.7303 -49.7145 -49.7145 -49.6992 -49.6992 -49.6992 -49.6992
   -49.6964 -49.6964 -49.6964 -49.6964 -49.6821 -49.6821 -49.6821 -49.6821
   -20.2146 -20.2146 -20.2015 -20.2015 -20.2015 -20.2015 -20.1834 -20.1834
   -20.1646 -20.1646 -20.1646 -20.1646 -20.1190 -20.1190 -20.0437 -20.0437
   -20.0436 -20.0436 -20.0230 -20.0230 -20.0230 -20.0230 -19.9341 -19.9341
   -19.9341 -19.9341 -19.9118 -19.9118 -19.9118 -19.9118 -19.8788 -19.8788
   -19.8787 -19.8787 -19.8676 -19.8676 -19.8676 -19.8676 -19.7599 -19.7599
   -19.7599 -19.7599 -19.6718 -19.6718 -19.6717 -19.6717 -19.6194 -19.6194
   -19.6161 -19.6161 -19.5769 -19.5769 -19.5754 -19.5754 -19.5754 -19.5754
   -19.5686 -19.5686 -19.5686 -19.5686 -19.5662 -19.5662 -19.5662 -19.5662
   -19.5536 -19.5536 -19.5535 -19.5535 -19.5407 -19.5407 -19.5407 -19.5407
   -19.5275 -19.5275 -19.4608 -19.4608 -19.4535 -19.4535 -19.4535 -19.4535
   -19.4527 -19.4527 -19.4439 -19.4439 -19.4439 -19.4439 -19.4301 -19.4301
   -19.4196 -19.4196 -19.4196 -19.4196 -19.3593 -19.3593 -19.3568 -19.3568
    16.1664  16.1664  17.3619  17.3619  17.4927  17.4927  17.4928  17.4928
    17.6825  17.6825  17.7461  17.7461  17.7630  17.7630  17.7630  17.7630
    17.8235  17.8235  17.9853  17.9853  17.9853  17.9853  18.1585  18.1585
    18.1585  18.1585  18.3638  18.3638  18.3638  18.3638  18.7158  18.7158
    18.7158  18.7158  18.8568  18.8568  18.8568  18.8568  19.0079  19.0079
    19.0079  19.0079  19.2048  19.2048  19.2048  19.2048  19.4202  19.4202
    19.4202  19.4202  19.4406  19.4406  19.4406  19.4406  19.7456  19.7456
    19.7456  19.7456  19.9954  19.9954  20.0276  20.0276  20.0300  20.0300
    20.0301  20.0301  20.1401  20.1401  20.1402  20.1402  20.2998  20.2998
    20.5079  20.5079  20.5079  20.5080  20.6136  20.6136  20.6136  20.6136
    20.9067  20.9067  20.9815  20.9815  20.9815  20.9815  21.0294  21.0294
    21.0781  21.0781  21.0810  21.0810  21.7569  21.7569  21.7569  21.7569
    21.7630  21.7630  21.7935  21.7935  22.1540  22.1540  22.1540  22.1540
    22.3453  22.3453  22.4449  22.4449  22.4449  22.4449  22.4711  22.4711
    22.4711  22.4712  22.5498  22.5498  22.5498  22.5498  22.5631  22.5631
    22.5632  22.5632  22.6291  22.6291  22.6291  22.6291  22.8818  22.8818
    22.8818  22.8818  23.2144  23.2144  23.8196  23.8196  23.8197  23.8197
    23.8304  23.8304  23.9173  23.9173  24.0967  24.0967  24.0967  24.0967
    24.1487  24.1487  24.1802  24.1802  24.2601  24.2601  24.2601  24.2601
    24.2766  24.2766  24.2767  24.2767  24.5580  24.5580  24.7322  24.7322
    24.7323  24.7323  24.7581  24.7581  25.1564  25.1564  25.1564  25.1564
    25.2783  25.2783  25.2783  25.2783  26.1134  26.1134  26.6415  26.6415
    26.6415  26.6415  27.1328

          k = 0.0556 0.1667 0.1667 ( 30191 PWs)   bands (ev):

   -49.8958 -49.8193 -49.8193 -49.7988 -49.7801 -49.7696 -49.7629 -49.7629
   -49.7570 -49.7570 -49.7451 -49.7451 -49.7429 -49.7378 -49.7334 -49.7334
   -49.7329 -49.7328 -49.7265 -49.7265 -49.7196 -49.7196 -49.7120 -49.6856
   -49.6856 -49.6851 -49.6851 -49.6840 -49.6840 -49.6831 -49.6831 -49.6823
   -20.2929 -20.2929 -20.2814 -20.2691 -20.2282 -20.2242 -20.2242 -20.0818
   -20.0818 -20.0755 -20.0755 -20.0452 -20.0438 -20.0438 -20.0420 -20.0420
   -20.0377 -20.0377 -20.0321 -20.0321 -20.0130 -20.0130 -20.0103 -20.0102
   -19.9506 -19.9273 -19.9273 -19.9235 -19.9234 -19.9054 -19.9054 -19.8826
   -19.8826 -19.8662 -19.8492 -19.7927 -19.7709 -19.7709 -19.7335 -19.7335
   -19.7221 -19.7221 -19.6995 -19.6980 -19.6980 -19.6771 -19.6770 -19.6644
   -19.6644 -19.6615 -19.6614 -19.6597 -19.6596 -19.6596 -19.6585 -19.6585
   -19.6496 -19.6495 -19.6212 -19.6212 -19.6069 -19.5441 -19.5441 -19.5292
   -19.5292 -19.5056 -19.5011 -19.4919 -19.4771 -19.4771 -19.4764 -19.4764
   -19.4704 -19.4691 -19.4684 -19.4684 -19.4667 -19.4666 -19.4546 -19.4509
   -19.4509 -19.4480 -19.4480 -19.4480 -19.4397 -19.4380 -19.4380 -19.4373
   -19.4305 -19.4305 -19.4151 -19.4151 -19.3972 -19.3522 -19.3167 -19.3087
    15.5187  17.0193  17.0193  17.0258  17.2447  17.2972  17.3490  17.3490
    17.3608  17.3608  17.4724  17.4724  17.5008  17.7108  17.8624  17.8624
    17.8850  18.2254  18.2254  18.2529  18.2529  18.4169  18.4169  18.4195
    18.4195  18.4710  18.4710  18.5504  18.6125  18.6125  18.7237  18.7731
    18.7731  18.7943  18.7943  18.8175  18.9819  19.0577  19.0577  19.0644
    19.0644  19.0942  19.0942  19.2107  19.2107  19.4386  19.4386  19.5397
    19.5397  19.5614  19.6165  19.6165  19.6491  19.6491  19.6999  19.7000
    19.7235  19.9102  19.9102  19.9161  19.9161  20.0073  20.0073  20.0754
    20.0754  20.1208  20.1951  20.1951  20.3029  20.3029  20.3211  20.3211
    20.3634  20.3634  20.3959  20.4674  20.4674  20.4756  20.4888  20.5006
    20.5432  20.5432  20.5641  20.6100  20.6420  20.6420  20.6810  20.7060
    21.2258  21.3272  21.3624  21.3624  21.6156  21.6156  21.7802  21.7941
    21.7941  21.7950  21.7950  21.8673  21.8673  21.8872  21.8872  21.9136
    21.9136  22.0701  22.1344  22.2385  22.2385  22.2602  22.2602  22.3110
    22.3895  22.6714  22.6714  22.7883  22.8000  22.8000  22.8159  22.8159
    22.8566  22.8566  22.8840  22.9383  22.9383  22.9816  23.0126  23.0126
    23.0764  23.0764  23.0956  23.1362  23.1363  23.2358  23.3262  23.3867
    23.3867  23.4176  23.4176  23.4980  23.5094  23.5094  23.6373  23.6373
    23.8451  24.0412  24.2101  24.2140  24.2140  24.3527  24.3528  24.5261
    24.6369  24.6369  24.7020  24.7828  24.7828  24.7965  24.8041  25.0486
    25.0486  25.1512  25.1512  25.1549  25.1549  25.1729  25.1729  25.2168
    25.4123  25.7076  26.0452  26.0452  26.1512  26.1512  26.6806  26.6806
    27.1860  27.1861  27.2971

          k = 0.0556 0.1667 0.2778 ( 30157 PWs)   bands (ev):

   -49.8894 -49.8370 -49.8151 -49.7953 -49.7811 -49.7772 -49.7667 -49.7604
   -49.7558 -49.7532 -49.7461 -49.7450 -49.7444 -49.7402 -49.7394 -49.7313
   -49.7297 -49.7270 -49.7219 -49.7207 -49.7169 -49.7116 -49.7053 -49.6921
   -49.6886 -49.6881 -49.6880 -49.6855 -49.6855 -49.6843 -49.6829 -49.6824
   -20.2784 -20.2748 -20.2561 -20.2397 -20.2118 -20.2091 -20.1998 -20.1282
   -20.1193 -20.0857 -20.0845 -20.0813 -20.0812 -20.0776 -20.0566 -20.0529
   -20.0515 -20.0356 -20.0341 -20.0265 -20.0238 -20.0202 -20.0165 -19.9976
   -19.9795 -19.9431 -19.9280 -19.9104 -19.9101 -19.8965 -19.8904 -19.8882
   -19.8681 -19.8619 -19.8358 -19.8228 -19.8062 -19.7700 -19.7585 -19.7322
   -19.7221 -19.7171 -19.6950 -19.6859 -19.6812 -19.6657 -19.6647 -19.6618
   -19.6572 -19.6551 -19.6505 -19.6407 -19.6313 -19.6271 -19.6252 -19.6228
   -19.6227 -19.6187 -19.5861 -19.5837 -19.5746 -19.5703 -19.5602 -19.5592
   -19.5177 -19.5169 -19.5121 -19.5098 -19.5026 -19.5010 -19.5001 -19.4974
   -19.4882 -19.4826 -19.4743 -19.4698 -19.4697 -19.4671 -19.4614 -19.4572
   -19.4560 -19.4538 -19.4507 -19.4470 -19.4390 -19.4383 -19.4325 -19.4176
   -19.4169 -19.4151 -19.4109 -19.3994 -19.3875 -19.3866 -19.3277 -19.3145
    15.6858  16.9877  17.1184  17.1392  17.1443  17.3209  17.3898  17.4746
    17.4793  17.4909  17.5469  17.5948  17.6310  17.7677  17.7997  17.9731
    17.9948  18.0048  18.0446  18.1564  18.1855  18.2797  18.2855  18.3226
    18.3464  18.3709  18.4589  18.4862  18.5062  18.5063  18.5098  18.5322
    18.6600  18.6820  18.6941  18.7985  18.8338  18.9064  18.9146  19.0740
    19.0888  19.1147  19.1511  19.2598  19.2899  19.3528  19.3674  19.3944
    19.4038  19.4595  19.4860  19.5299  19.6111  19.6229  19.6470  19.7194
    19.7434  19.7811  19.8936  20.0116  20.0473  20.0822  20.1065  20.1429
    20.1673  20.1947  20.2253  20.2480  20.3185  20.3324  20.3507  20.3662
    20.3809  20.4656  20.4914  20.5242  20.5383  20.5973  20.6355  20.6370
    20.7028  20.7606  20.7613  20.7692  20.7859  20.7917  21.0167  21.0346
    21.0645  21.1206  21.1349  21.3587  21.3611  21.3707  21.5284  21.5676
    21.6446  21.6594  21.6961  21.8237  21.8597  21.9137  21.9847  22.0791
    22.0997  22.1353  22.1878  22.2322  22.2806  22.2910  22.3885  22.4700
    22.4998  22.5802  22.5860  22.6232  22.6343  22.6577  22.7677  22.7735
    22.7827  22.7938  22.8876  22.9125  22.9776  23.0197  23.0820  23.0960
    23.1137  23.1424  23.1453  23.3295  23.4239  23.4251  23.4455  23.4737
    23.4991  23.6546  23.6745  23.7146  23.7226  23.7265  23.7571  23.7721
    23.7798  23.8598  23.9742  24.0674  24.2266  24.3400  24.4396  24.4633
    24.4772  24.5501  24.5773  24.6891  24.7088  24.7120  24.8589  24.8597
    24.9204  24.9231  24.9861  25.0399  25.1509  25.1564  25.1676  25.1799
    25.2262  25.6049  25.6438  26.0342  26.1535  26.4725  26.5686  26.6552
    26.6710  26.7553  27.6711

          k = 0.0556 0.1667 0.3889 ( 30138 PWs)   bands (ev):

   -49.8799 -49.8534 -49.8090 -49.7917 -49.7901 -49.7756 -49.7728 -49.7606
   -49.7568 -49.7540 -49.7491 -49.7465 -49.7435 -49.7410 -49.7300 -49.7285
   -49.7278 -49.7269 -49.7223 -49.7114 -49.7081 -49.7042 -49.7017 -49.6991
   -49.6942 -49.6937 -49.6923 -49.6891 -49.6852 -49.6846 -49.6827 -49.6824
   -20.2531 -20.2466 -20.2215 -20.2014 -20.1877 -20.1869 -20.1756 -20.1661
   -20.1640 -20.1325 -20.1244 -20.1197 -20.1065 -20.0794 -20.0742 -20.0615
   -20.0610 -20.0587 -20.0548 -20.0447 -20.0215 -20.0074 -20.0057 -19.9865
   -19.9632 -19.9475 -19.9415 -19.9223 -19.9209 -19.8916 -19.8680 -19.8659
   -19.8604 -19.8476 -19.8388 -19.8207 -19.8048 -19.7923 -19.7921 -19.7743
   -19.7500 -19.7207 -19.6643 -19.6626 -19.6592 -19.6550 -19.6533 -19.6492
   -19.6433 -19.6344 -19.6338 -19.6093 -19.6029 -19.5991 -19.5975 -19.5947
   -19.5898 -19.5886 -19.5814 -19.5745 -19.5538 -19.5525 -19.5519 -19.5427
   -19.5388 -19.5374 -19.5364 -19.5364 -19.5360 -19.5301 -19.5300 -19.5037
   -19.5012 -19.4968 -19.4811 -19.4779 -19.4730 -19.4717 -19.4712 -19.4653
   -19.4626 -19.4598 -19.4447 -19.4444 -19.4404 -19.4369 -19.4322 -19.4275
   -19.4197 -19.4137 -19.4002 -19.3896 -19.3850 -19.3711 -19.3440 -19.3275
    15.9294  16.6008  17.2586  17.3041  17.3237  17.4524  17.5365  17.6080
    17.6478  17.6519  17.6573  17.6819  17.7544  17.7769  17.7959  17.8219
    17.8742  17.9212  17.9793  17.9846  18.0857  18.0932  18.1490  18.1842
    18.1900  18.2080  18.3123  18.3609  18.3658  18.3751  18.5429  18.5639
    18.6284  18.6393  18.6712  18.6959  18.8001  18.9986  19.0051  19.0237
    19.0349  19.1324  19.1487  19.1995  19.2101  19.2461  19.2675  19.2775
    19.3160  19.3263  19.4709  19.4717  19.4733  19.5854  19.7419  19.7474
    19.7519  19.8201  20.0188  20.0280  20.0698  20.0966  20.1255  20.1321
    20.1581  20.1952  20.2117  20.2802  20.2851  20.2854  20.3332  20.3555
    20.4583  20.4623  20.4902  20.6860  20.7473  20.7777  20.7993  20.8350
    20.8953  20.9173  20.9225  20.9329  20.9385  20.9417  20.9476  20.9830
    21.0765  21.1633  21.2178  21.2446  21.3036  21.3141  21.4022  21.4310
    21.6466  21.7324  21.7861  21.8574  21.8687  21.9217  22.0286  22.0925
    22.1106  22.1408  22.1814  22.1971  22.2009  22.2033  22.2745  22.3417
    22.4085  22.4642  22.5608  22.5875  22.6079  22.6704  22.6986  22.7181
    22.7335  22.8334  22.8764  22.8883  22.9769  23.0109  23.0197  23.0967
    23.1438  23.1842  23.3271  23.3629  23.4126  23.4138  23.4881  23.5043
    23.6885  23.7168  23.7839  23.8780  24.0002  24.0025  24.0238  24.0319
    24.0547  24.0662  24.0785  24.1711  24.1839  24.2652  24.2679  24.3651
    24.4415  24.5468  24.5527  24.6126  24.6134  24.6137  24.6182  24.6270
    24.7653  24.7695  24.8402  25.0819  25.1494  25.1518  25.1581  25.1629
    25.1632  25.3469  25.6255  25.8586  25.8935  26.0429  26.1985  26.3978
    26.8868  27.2108  27.4956

          k = 0.0556 0.1667-0.5000 ( 30144 PWs)   bands (ev):

   -49.8678 -49.8678 -49.8011 -49.8011 -49.7835 -49.7835 -49.7673 -49.7673
   -49.7521 -49.7521 -49.7517 -49.7517 -49.7423 -49.7423 -49.7288 -49.7288
   -49.7244 -49.7244 -49.7139 -49.7139 -49.7020 -49.7020 -49.7003 -49.7003
   -49.6977 -49.6977 -49.6936 -49.6936 -49.6850 -49.6850 -49.6825 -49.6825
   -20.2182 -20.2182 -20.2097 -20.2097 -20.1795 -20.1795 -20.1584 -20.1584
   -20.1568 -20.1568 -20.1561 -20.1561 -20.1174 -20.1174 -20.0703 -20.0703
   -20.0625 -20.0625 -20.0614 -20.0614 -20.0075 -20.0075 -19.9849 -19.9849
   -19.9540 -19.9540 -19.9465 -19.9465 -19.9010 -19.9010 -19.8675 -19.8675
   -19.8376 -19.8376 -19.8221 -19.8220 -19.8199 -19.8199 -19.7831 -19.7831
   -19.7535 -19.7535 -19.6636 -19.6636 -19.6535 -19.6535 -19.6280 -19.6280
   -19.6136 -19.6136 -19.6097 -19.6097 -19.6031 -19.6031 -19.5834 -19.5834
   -19.5736 -19.5736 -19.5670 -19.5670 -19.5642 -19.5642 -19.5621 -19.5621
   -19.5606 -19.5606 -19.5326 -19.5326 -19.5252 -19.5252 -19.5064 -19.5064
   -19.5045 -19.5045 -19.4897 -19.4897 -19.4878 -19.4878 -19.4673 -19.4673
   -19.4629 -19.4629 -19.4564 -19.4564 -19.4422 -19.4422 -19.4232 -19.4232
   -19.4229 -19.4229 -19.3896 -19.3896 -19.3648 -19.3648 -19.3468 -19.3468
    16.2396  16.2396  17.4282  17.4282  17.5134  17.5134  17.5467  17.5467
    17.6377  17.6377  17.7356  17.7356  17.8022  17.8022  17.8550  17.8550
    17.8780  17.8780  17.9174  17.9174  18.0169  18.0169  18.0621  18.0621
    18.0677  18.0677  18.2322  18.2322  18.4170  18.4170  18.4594  18.4594
    18.7421  18.7421  18.7614  18.7614  18.8157  18.8157  18.9030  18.9030
    19.1509  19.1509  19.1847  19.1847  19.2145  19.2145  19.2505  19.2505
    19.3214  19.3214  19.3850  19.3850  19.4013  19.4013  19.8718  19.8718
    19.9335  19.9335  19.9407  19.9407  19.9977  19.9977  20.0572  20.0572
    20.2071  20.2071  20.2267  20.2267  20.4035  20.4035  20.4357  20.4357
    20.5089  20.5089  20.5514  20.5514  20.6090  20.6090  20.7930  20.7930
    20.9014  20.9014  20.9957  20.9957  21.0728  21.0728  21.0805  21.0805
    21.1113  21.1113  21.1438  21.1438  21.5656  21.5656  21.6072  21.6072
    21.6412  21.6412  21.6906  21.6906  21.8599  21.8599  21.8642  21.8642
    22.1223  22.1223  22.2967  22.2967  22.3195  22.3195  22.3700  22.3700
    22.3766  22.3766  22.4405  22.4405  22.5039  22.5039  22.6123  22.6123
    22.8070  22.8070  22.8301  22.8301  22.9348  22.9348  23.2005  23.2005
    23.2342  23.2342  23.2373  23.2373  23.3061  23.3061  23.7597  23.7597
    23.8442  23.8442  23.8555  23.8555  24.0753  24.0753  24.1302  24.1302
    24.2563  24.2563  24.3096  24.3096  24.3104  24.3104  24.3317  24.3317
    24.3320  24.3320  24.3397  24.3397  24.3513  24.3513  24.5404  24.5404
    24.6805  24.6805  25.1059  25.1059  25.1551  25.1551  25.1602  25.1602
    25.3993  25.3993  25.6268  25.6268  25.6349  25.6349  26.1693  26.1693
    27.2350  27.2350  27.6611

          k = 0.0556 0.2778 0.2778 ( 30150 PWs)   bands (ev):

   -49.8831 -49.8323 -49.8323 -49.7941 -49.7919 -49.7744 -49.7649 -49.7649
   -49.7520 -49.7520 -49.7508 -49.7431 -49.7431 -49.7426 -49.7273 -49.7272
   -49.7267 -49.7267 -49.7180 -49.7180 -49.7132 -49.7132 -49.7001 -49.6918
   -49.6917 -49.6913 -49.6913 -49.6890 -49.6890 -49.6847 -49.6847 -49.6826
   -20.2645 -20.2645 -20.2283 -20.2076 -20.1956 -20.1875 -20.1874 -20.1275
   -20.1275 -20.1236 -20.1236 -20.0862 -20.0862 -20.0637 -20.0637 -20.0591
   -20.0591 -20.0566 -20.0566 -20.0489 -20.0488 -20.0217 -20.0217 -20.0216
   -20.0067 -20.0067 -19.9257 -19.9175 -19.8903 -19.8903 -19.8708 -19.8708
   -19.8621 -19.8554 -19.8221 -19.8221 -19.7501 -19.7501 -19.7495 -19.7217
   -19.7217 -19.7164 -19.7164 -19.6833 -19.6833 -19.6612 -19.6612 -19.6498
   -19.6498 -19.6439 -19.6435 -19.6435 -19.6294 -19.6294 -19.6080 -19.6079
   -19.5903 -19.5903 -19.5884 -19.5884 -19.5530 -19.5530 -19.5511 -19.5511
   -19.5367 -19.5366 -19.5351 -19.5269 -19.5058 -19.5057 -19.5043 -19.4976
   -19.4976 -19.4947 -19.4946 -19.4946 -19.4678 -19.4678 -19.4659 -19.4659
   -19.4632 -19.4560 -19.4425 -19.4405 -19.4405 -19.4384 -19.4305 -19.4305
   -19.4253 -19.4140 -19.4140 -19.3844 -19.3844 -19.3725 -19.3390 -19.3143
    15.8475  17.1114  17.1114  17.2335  17.2445  17.2445  17.3722  17.4570
    17.6232  17.6232  17.6668  17.6668  17.7713  17.8305  17.9010  17.9010
    17.9930  18.0442  18.0442  18.0447  18.0749  18.0749  18.1585  18.1585
    18.2120  18.2120  18.2842  18.2842  18.4855  18.5698  18.5698  18.5867
    18.5867  18.6185  18.6185  18.7055  18.7055  18.8037  18.8038  18.8807
    18.8807  18.9992  19.1455  19.1456  19.2152  19.2152  19.2182  19.4572
    19.4572  19.4732  19.4732  19.5174  19.5185  19.5185  19.5794  19.9155
    19.9155  20.0272  20.0272  20.1024  20.1024  20.1736  20.1737  20.2160
    20.2160  20.2299  20.2299  20.3135  20.3284  20.4019  20.4019  20.4847
    20.4917  20.5552  20.5552  20.7087  20.7087  20.7177  20.7728  20.7964
    20.8074  20.8418  20.8418  20.8606  20.8942  20.9095  20.9099  20.9099
    21.0687  21.0687  21.1957  21.1957  21.4270  21.4270  21.5647  21.5647
    21.6211  21.6211  21.7253  21.7253  21.7438  21.8169  21.8377  21.8378
    21.8763  21.8763  22.0518  22.0755  22.2124  22.2354  22.2354  22.2401
    22.2401  22.3652  22.4350  22.5678  22.5679  22.7158  22.7329  22.7329
    23.0161  23.0224  23.0224  23.1507  23.1507  23.1767  23.1767  23.2779
    23.2837  23.2966  23.2966  23.3825  23.3825  23.4864  23.4864  23.4937
    23.4937  23.5466  23.5466  23.8091  23.8364  23.8364  23.8927  23.9845
    23.9845  23.9897  24.0105  24.0105  24.1662  24.2191  24.3927  24.3927
    24.5963  24.7232  24.7232  24.7442  24.7505  24.7505  24.7572  24.7817
    24.9259  24.9259  24.9273  24.9273  24.9679  24.9679  24.9766  24.9766
    25.0754  25.4342  25.5322  25.5322  26.0482  26.0482  27.1060  27.1060
    27.3588  27.4095  27.4096

          k = 0.0556 0.2778 0.3889 ( 30193 PWs)   bands (ev):

   -49.8740 -49.8482 -49.8254 -49.8060 -49.7871 -49.7733 -49.7703 -49.7623
   -49.7590 -49.7552 -49.7503 -49.7455 -49.7402 -49.7322 -49.7271 -49.7240
   -49.7225 -49.7195 -49.7157 -49.7153 -49.7097 -49.7064 -49.7010 -49.6961
   -49.6959 -49.6953 -49.6953 -49.6913 -49.6899 -49.6875 -49.6840 -49.6830
   -20.2434 -20.2406 -20.1922 -20.1729 -20.1719 -20.1694 -20.1677 -20.1673
   -20.1556 -20.1194 -20.1193 -20.1181 -20.1048 -20.1030 -20.0863 -20.0844
   -20.0836 -20.0709 -20.0670 -20.0642 -20.0442 -20.0408 -20.0238 -20.0181
   -20.0117 -19.9818 -19.9514 -19.9503 -19.9203 -19.8957 -19.8522 -19.8426
   -19.8322 -19.8111 -19.8025 -19.7822 -19.7810 -19.7792 -19.7579 -19.7489
   -19.7087 -19.7082 -19.6905 -19.6772 -19.6691 -19.6663 -19.6488 -19.6459
   -19.6359 -19.6321 -19.6292 -19.6191 -19.6145 -19.6132 -19.5997 -19.5933
   -19.5839 -19.5826 -19.5820 -19.5808 -19.5734 -19.5607 -19.5501 -19.5469
   -19.5433 -19.5393 -19.5251 -19.5248 -19.5247 -19.5170 -19.5163 -19.5150
   -19.5025 -19.4926 -19.4903 -19.4843 -19.4804 -19.4794 -19.4778 -19.4771
   -19.4737 -19.4581 -19.4532 -19.4494 -19.4486 -19.4454 -19.4438 -19.4316
   -19.4185 -19.4183 -19.4021 -19.3718 -19.3649 -19.3578 -19.3555 -19.3217
    16.0832  16.7340  17.2895  17.3760  17.3863  17.4257  17.4753  17.5743
    17.7398  17.7695  17.7737  17.7926  17.8022  17.8151  17.8308  17.8452
    17.8756  17.9047  17.9543  17.9710  18.0002  18.0292  18.0852  18.0926
    18.1084  18.1441  18.2886  18.3028  18.3223  18.3259  18.3680  18.4317
    18.5019  18.6000  18.6617  18.7159  18.7278  18.7313  18.7727  18.7728
    18.8691  18.9578  18.9823  19.0619  19.1007  19.2248  19.2293  19.2635
    19.3408  19.4241  19.5476  19.5565  19.5842  19.5982  19.7661  19.8203
    19.8529  19.8740  19.9601  20.1009  20.1792  20.1803  20.2720  20.2889
    20.3109  20.3309  20.3361  20.4204  20.4647  20.4767  20.4806  20.6019
    20.6020  20.6741  20.6927  20.7133  20.7201  20.7449  20.8266  20.8769
    20.9181  20.9251  20.9587  20.9702  20.9839  21.0605  21.0911  21.0951
    21.0983  21.1715  21.2046  21.2241  21.3055  21.3690  21.4200  21.5116
    21.5738  21.5791  21.6126  21.6374  21.6702  21.6950  21.7191  21.7300
    21.8375  21.8508  21.8728  21.9301  22.0483  22.0816  22.0950  22.1505
    22.2583  22.2651  22.4308  22.4549  22.5792  22.6156  22.7001  22.7759
    22.9250  22.9531  22.9635  23.0125  23.0850  23.1734  23.2359  23.2443
    23.3260  23.3617  23.4094  23.5141  23.5236  23.5390  23.6104  23.6727
    23.7221  23.7232  23.8795  23.8813  23.8826  23.9294  24.1092  24.1545
    24.1733  24.1893  24.2287  24.2351  24.2494  24.2559  24.2580  24.2988
    24.3708  24.5207  24.5888  24.6067  24.6076  24.6197  24.6385  24.6433
    24.6508  24.7181  24.9224  24.9330  24.9383  24.9518  25.0042  25.0434
    25.3685  25.4885  25.5084  25.5260  25.5722  25.8940  26.7660  26.7809
    27.5420  27.7187  28.0272

          k = 0.0556 0.2778-0.5000 ( 30164 PWs)   bands (ev):

   -49.8622 -49.8622 -49.8166 -49.8166 -49.7808 -49.7808 -49.7651 -49.7651
   -49.7590 -49.7590 -49.7481 -49.7481 -49.7365 -49.7365 -49.7216 -49.7216
   -49.7188 -49.7188 -49.7129 -49.7129 -49.7048 -49.7048 -49.7023 -49.7023
   -49.7003 -49.7003 -49.6910 -49.6910 -49.6906 -49.6906 -49.6835 -49.6835
   -20.2124 -20.2124 -20.2076 -20.2076 -20.1495 -20.1495 -20.1461 -20.1461
   -20.1413 -20.1413 -20.1208 -20.1208 -20.1142 -20.1142 -20.1067 -20.1067
   -20.1043 -20.1043 -20.0785 -20.0785 -20.0301 -20.0301 -20.0225 -20.0225
   -19.9879 -19.9879 -19.9451 -19.9451 -19.9389 -19.9389 -19.8155 -19.8155
   -19.8130 -19.8130 -19.7947 -19.7947 -19.7779 -19.7779 -19.7591 -19.7591
   -19.7410 -19.7410 -19.6476 -19.6476 -19.6447 -19.6447 -19.6424 -19.6424
   -19.6329 -19.6329 -19.6311 -19.6311 -19.6183 -19.6183 -19.6092 -19.6092
   -19.5803 -19.5803 -19.5716 -19.5716 -19.5554 -19.5554 -19.5539 -19.5539
   -19.5364 -19.5364 -19.5302 -19.5302 -19.5267 -19.5267 -19.5141 -19.5141
   -19.5007 -19.5007 -19.4860 -19.4860 -19.4845 -19.4845 -19.4842 -19.4842
   -19.4737 -19.4737 -19.4622 -19.4622 -19.4481 -19.4481 -19.4292 -19.4292
   -19.4244 -19.4244 -19.3768 -19.3768 -19.3648 -19.3648 -19.3365 -19.3365
    16.3836  16.3836  17.5129  17.5129  17.5579  17.5579  17.5646  17.5646
    17.6290  17.6290  17.6514  17.6514  17.7407  17.7407  17.9139  17.9139
    17.9330  17.9330  18.0252  18.0252  18.0448  18.0448  18.0800  18.0800
    18.0811  18.0811  18.2011  18.2011  18.2192  18.2192  18.3311  18.3311
    18.5235  18.5235  18.6274  18.6274  18.7367  18.7367  18.8624  18.8624
    18.8657  18.8657  19.0089  19.0089  19.1131  19.1131  19.1434  19.1434
    19.5093  19.5093  19.5875  19.5875  19.6785  19.6785  19.6872  19.6872
    19.7219  19.7219  19.9910  19.9910  20.2378  20.2378  20.3454  20.3454
    20.3698  20.3698  20.4568  20.4568  20.4749  20.4749  20.5130  20.5130
    20.5994  20.5994  20.7497  20.7497  20.8599  20.8599  20.9550  20.9550
    20.9593  20.9593  21.0328  21.0328  21.0719  21.0719  21.0885  21.0885
    21.2575  21.2575  21.2901  21.2901  21.3086  21.3086  21.3140  21.3140
    21.4938  21.4938  21.4990  21.4990  21.5988  21.5988  21.6068  21.6068
    21.8186  21.8186  22.0423  22.0423  22.1911  22.1911  22.2147  22.2147
    22.2527  22.2527  22.2939  22.2939  22.4040  22.4040  22.5924  22.5924
    22.7870  22.7870  23.1029  23.1029  23.1415  23.1415  23.2055  23.2055
    23.3480  23.3480  23.6013  23.6013  23.6414  23.6414  23.7573  23.7573
    23.8523  23.8523  23.9255  23.9255  24.0081  24.0081  24.0086  24.0086
    24.2621  24.2621  24.2627  24.2627  24.3681  24.3681  24.4349  24.4349
    24.4353  24.4353  24.4559  24.4559  24.4762  24.4762  24.4780  24.4780
    24.5804  24.5804  24.9407  24.9407  24.9619  24.9619  25.0086  25.0086
    25.1598  25.1598  25.7021  25.7021  26.1018  26.1018  26.1812  26.1812
    27.9041  27.9041  28.2323

          k = 0.0556 0.3889 0.3889 ( 30175 PWs)   bands (ev):

   -49.8652 -49.8406 -49.8406 -49.8192 -49.7826 -49.7700 -49.7700 -49.7667
   -49.7608 -49.7565 -49.7565 -49.7497 -49.7250 -49.7249 -49.7190 -49.7189
   -49.7185 -49.7184 -49.7120 -49.7120 -49.7095 -49.7095 -49.7001 -49.7001
   -49.6997 -49.6996 -49.6975 -49.6975 -49.6918 -49.6861 -49.6861 -49.6838
   -20.2238 -20.2238 -20.1617 -20.1617 -20.1597 -20.1597 -20.1553 -20.1487
   -20.1432 -20.1432 -20.1258 -20.1168 -20.1168 -20.1074 -20.1074 -20.0834
   -20.0834 -20.0694 -20.0693 -20.0679 -20.0679 -20.0671 -20.0671 -20.0296
   -20.0296 -20.0279 -19.9890 -19.9446 -19.9388 -19.8860 -19.8860 -19.8150
   -19.7946 -19.7946 -19.7604 -19.7604 -19.7545 -19.7234 -19.7233 -19.7087
   -19.7086 -19.7074 -19.7074 -19.6912 -19.6911 -19.6433 -19.6432 -19.6427
   -19.6426 -19.6288 -19.6288 -19.6213 -19.6199 -19.6199 -19.6164 -19.6164
   -19.6034 -19.6033 -19.5729 -19.5729 -19.5648 -19.5647 -19.5612 -19.5524
   -19.5524 -19.5283 -19.5283 -19.5241 -19.5168 -19.5168 -19.5168 -19.5168
   -19.4991 -19.4942 -19.4942 -19.4929 -19.4928 -19.4861 -19.4783 -19.4713
   -19.4657 -19.4600 -19.4561 -19.4542 -19.4542 -19.4473 -19.4426 -19.4250
   -19.4250 -19.4202 -19.4202 -19.3725 -19.3518 -19.3488 -19.3488 -19.3230
    16.3073  16.9273  16.9273  17.4583  17.4926  17.5436  17.5702  17.5702
    17.6552  17.8106  17.8106  17.8360  17.8643  17.8643  17.9298  17.9298
    17.9423  17.9423  17.9466  17.9466  17.9790  17.9889  17.9889  18.0595
    18.0595  18.1291  18.1764  18.2430  18.2430  18.4399  18.4399  18.4411
    18.4411  18.4488  18.4488  18.4509  18.4509  18.6910  18.6910  18.7019
    18.7019  18.7569  18.7569  19.0076  19.0076  19.1381  19.3439  19.3439
    19.3491  19.3491  19.5168  19.6758  19.6758  19.6933  19.7068  19.7709
    19.7709  20.0960  20.1078  20.1078  20.2705  20.3732  20.3732  20.4849
    20.5007  20.5007  20.5077  20.5078  20.5143  20.5143  20.5485  20.5485
    20.6243  20.6701  20.8331  20.8331  20.9272  20.9272  20.9408  20.9913
    20.9926  21.0060  21.0162  21.0556  21.1064  21.1064  21.1394  21.1394
    21.2814  21.2814  21.2975  21.2975  21.3004  21.3286  21.3286  21.3800
    21.4537  21.4537  21.4863  21.4863  21.5063  21.5181  21.5596  21.5596
    21.5829  21.5829  21.7215  21.7920  21.7920  21.8230  21.8230  22.1016
    22.2521  22.2522  22.2670  22.2670  22.3541  22.3541  22.4170  22.5036
    22.8160  23.1438  23.1927  23.1927  23.2157  23.2157  23.4821  23.4821
    23.4928  23.4928  23.5921  23.5921  23.6524  23.6524  23.7221  23.7603
    23.9056  23.9056  24.0118  24.0390  24.0390  24.0562  24.0562  24.0656
    24.0656  24.1521  24.2606  24.3591  24.3950  24.4172  24.4172  24.4201
    24.4201  24.4645  24.5276  24.5836  24.5837  24.6305  24.6305  24.6452
    24.6453  24.6709  24.6754  24.6754  24.6925  24.6925  24.8633  24.8907
    24.8907  25.2218  25.3868  25.3868  26.1500  26.1500  27.4317  27.4317
    27.4985  27.4985  28.2156

          k = 0.0556 0.3889-0.5000 ( 30172 PWs)   bands (ev):

   -49.8540 -49.8540 -49.8308 -49.8308 -49.7769 -49.7769 -49.7658 -49.7658
   -49.7620 -49.7620 -49.7534 -49.7534 -49.7222 -49.7222 -49.7149 -49.7149
   -49.7136 -49.7136 -49.7114 -49.7114 -49.7073 -49.7073 -49.7052 -49.7052
   -49.7042 -49.7042 -49.6989 -49.6989 -49.6886 -49.6886 -49.6848 -49.6848
   -20.1972 -20.1972 -20.1954 -20.1954 -20.1426 -20.1426 -20.1425 -20.1425
   -20.1271 -20.1271 -20.1188 -20.1188 -20.1130 -20.1130 -20.1090 -20.1090
   -20.0915 -20.0915 -20.0789 -20.0789 -20.0691 -20.0691 -20.0566 -20.0566
   -20.0290 -20.0290 -19.9847 -19.9847 -19.9183 -19.9183 -19.8504 -19.8504
   -19.7581 -19.7581 -19.7493 -19.7493 -19.7366 -19.7366 -19.7229 -19.7229
   -19.6979 -19.6979 -19.6728 -19.6728 -19.6689 -19.6689 -19.6672 -19.6672
   -19.6592 -19.6592 -19.6247 -19.6247 -19.6104 -19.6104 -19.6031 -19.6031
   -19.5880 -19.5880 -19.5813 -19.5813 -19.5802 -19.5802 -19.5626 -19.5626
   -19.5423 -19.5423 -19.5417 -19.5417 -19.5097 -19.5097 -19.5062 -19.5062
   -19.5061 -19.5061 -19.4983 -19.4983 -19.4745 -19.4745 -19.4702 -19.4702
   -19.4665 -19.4665 -19.4612 -19.4612 -19.4435 -19.4435 -19.4386 -19.4386
   -19.4338 -19.4338 -19.3943 -19.3943 -19.3465 -19.3465 -19.3322 -19.3322
    16.5931  16.5931  17.1726  17.1726  17.6561  17.6561  17.6562  17.6562
    17.7450  17.7450  17.7783  17.7783  17.7999  17.7999  17.8129  17.8129
    17.9499  17.9499  17.9755  17.9755  18.0799  18.0799  18.1681  18.1681
    18.1737  18.1737  18.2010  18.2010  18.2055  18.2055  18.2469  18.2469
    18.4227  18.4227  18.4504  18.4504  18.5615  18.5615  18.5983  18.5983
    18.6206  18.6206  18.9106  18.9106  19.1382  19.1382  19.1521  19.1521
    19.4924  19.4924  19.5033  19.5033  19.7505  19.7505  19.8321  19.8321
    19.9560  19.9560  20.0341  20.0341  20.2264  20.2264  20.4793  20.4793
    20.5325  20.5325  20.5872  20.5872  20.6769  20.6769  20.7283  20.7283
    20.8387  20.8387  20.8587  20.8587  20.8857  20.8857  21.0462  21.0462
    21.0533  21.0533  21.0763  21.0763  21.0998  21.0998  21.1314  21.1314
    21.1910  21.1910  21.2354  21.2354  21.2474  21.2474  21.2748  21.2748
    21.3843  21.3843  21.3914  21.3914  21.5369  21.5369  21.5609  21.5610
    21.5677  21.5677  21.7268  21.7268  21.9719  21.9719  21.9745  21.9745
    22.0234  22.0234  22.0429  22.0429  22.1947  22.1947  22.3754  22.3754
    23.0180  23.0180  23.2837  23.2837  23.3964  23.3964  23.4407  23.4407
    23.4699  23.4700  23.7068  23.7068  23.7819  23.7819  23.8021  23.8021
    23.8780  23.8780  23.9604  23.9604  24.0748  24.0748  24.2148  24.2148
    24.2799  24.2799  24.3704  24.3704  24.4381  24.4381  24.4402  24.4402
    24.4582  24.4582  24.5248  24.5248  24.5278  24.5278  24.5629  24.5629
    24.5674  24.5674  24.6477  24.6477  24.7019  24.7019  24.7604  24.7604
    24.8779  24.8779  25.2379  25.2379  26.8023  26.8023  26.8043  26.8043
    28.1466  28.1466  28.2165

          k = 0.0556-0.5000-0.5000 ( 30160 PWs)   bands (ev):

   -49.8434 -49.8434 -49.8434 -49.8434 -49.7718 -49.7718 -49.7718 -49.7718
   -49.7581 -49.7581 -49.7581 -49.7581 -49.7096 -49.7096 -49.7096 -49.7096
   -49.7095 -49.7095 -49.7095 -49.7095 -49.7091 -49.7091 -49.7091 -49.7091
   -49.7090 -49.7090 -49.7090 -49.7090 -49.6866 -49.6866 -49.6866 -49.6865
   -20.1735 -20.1735 -20.1734 -20.1734 -20.1734 -20.1734 -20.1734 -20.1734
   -20.1015 -20.1015 -20.1015 -20.1015 -20.1015 -20.1015 -20.1015 -20.1015
   -20.0900 -20.0900 -20.0900 -20.0900 -20.0720 -20.0720 -20.0720 -20.0720
   -20.0327 -20.0327 -20.0327 -20.0327 -19.8854 -19.8854 -19.8853 -19.8853
   -19.7061 -19.7061 -19.7061 -19.7061 -19.7061 -19.7061 -19.7061 -19.7061
   -19.7000 -19.7000 -19.7000 -19.6999 -19.6999 -19.6999 -19.6999 -19.6999
   -19.6380 -19.6380 -19.6380 -19.6380 -19.5959 -19.5959 -19.5959 -19.5959
   -19.5958 -19.5958 -19.5958 -19.5958 -19.5933 -19.5933 -19.5933 -19.5933
   -19.5256 -19.5256 -19.5255 -19.5255 -19.5255 -19.5255 -19.5255 -19.5255
   -19.4900 -19.4900 -19.4900 -19.4900 -19.4760 -19.4760 -19.4760 -19.4760
   -19.4535 -19.4535 -19.4535 -19.4535 -19.4488 -19.4488 -19.4488 -19.4488
   -19.4167 -19.4167 -19.4167 -19.4167 -19.3354 -19.3354 -19.3354 -19.3354
    16.8601  16.8601  16.8602  16.8602  17.7184  17.7184  17.7184  17.7184
    17.7928  17.7928  17.7928  17.7928  17.8482  17.8482  17.8482  17.8482
    17.9795  17.9795  17.9795  17.9795  17.9795  17.9795  17.9795  17.9795
    18.2975  18.2975  18.2975  18.2975  18.2975  18.2975  18.2975  18.2975
    18.3982  18.3982  18.3982  18.3982  18.3982  18.3982  18.3982  18.3982
    18.6604  18.6604  18.6604  18.6604  19.3045  19.3045  19.3045  19.3045
    19.3046  19.3046  19.3046  19.3046  19.8766  19.8766  19.8766  19.8766
    20.1069  20.1069  20.1069  20.1069  20.3862  20.3862  20.3862  20.3862
    20.6100  20.6100  20.6100  20.6100  20.6212  20.6212  20.6212  20.6212
    20.9723  20.9723  20.9723  20.9723  20.9723  20.9723  20.9723  20.9723
    21.0788  21.0788  21.0788  21.0788  21.2156  21.2156  21.2156  21.2156
    21.2305  21.2305  21.2305  21.2305  21.3715  21.3715  21.3715  21.3715
    21.3846  21.3846  21.3846  21.3846  21.3846  21.3846  21.3846  21.3846
    21.6549  21.6549  21.6549  21.6549  21.7828  21.7828  21.7828  21.7828
    21.7828  21.7828  21.7828  21.7828  22.2847  22.2847  22.2847  22.2847
    23.2561  23.2561  23.2561  23.2561  23.4576  23.4576  23.4576  23.4576
    23.6672  23.6672  23.6672  23.6672  23.6672  23.6672  23.6672  23.6672
    24.1860  24.1860  24.1860  24.1860  24.3125  24.3125  24.3125  24.3125
    24.3125  24.3125  24.3125  24.3125  24.3138  24.3138  24.3138  24.3138
    24.5486  24.5486  24.5486  24.5486  24.5773  24.5773  24.5774  24.5774
    24.5774  24.5774  24.5774  24.5774  24.5882  24.5882  24.5882  24.5882
    24.8444  24.8444  24.8444  24.8444  27.4904  27.4904  27.4904  27.4904
    27.4904  27.4904  27.4904

          k = 0.1667 0.1667 0.1667 ( 30217 PWs)   bands (ev):

   -49.8926 -49.8172 -49.8172 -49.8172 -49.7687 -49.7687 -49.7687 -49.7617
   -49.7617 -49.7617 -49.7478 -49.7334 -49.7334 -49.7334 -49.7333 -49.7333
   -49.7333 -49.7329 -49.7328 -49.7328 -49.7129 -49.7129 -49.7129 -49.6856
   -49.6855 -49.6855 -49.6852 -49.6852 -49.6852 -49.6851 -49.6851 -49.6851
   -20.2822 -20.2822 -20.2822 -20.2459 -20.2167 -20.2167 -20.2166 -20.0823
   -20.0823 -20.0823 -20.0636 -20.0636 -20.0636 -20.0636 -20.0636 -20.0636
   -20.0435 -20.0434 -20.0434 -20.0434 -20.0434 -20.0434 -19.9775 -19.9775
   -19.9775 -19.9371 -19.9371 -19.9371 -19.8896 -19.8896 -19.8896 -19.8896
   -19.8896 -19.8896 -19.8067 -19.8067 -19.8067 -19.7186 -19.7186 -19.7186
   -19.6961 -19.6961 -19.6961 -19.6960 -19.6960 -19.6960 -19.6930 -19.6929
   -19.6929 -19.6544 -19.6544 -19.6544 -19.6491 -19.6491 -19.6491 -19.6491
   -19.6491 -19.6491 -19.5849 -19.5849 -19.5849 -19.5417 -19.5417 -19.5417
   -19.5312 -19.5312 -19.5312 -19.4904 -19.4904 -19.4904 -19.4830 -19.4829
   -19.4829 -19.4665 -19.4665 -19.4665 -19.4665 -19.4665 -19.4665 -19.4561
   -19.4561 -19.4561 -19.4400 -19.4400 -19.4400 -19.4338 -19.4338 -19.4338
   -19.4316 -19.4316 -19.3986 -19.3986 -19.3986 -19.3751 -19.3141 -19.3141
    15.6019  17.0767  17.0767  17.0767  17.2454  17.4010  17.4010  17.4010
    17.4105  17.4105  17.4105  17.5381  17.5381  17.5381  17.9095  17.9095
    17.9095  18.2826  18.2826  18.2826  18.2826  18.2826  18.2826  18.3152
    18.3152  18.3152  18.4785  18.4785  18.4785  18.7056  18.7056  18.7056
    18.7352  18.7352  18.7352  18.7352  18.7352  18.7352  19.0710  19.0710
    19.0710  19.0710  19.0710  19.0710  19.2477  19.2477  19.2477  19.5849
    19.5849  19.5849  19.7326  19.7326  19.7326  19.7326  19.7326  19.7326
    19.8785  19.8785  19.8785  19.9593  19.9593  19.9593  19.9594  19.9594
    19.9594  20.2577  20.2577  20.2577  20.4444  20.4444  20.4444  20.4589
    20.4769  20.4769  20.4769  20.4769  20.4769  20.4769  20.5058  20.5058
    20.5058  20.5664  20.5664  20.7031  20.7031  20.7031  20.7214  20.7214
    21.2492  21.2492  21.2492  21.5325  21.5325  21.5325  21.5957  21.5957
    21.5957  21.7753  21.7753  21.7753  21.9725  21.9725  21.9725  22.0272
    22.0272  22.0272  22.0272  22.0272  22.0272  22.4403  22.4403  22.4403
    22.6059  22.6059  22.6059  22.7268  22.7268  22.7268  22.7582  22.7583
    22.7583  22.8260  22.8260  22.8260  22.8261  22.8261  22.8261  22.9147
    22.9147  23.2225  23.3982  23.3982  23.3982  23.3982  23.3982  23.3982
    23.6563  23.6563  23.6563  23.6682  23.6682  23.6682  23.7614  23.7614
    23.7614  24.0655  24.0655  24.0655  24.2394  24.2394  24.2394  24.4404
    24.4404  24.4404  24.5251  24.5251  24.8257  24.8257  24.8257  25.0512
    25.0512  25.0512  25.0512  25.0512  25.0512  25.1660  25.1660  25.1660
    25.6499  25.6499  25.6499  26.1338  26.1338  26.1338  27.2512  27.2512
    27.2512  27.2512  27.2512

          k = 0.1667 0.1667 0.2778 ( 30175 PWs)   bands (ev):

   -49.8862 -49.8347 -49.8131 -49.8131 -49.7800 -49.7799 -49.7670 -49.7593
   -49.7593 -49.7526 -49.7441 -49.7399 -49.7399 -49.7333 -49.7333 -49.7330
   -49.7329 -49.7282 -49.7222 -49.7222 -49.7145 -49.7064 -49.7064 -49.6920
   -49.6892 -49.6892 -49.6875 -49.6875 -49.6856 -49.6855 -49.6852 -49.6852
   -20.2716 -20.2612 -20.2612 -20.2130 -20.2018 -20.2018 -20.1938 -20.1306
   -20.1042 -20.1042 -20.0821 -20.0821 -20.0775 -20.0775 -20.0772 -20.0772
   -20.0588 -20.0588 -20.0465 -20.0465 -20.0446 -20.0446 -20.0213 -20.0036
   -19.9547 -19.9547 -19.9364 -19.9364 -19.8970 -19.8970 -19.8645 -19.8645
   -19.8495 -19.8495 -19.8395 -19.8395 -19.7538 -19.7538 -19.7478 -19.7330
   -19.7330 -19.7147 -19.7147 -19.6801 -19.6600 -19.6600 -19.6552 -19.6551
   -19.6499 -19.6498 -19.6483 -19.6483 -19.6460 -19.6441 -19.6290 -19.6290
   -19.6236 -19.6236 -19.5765 -19.5598 -19.5524 -19.5524 -19.5506 -19.5506
   -19.5506 -19.5217 -19.5215 -19.5215 -19.5101 -19.5101 -19.4995 -19.4995
   -19.4990 -19.4990 -19.4874 -19.4703 -19.4703 -19.4662 -19.4661 -19.4639
   -19.4612 -19.4611 -19.4501 -19.4501 -19.4374 -19.4239 -19.4200 -19.4200
   -19.4113 -19.4110 -19.4014 -19.4008 -19.3894 -19.3894 -19.3248 -19.3177
    15.7658  17.0428  17.1753  17.1897  17.1898  17.3004  17.5045  17.5045
    17.5058  17.5058  17.5530  17.6122  17.6677  17.6677  17.8164  17.9998
    17.9998  18.0368  18.0586  18.0586  18.1475  18.1475  18.2506  18.3362
    18.3362  18.3941  18.3941  18.4030  18.4030  18.4933  18.6017  18.6017
    18.6064  18.6064  18.6264  18.6264  18.7160  18.7160  18.8248  18.8248
    19.0822  19.0822  19.1045  19.1045  19.3197  19.3197  19.4524  19.4524
    19.5067  19.5067  19.5134  19.5645  19.5995  19.5995  19.7950  19.7951
    19.7971  19.7971  19.9668  19.9668  19.9840  19.9840  20.0971  20.1809
    20.1809  20.2784  20.3629  20.3629  20.3656  20.4094  20.4094  20.4802
    20.4802  20.4915  20.4915  20.5932  20.6045  20.6118  20.6118  20.6172
    20.7879  20.8020  20.8147  20.8147  20.8213  20.8410  21.0218  21.0218
    21.0813  21.0813  21.2715  21.2715  21.2760  21.2825  21.5100  21.5439
    21.5440  21.7148  21.7148  21.7336  21.7452  21.7452  21.9997  22.1354
    22.1354  22.1715  22.1715  22.2466  22.2741  22.2741  22.3599  22.3599
    22.3871  22.5218  22.5218  22.5976  22.5976  22.6181  22.6181  22.7321
    22.7603  22.7603  22.7871  22.8246  22.8247  22.9542  22.9753  23.0732
    23.0934  23.0935  23.4480  23.4480  23.4796  23.5062  23.5062  23.7312
    23.7312  23.7360  23.7360  23.7434  23.7434  23.7911  23.8790  23.8790
    23.9060  23.9060  23.9204  24.2653  24.2654  24.2733  24.2841  24.3563
    24.4342  24.5282  24.5282  24.6517  24.7661  24.7914  24.7914  24.8664
    24.8664  24.8683  24.8683  25.0569  25.0569  25.0720  25.1381  25.1381
    25.1707  25.1707  25.5353  26.3203  26.3203  26.7126  26.7126  26.8628
    27.0805  27.1561  27.1562

          k = 0.1667 0.1667 0.3889 ( 30171 PWs)   bands (ev):

   -49.8770 -49.8508 -49.8071 -49.8071 -49.7903 -49.7903 -49.7644 -49.7571
   -49.7558 -49.7558 -49.7459 -49.7459 -49.7332 -49.7332 -49.7330 -49.7330
   -49.7278 -49.7239 -49.7169 -49.7119 -49.7119 -49.7014 -49.7005 -49.7005
   -49.6951 -49.6951 -49.6909 -49.6909 -49.6855 -49.6854 -49.6853 -49.6853
   -20.2500 -20.2309 -20.2309 -20.1801 -20.1801 -20.1775 -20.1715 -20.1602
   -20.1493 -20.1493 -20.1191 -20.1191 -20.0829 -20.0829 -20.0723 -20.0723
   -20.0722 -20.0688 -20.0688 -20.0639 -20.0495 -20.0495 -20.0254 -20.0254
   -19.9772 -19.9772 -19.8975 -19.8975 -19.8913 -19.8913 -19.8671 -19.8671
   -19.8350 -19.8350 -19.8101 -19.8101 -19.7972 -19.7972 -19.7687 -19.7687
   -19.7418 -19.7418 -19.6854 -19.6614 -19.6476 -19.6476 -19.6474 -19.6474
   -19.6290 -19.6265 -19.6265 -19.6096 -19.6096 -19.6087 -19.6014 -19.6014
   -19.5936 -19.5936 -19.5862 -19.5771 -19.5716 -19.5716 -19.5697 -19.5347
   -19.5347 -19.5338 -19.5338 -19.5282 -19.5281 -19.5190 -19.5190 -19.5136
   -19.5068 -19.5068 -19.4831 -19.4791 -19.4791 -19.4712 -19.4680 -19.4680
   -19.4657 -19.4657 -19.4637 -19.4637 -19.4580 -19.4540 -19.4168 -19.4054
   -19.4044 -19.4044 -19.3876 -19.3876 -19.3842 -19.3715 -19.3403 -19.3288
    16.0046  16.6628  17.3145  17.3543  17.3543  17.4094  17.6389  17.6389
    17.6583  17.6583  17.6593  17.7224  17.7485  17.7826  17.8056  17.8057
    17.8576  17.8576  17.9724  17.9724  18.0449  18.1102  18.1102  18.1259
    18.1259  18.2363  18.3906  18.3906  18.4036  18.4036  18.4445  18.4445
    18.5494  18.5494  18.5512  18.5512  18.7849  18.7849  18.8423  18.8423
    19.0961  19.0961  19.1682  19.1683  19.2234  19.2234  19.3026  19.3026
    19.3890  19.3890  19.4224  19.4224  19.6395  19.6795  19.6795  19.7697
    19.8808  19.8808  19.9286  20.0153  20.0153  20.0849  20.0849  20.2091
    20.2297  20.2297  20.2399  20.2399  20.4830  20.5006  20.5006  20.5045
    20.5045  20.5858  20.6890  20.6890  20.7158  20.8623  20.8623  20.9078
    20.9087  20.9087  20.9178  20.9178  20.9222  20.9670  20.9670  20.9745
    21.0203  21.0489  21.2117  21.2136  21.2778  21.4782  21.4910  21.4910
    21.5910  21.5910  21.6115  21.6115  21.6724  21.6724  21.9057  21.9057
    22.0018  22.1280  22.2624  22.3052  22.3052  22.3251  22.3251  22.4749
    22.4995  22.4995  22.5057  22.5057  22.5448  22.5449  22.6128  22.6536
    22.6536  22.6745  22.6745  22.7815  22.7815  22.8735  22.8735  23.0644
    23.3123  23.3196  23.4126  23.4166  23.4166  23.4171  23.5536  23.5536
    23.8239  23.8240  23.9616  23.9616  23.9919  24.0350  24.0351  24.0355
    24.0524  24.0524  24.0768  24.0768  24.1216  24.1216  24.1877  24.6203
    24.6283  24.6283  24.6313  24.6326  24.6326  24.6364  24.6364  24.7168
    24.7168  24.8998  24.9448  25.0114  25.0402  25.0402  25.0670  25.0670
    25.1072  25.1073  25.3666  26.1590  26.1590  26.4173  26.5646  26.5647
    27.0078  27.0078  27.5362

          k = 0.1667 0.1667-0.5000 ( 30122 PWs)   bands (ev):

   -49.8650 -49.8650 -49.7995 -49.7994 -49.7994 -49.7994 -49.7610 -49.7610
   -49.7513 -49.7513 -49.7513 -49.7513 -49.7331 -49.7331 -49.7331 -49.7331
   -49.7201 -49.7201 -49.7135 -49.7135 -49.7028 -49.7028 -49.7028 -49.7027
   -49.6953 -49.6953 -49.6952 -49.6952 -49.6854 -49.6854 -49.6853 -49.6853
   -20.2182 -20.2182 -20.1928 -20.1928 -20.1927 -20.1927 -20.1522 -20.1522
   -20.1522 -20.1522 -20.1236 -20.1236 -20.1165 -20.1165 -20.0809 -20.0809
   -20.0809 -20.0809 -20.0584 -20.0584 -20.0584 -20.0584 -20.0016 -20.0016
   -20.0016 -20.0016 -19.8872 -19.8872 -19.8872 -19.8872 -19.8441 -19.8441
   -19.8441 -19.8441 -19.8029 -19.8029 -19.8029 -19.8029 -19.7738 -19.7738
   -19.7738 -19.7738 -19.6470 -19.6470 -19.6470 -19.6470 -19.6373 -19.6373
   -19.6250 -19.6250 -19.6095 -19.6095 -19.5967 -19.5967 -19.5967 -19.5966
   -19.5688 -19.5688 -19.5688 -19.5688 -19.5659 -19.5659 -19.5659 -19.5659
   -19.5631 -19.5631 -19.5631 -19.5631 -19.5138 -19.5138 -19.4919 -19.4919
   -19.4918 -19.4918 -19.4912 -19.4912 -19.4912 -19.4912 -19.4802 -19.4802
   -19.4777 -19.4777 -19.4650 -19.4650 -19.4649 -19.4649 -19.4107 -19.4107
   -19.3929 -19.3929 -19.3929 -19.3929 -19.3603 -19.3603 -19.3471 -19.3471
    16.3087  16.3087  17.4822  17.4822  17.5636  17.5636  17.5636  17.5636
    17.5712  17.5712  17.7988  17.7988  17.7988  17.7988  17.8610  17.8610
    17.8610  17.8610  17.8674  17.8674  17.9803  17.9803  18.1013  18.1013
    18.1013  18.1013  18.2783  18.2783  18.2783  18.2783  18.4757  18.4757
    18.4757  18.4757  18.7285  18.7285  18.7285  18.7285  19.0225  19.0225
    19.0225  19.0225  19.1217  19.1217  19.1217  19.1217  19.2666  19.2666
    19.2666  19.2666  19.5473  19.5473  19.5473  19.5473  19.7695  19.7695
    19.9810  19.9810  19.9810  19.9810  20.0056  20.0056  20.1062  20.1062
    20.1062  20.1062  20.5089  20.5089  20.5089  20.5089  20.5503  20.5503
    20.5563  20.5563  20.5563  20.5563  20.7854  20.7854  20.7854  20.7854
    20.8606  20.8606  21.0618  21.0618  21.0812  21.0812  21.1127  21.1127
    21.1127  21.1127  21.2356  21.2356  21.4809  21.4809  21.4810  21.4810
    21.5265  21.5265  21.6092  21.6092  21.6340  21.6340  21.6340  21.6340
    22.2335  22.2335  22.2335  22.2335  22.4145  22.4145  22.4145  22.4145
    22.4193  22.4193  22.5052  22.5052  22.5052  22.5052  22.6232  22.6232
    22.6232  22.6232  22.6743  22.6743  22.6743  22.6743  22.9614  22.9614
    23.1801  23.1801  23.6632  23.6632  23.6899  23.6899  23.6899  23.6900
    23.7437  23.7437  23.7438  23.7438  23.7438  23.7438  24.3027  24.3027
    24.3027  24.3027  24.3527  24.3527  24.3527  24.3527  24.3779  24.3779
    24.3780  24.3780  24.3868  24.3868  24.3868  24.3868  24.4327  24.4327
    24.7922  24.7922  25.0832  25.0832  25.0832  25.0832  25.1500  25.1500
    25.5967  25.5967  25.5967  25.5967  25.7094  25.7094  26.8063  26.8063
    26.8063  26.8063  28.0917

          k = 0.1667 0.2778 0.2778 ( 30156 PWs)   bands (ev):

   -49.8801 -49.8301 -49.8301 -49.8092 -49.7926 -49.7776 -49.7776 -49.7589
   -49.7571 -49.7422 -49.7422 -49.7393 -49.7393 -49.7345 -49.7272 -49.7272
   -49.7268 -49.7267 -49.7227 -49.7226 -49.7086 -49.7086 -49.7015 -49.6918
   -49.6917 -49.6914 -49.6913 -49.6898 -49.6898 -49.6870 -49.6870 -49.6857
   -20.2550 -20.2550 -20.2381 -20.1875 -20.1819 -20.1819 -20.1768 -20.1268
   -20.1268 -20.1149 -20.1149 -20.0880 -20.0880 -20.0835 -20.0835 -20.0758
   -20.0758 -20.0717 -20.0717 -20.0717 -20.0689 -20.0689 -20.0144 -20.0144
   -19.9798 -19.9798 -19.9756 -19.8884 -19.8686 -19.8685 -19.8670 -19.8567
   -19.8567 -19.8274 -19.8274 -19.7907 -19.7767 -19.7767 -19.7406 -19.7003
   -19.7003 -19.6968 -19.6968 -19.6929 -19.6929 -19.6851 -19.6851 -19.6394
   -19.6393 -19.6389 -19.6308 -19.6308 -19.6258 -19.6258 -19.6228 -19.6228
   -19.6085 -19.6084 -19.5879 -19.5879 -19.5523 -19.5523 -19.5468 -19.5409
   -19.5408 -19.5245 -19.5231 -19.5199 -19.5199 -19.5170 -19.5061 -19.5061
   -19.5051 -19.5051 -19.5037 -19.4968 -19.4968 -19.4732 -19.4732 -19.4711
   -19.4711 -19.4692 -19.4504 -19.4374 -19.4292 -19.4253 -19.4219 -19.4198
   -19.4198 -19.3932 -19.3932 -19.3887 -19.3887 -19.3748 -19.3328 -19.3193
    15.9231  17.1499  17.1499  17.2822  17.2874  17.2874  17.3298  17.5566
    17.5802  17.6607  17.6607  17.7410  17.7410  17.8085  17.9110  17.9110
    17.9225  17.9225  17.9283  18.0219  18.0897  18.0897  18.1616  18.1616
    18.3220  18.3220  18.3795  18.3795  18.4304  18.4304  18.4637  18.4920
    18.4920  18.5177  18.5177  18.6308  18.6308  18.7607  18.7607  18.7758
    18.8225  18.8225  19.0865  19.0866  19.3480  19.3481  19.4367  19.4543
    19.4564  19.4564  19.5262  19.5262  19.5646  19.5646  19.7926  19.7958
    19.7958  19.9940  19.9940  20.0505  20.0505  20.1363  20.1987  20.1987
    20.2505  20.2505  20.3069  20.3699  20.3699  20.4401  20.4401  20.6155
    20.6171  20.6436  20.6436  20.6858  20.7816  20.7842  20.7842  20.8330
    20.8492  20.8492  20.8614  20.9202  20.9694  20.9695  20.9844  20.9925
    20.9925  21.0801  21.1579  21.1579  21.2906  21.2906  21.4698  21.4736
    21.4736  21.5855  21.6130  21.6130  21.8538  21.8538  21.8992  21.8992
    21.9817  21.9817  21.9994  22.0627  22.0627  22.2808  22.3574  22.3620
    22.3810  22.3970  22.3970  22.4416  22.4416  22.7019  22.7019  22.7604
    22.8679  22.8821  22.8821  22.9283  22.9283  22.9574  22.9950  22.9950
    23.0879  23.0879  23.1476  23.2365  23.2366  23.5308  23.5308  23.7585
    23.7950  23.7950  23.8323  23.8323  24.0321  24.0321  24.0365  24.0460
    24.1056  24.1056  24.1079  24.1079  24.2647  24.3166  24.3166  24.3715
    24.4245  24.4377  24.7287  24.7695  24.7695  24.7921  24.7921  24.8453
    24.8838  24.8838  24.8858  24.8858  24.9635  24.9635  25.0598  25.0598
    25.0619  25.0619  25.0831  26.2349  26.6287  26.6287  27.0951  27.0951
    27.3361  27.3362  27.6993

          k = 0.1667 0.2778 0.3889 ( 30187 PWs)   bands (ev):

   -49.8711 -49.8457 -49.8233 -49.8043 -49.8035 -49.7875 -49.7742 -49.7647
   -49.7539 -49.7448 -49.7395 -49.7384 -49.7360 -49.7319 -49.7265 -49.7255
   -49.7234 -49.7211 -49.7155 -49.7129 -49.7119 -49.7032 -49.7009 -49.6970
   -49.6969 -49.6965 -49.6945 -49.6914 -49.6904 -49.6896 -49.6865 -49.6859
   -20.2376 -20.2292 -20.2066 -20.1721 -20.1666 -20.1647 -20.1563 -20.1527
   -20.1329 -20.1261 -20.1174 -20.1167 -20.1167 -20.1091 -20.0941 -20.0918
   -20.0876 -20.0836 -20.0692 -20.0680 -20.0667 -20.0585 -20.0573 -20.0309
   -20.0283 -20.0020 -19.9336 -19.8855 -19.8848 -19.8438 -19.8371 -19.8361
   -19.8356 -19.8144 -19.8031 -19.7991 -19.7904 -19.7701 -19.7328 -19.7327
   -19.7321 -19.7257 -19.7119 -19.6794 -19.6630 -19.6485 -19.6362 -19.6324
   -19.6310 -19.6240 -19.6234 -19.6220 -19.6184 -19.6073 -19.6058 -19.5988
   -19.5948 -19.5915 -19.5873 -19.5866 -19.5828 -19.5800 -19.5690 -19.5565
   -19.5440 -19.5408 -19.5403 -19.5293 -19.5287 -19.5214 -19.5149 -19.5115
   -19.5003 -19.4993 -19.4933 -19.4922 -19.4875 -19.4863 -19.4836 -19.4818
   -19.4814 -19.4733 -19.4723 -19.4485 -19.4384 -19.4369 -19.4143 -19.4123
   -19.3987 -19.3926 -19.3922 -19.3758 -19.3677 -19.3617 -19.3480 -19.3262
    16.1524  16.7843  17.3027  17.4095  17.4226  17.4246  17.4509  17.6280
    17.7011  17.7048  17.7119  17.7601  17.8127  17.8146  17.8365  17.8505
    17.8519  17.9034  17.9291  18.0081  18.0472  18.0693  18.0740  18.1424
    18.1741  18.2294  18.2438  18.2919  18.3022  18.3274  18.4182  18.4511
    18.4634  18.4890  18.5325  18.5457  18.5684  18.5765  18.6047  18.8321
    18.9697  19.0103  19.0759  19.0835  19.1134  19.1255  19.2854  19.3168
    19.3300  19.5100  19.5791  19.6039  19.6263  19.6315  19.7597  19.7988
    19.8062  19.8721  19.9029  20.0208  20.0705  20.1855  20.2083  20.3453
    20.3510  20.3611  20.3898  20.5337  20.5633  20.6353  20.6361  20.6444
    20.6923  20.7153  20.7472  20.7720  20.7833  20.7845  20.8297  20.8711
    20.8771  20.9288  20.9403  20.9554  21.0410  21.0645  21.0824  21.1064
    21.1368  21.1506  21.1632  21.1778  21.2619  21.3492  21.4004  21.4487
    21.4535  21.4912  21.5359  21.5677  21.5828  21.6409  21.6885  21.6959
    21.7509  21.8356  21.9626  22.0293  22.1039  22.1932  22.2162  22.3599
    22.3642  22.4567  22.4703  22.5285  22.5920  22.5970  22.6146  22.6289
    22.6518  22.6939  22.8274  22.8498  22.8790  22.9124  23.0012  23.0298
    23.0390  23.2509  23.2620  23.2798  23.3390  23.3892  23.6873  23.8201
    23.8737  23.9017  23.9055  23.9221  23.9701  23.9775  24.1153  24.1900
    24.2057  24.2315  24.2830  24.3005  24.3005  24.3209  24.3228  24.3423
    24.5043  24.5964  24.6150  24.6385  24.6415  24.6619  24.6717  24.7071
    24.7272  24.7630  24.9052  24.9139  24.9141  24.9469  24.9763  25.0087
    25.0181  25.5665  25.5723  26.0862  26.2599  26.5094  26.7650  27.0083
    27.3332  27.7070  27.8562

          k = 0.1667 0.2778-0.5000 ( 30158 PWs)   bands (ev):

   -49.8595 -49.8595 -49.8146 -49.8146 -49.7962 -49.7962 -49.7699 -49.7699
   -49.7497 -49.7497 -49.7373 -49.7373 -49.7360 -49.7360 -49.7243 -49.7243
   -49.7161 -49.7161 -49.7126 -49.7126 -49.7052 -49.7052 -49.7042 -49.7042
   -49.6984 -49.6984 -49.6929 -49.6929 -49.6909 -49.6909 -49.6862 -49.6862
   -20.2096 -20.2096 -20.1957 -20.1957 -20.1684 -20.1684 -20.1427 -20.1427
   -20.1400 -20.1400 -20.1145 -20.1145 -20.1096 -20.1096 -20.1037 -20.1037
   -20.0910 -20.0910 -20.0833 -20.0833 -20.0655 -20.0655 -20.0432 -20.0432
   -20.0305 -20.0305 -19.8916 -19.8916 -19.8849 -19.8849 -19.8257 -19.8257
   -19.8021 -19.8021 -19.7845 -19.7845 -19.7727 -19.7727 -19.7671 -19.7671
   -19.7560 -19.7560 -19.6530 -19.6530 -19.6492 -19.6492 -19.6341 -19.6341
   -19.6327 -19.6327 -19.6259 -19.6259 -19.6058 -19.6058 -19.6040 -19.6040
   -19.5752 -19.5752 -19.5751 -19.5751 -19.5678 -19.5678 -19.5593 -19.5593
   -19.5559 -19.5559 -19.5555 -19.5555 -19.5509 -19.5509 -19.5272 -19.5272
   -19.4956 -19.4956 -19.4927 -19.4927 -19.4885 -19.4885 -19.4734 -19.4734
   -19.4682 -19.4682 -19.4594 -19.4594 -19.4591 -19.4591 -19.4058 -19.4058
   -19.3994 -19.3994 -19.3682 -19.3682 -19.3681 -19.3681 -19.3405 -19.3405
    16.4442  16.4442  17.4916  17.4916  17.5381  17.5381  17.5886  17.5886
    17.6094  17.6094  17.6598  17.6598  17.7154  17.7154  17.8662  17.8662
    17.9957  17.9957  18.0078  18.0078  18.0681  18.0681  18.1409  18.1409
    18.1693  18.1693  18.2190  18.2190  18.2207  18.2207  18.2546  18.2546
    18.4548  18.4548  18.4821  18.4821  18.6234  18.6234  18.8089  18.8089
    18.9424  18.9424  19.1243  19.1243  19.1425  19.1425  19.2107  19.2107
    19.2876  19.2876  19.6371  19.6371  19.7016  19.7016  19.7453  19.7453
    19.8073  19.8073  19.9911  19.9911  20.0106  20.0106  20.3574  20.3574
    20.4133  20.4133  20.5687  20.5687  20.6291  20.6291  20.6318  20.6318
    20.7506  20.7506  20.7688  20.7688  20.8589  20.8589  20.8912  20.8912
    20.9505  20.9505  21.0481  21.0481  21.0575  21.0575  21.0829  21.0829
    21.1564  21.1564  21.2884  21.2884  21.3544  21.3544  21.3888  21.3888
    21.4166  21.4166  21.4323  21.4323  21.4457  21.4457  21.4806  21.4806
    21.9944  21.9944  22.0710  22.0710  22.0983  22.0983  22.3217  22.3217
    22.4204  22.4204  22.4264  22.4264  22.4653  22.4653  22.4690  22.4690
    22.6686  22.6686  22.7240  22.7240  22.8975  22.8975  22.9832  22.9832
    23.1726  23.1727  23.5647  23.5647  23.5838  23.5838  23.6173  23.6173
    23.6788  23.6788  23.9629  23.9629  24.0452  24.0452  24.1421  24.1421
    24.2115  24.2115  24.4035  24.4035  24.4482  24.4482  24.4813  24.4813
    24.4829  24.4829  24.5320  24.5320  24.5510  24.5510  24.5642  24.5642
    24.7115  24.7115  24.7959  24.7959  24.9556  24.9556  24.9589  24.9589
    25.5326  25.5326  26.1717  26.1717  26.2773  26.2773  26.3725  26.3725
    27.5448  27.5448  28.5230

          k = 0.1667 0.3889 0.3889 ( 30150 PWs)   bands (ev):

   -49.8624 -49.8382 -49.8382 -49.8172 -49.7982 -49.7834 -49.7834 -49.7718
   -49.7511 -49.7432 -49.7432 -49.7387 -49.7245 -49.7245 -49.7190 -49.7189
   -49.7185 -49.7185 -49.7143 -49.7143 -49.7072 -49.7072 -49.7001 -49.7000
   -49.6997 -49.6996 -49.6979 -49.6979 -49.6937 -49.6884 -49.6884 -49.6865
   -20.2165 -20.2164 -20.1749 -20.1595 -20.1595 -20.1535 -20.1535 -20.1472
   -20.1417 -20.1417 -20.1184 -20.1184 -20.1107 -20.1107 -20.0977 -20.0977
   -20.0959 -20.0959 -20.0872 -20.0819 -20.0819 -20.0731 -20.0731 -20.0711
   -20.0329 -19.9841 -19.9841 -19.8902 -19.8835 -19.8609 -19.8609 -19.8008
   -19.7903 -19.7903 -19.7807 -19.7638 -19.7638 -19.7383 -19.7383 -19.7029
   -19.7029 -19.6986 -19.6985 -19.6916 -19.6916 -19.6688 -19.6688 -19.6421
   -19.6421 -19.6194 -19.6194 -19.6190 -19.6190 -19.6168 -19.6105 -19.6105
   -19.5989 -19.5988 -19.5709 -19.5709 -19.5677 -19.5677 -19.5667 -19.5667
   -19.5580 -19.5501 -19.5501 -19.5500 -19.5463 -19.5230 -19.5211 -19.5211
   -19.5208 -19.5208 -19.5117 -19.4975 -19.4975 -19.4843 -19.4843 -19.4837
   -19.4644 -19.4644 -19.4565 -19.4343 -19.4293 -19.4188 -19.4167 -19.4086
   -19.4086 -19.4000 -19.4000 -19.3634 -19.3551 -19.3528 -19.3528 -19.3276
    16.3674  16.9595  16.9595  17.4336  17.4531  17.5352  17.5856  17.5856
    17.6239  17.6626  17.6626  17.7800  17.8996  17.8996  17.9074  17.9074
    17.9915  17.9915  18.0367  18.0368  18.0368  18.0370  18.0370  18.0449
[...]
   -19.5803 -19.5803 -19.5803 -19.5803 -19.5354 -19.5354 -19.5354 -19.5354
   -19.5354 -19.5354 -19.5354 -19.5354 -19.5193 -19.5193 -19.5193 -19.5193
   -19.4100 -19.4100 -19.4100 -19.4100 -19.3919 -19.3919 -19.3919 -19.3919
   -19.3896 -19.3896 -19.3896 -19.3896 -19.3472 -19.3472 -19.3472 -19.3472
    16.9497  16.9497  16.9497  16.9497  17.4217  17.4217  17.4217  17.4217
    17.8816  17.8816  17.8816  17.8816  17.9284  17.9284  17.9284  17.9284
    17.9284  17.9284  17.9284  17.9284  18.0094  18.0094  18.0094  18.0094
    18.2026  18.2026  18.2026  18.2026  18.2027  18.2027  18.2027  18.2027
    18.5983  18.5983  18.5983  18.5983  18.5983  18.5983  18.5983  18.5983
    18.7596  18.7596  18.7596  18.7596  19.3274  19.3274  19.3274  19.3274
    19.3274  19.3274  19.3274  19.3274  19.5080  19.5080  19.5080  19.5080
    20.0505  20.0505  20.0505  20.0505  20.5298  20.5298  20.5298  20.5298
    20.7839  20.7839  20.7840  20.7840  20.8627  20.8627  20.8627  20.8627
    20.9013  20.9013  20.9013  20.9013  20.9013  20.9013  20.9013  20.9013
    21.0244  21.0244  21.0244  21.0244  21.0499  21.0499  21.0499  21.0499
    21.1006  21.1006  21.1006  21.1006  21.3156  21.3156  21.3156  21.3156
    21.3157  21.3157  21.3157  21.3157  21.4560  21.4560  21.4560  21.4560
    21.7912  21.7912  21.7912  21.7912  21.9808  21.9808  21.9808  21.9808
    21.9808  21.9808  21.9808  21.9808  22.6099  22.6099  22.6099  22.6099
    22.8760  22.8760  22.8760  22.8760  22.9268  22.9268  22.9268  22.9268
    22.9268  22.9268  22.9268  22.9268  23.3151  23.3151  23.3151  23.3151
    23.3300  23.3300  23.3300  23.3300  23.7537  23.7537  23.7537  23.7537
    24.7583  24.7583  24.7583  24.7583  24.7583  24.7583  24.7583  24.7583
    24.7958  24.7958  24.7958  24.7958  24.8223  24.8223  24.8223  24.8223
    24.8224  24.8224  24.8224  24.8224  24.8717  24.8717  24.8717  24.8717
    26.4576  26.4576  26.4576  26.4576  27.7493  27.7493  27.7493  27.7494
    27.7494  27.7494  27.7494

          k = 0.3889 0.3889 0.3889 ( 30196 PWs)   bands (ev):

   -49.8491 -49.8269 -49.8269 -49.8268 -49.8078 -49.8078 -49.8078 -49.7920
   -49.7224 -49.7224 -49.7224 -49.7188 -49.7188 -49.7188 -49.7188 -49.7188
   -49.7188 -49.7187 -49.7186 -49.7186 -49.7030 -49.7030 -49.7030 -49.7000
   -49.6999 -49.6999 -49.6998 -49.6998 -49.6998 -49.6997 -49.6997 -49.6997
   -20.1818 -20.1818 -20.1818 -20.1453 -20.1453 -20.1453 -20.1347 -20.1347
   -20.1347 -20.1299 -20.1299 -20.1299 -20.1299 -20.1299 -20.1299 -20.1256
   -20.1255 -20.1255 -20.1255 -20.1255 -20.1255 -20.0988 -20.0988 -20.0988
   -19.9892 -19.8775 -19.8775 -19.8775 -19.7698 -19.7698 -19.7698 -19.7698
   -19.7698 -19.7698 -19.7639 -19.7639 -19.7639 -19.7615 -19.7615 -19.7615
   -19.7377 -19.7376 -19.7376 -19.6635 -19.6635 -19.6635 -19.6635 -19.6635
   -19.6635 -19.6460 -19.6460 -19.6460 -19.6453 -19.6337 -19.6336 -19.6336
   -19.5951 -19.5951 -19.5950 -19.5766 -19.5766 -19.5766 -19.5766 -19.5766
   -19.5766 -19.5586 -19.5586 -19.5586 -19.5426 -19.5426 -19.5426 -19.5379
   -19.5379 -19.5378 -19.5378 -19.5378 -19.5378 -19.5167 -19.5167 -19.5167
   -19.4153 -19.4153 -19.4153 -19.3963 -19.3963 -19.3870 -19.3870 -19.3870
   -19.3705 -19.3705 -19.3705 -19.3669 -19.3669 -19.3669 -19.3499 -19.3499
    16.6548  17.1134  17.1134  17.1134  17.3531  17.3628  17.3628  17.3628
    17.7208  17.7208  17.7209  17.9425  17.9425  17.9425  18.0219  18.0219
    18.0220  18.0352  18.0352  18.0352  18.0353  18.0353  18.0353  18.1241
    18.1241  18.1241  18.1241  18.1241  18.1241  18.1540  18.1540  18.1540
    18.4084  18.4084  18.4084  18.7807  18.7807  18.7807  18.8840  18.8841
    18.8841  18.8841  18.8841  18.8841  19.2393  19.2393  19.2393  19.2486
    19.2486  19.2486  19.2486  19.2486  19.2486  19.5506  19.5506  19.5506
    20.0725  20.0725  20.0725  20.1609  20.3470  20.3470  20.3470  20.7628
    20.7628  20.7628  20.7628  20.7628  20.7628  20.8650  20.8650  20.9592
    20.9592  20.9592  21.0079  21.0079  21.0079  21.0082  21.0082  21.0254
    21.0254  21.0254  21.0373  21.0373  21.0373  21.0402  21.0705  21.0705
    21.0705  21.1064  21.1064  21.1064  21.1064  21.1064  21.1064  21.1137
    21.1137  21.1137  21.2161  21.2161  21.2161  21.6363  21.6363  21.6363
    21.8413  21.8414  21.8414  22.1601  22.1601  22.1601  22.1601  22.1601
    22.1601  22.1616  22.1616  22.1616  22.4977  22.4977  22.4977  22.6852
    22.6852  22.6852  22.6852  22.6852  22.6852  22.8004  22.8004  22.8004
    22.8923  22.8923  22.9288  22.9288  22.9288  23.0825  23.0825  23.0826
    23.3623  23.3623  23.3623  23.5942  23.5942  23.7607  23.7607  23.7607
    24.7107  24.7107  24.7107  24.7642  24.7642  24.7642  24.7642  24.7642
    24.7642  24.8326  24.8326  24.8326  24.8326  24.8326  24.8326  24.8985
    24.8985  24.8986  24.9147  24.9147  24.9147  25.0082  25.0082  25.0082
    26.6731  26.6731  26.6731  27.5774  27.5774  27.5774  27.5775  27.5775
    27.5775  27.8569  27.8569

          k = 0.3889 0.3889-0.5000 ( 30162 PWs)   bands (ev):

   -49.8390 -49.8390 -49.8182 -49.8182 -49.8181 -49.8181 -49.8006 -49.8006
   -49.7208 -49.7207 -49.7207 -49.7207 -49.7187 -49.7187 -49.7187 -49.7187
   -49.7102 -49.7102 -49.7101 -49.7101 -49.7085 -49.7084 -49.7084 -49.7084
   -49.7013 -49.7012 -49.7012 -49.7012 -49.6999 -49.6999 -49.6998 -49.6998
   -20.1688 -20.1688 -20.1570 -20.1570 -20.1570 -20.1570 -20.1354 -20.1354
   -20.1354 -20.1354 -20.1320 -20.1320 -20.1320 -20.1320 -20.1301 -20.1301
   -20.1301 -20.1301 -20.1203 -20.1203 -20.1147 -20.1147 -20.1147 -20.1146
   -19.9337 -19.9337 -19.8203 -19.8203 -19.8203 -19.8203 -19.7678 -19.7678
   -19.7678 -19.7678 -19.7548 -19.7548 -19.7547 -19.7547 -19.7166 -19.7166
   -19.7166 -19.7166 -19.7033 -19.7033 -19.6964 -19.6964 -19.6940 -19.6940
   -19.6531 -19.6531 -19.6531 -19.6531 -19.6468 -19.6468 -19.6467 -19.6467
   -19.5848 -19.5848 -19.5848 -19.5848 -19.5785 -19.5785 -19.5592 -19.5592
   -19.5592 -19.5592 -19.5585 -19.5585 -19.5585 -19.5585 -19.5486 -19.5486
   -19.5486 -19.5486 -19.5308 -19.5308 -19.5280 -19.5280 -19.5280 -19.5280
   -19.4014 -19.4014 -19.3967 -19.3967 -19.3967 -19.3967 -19.3823 -19.3823
   -19.3672 -19.3672 -19.3672 -19.3672 -19.3668 -19.3668 -19.3539 -19.3539
    16.8683  16.8683  17.2285  17.2285  17.2285  17.2285  17.3457  17.3457
    17.8366  17.8366  17.8556  17.8556  17.8556  17.8556  18.0171  18.0171
    18.0171  18.0171  18.0616  18.0616  18.0616  18.0616  18.0793  18.0793
    18.0793  18.0793  18.0961  18.0961  18.0961  18.0961  18.1085  18.1085
    18.5723  18.5723  18.6472  18.6472  18.6472  18.6472  19.0267  19.0267
    19.0268  19.0268  19.0383  19.0383  19.0383  19.0383  19.0744  19.0744
    19.0744  19.0744  19.3655  19.3655  19.4201  19.4201  19.4201  19.4201
    20.1385  20.1385  20.2226  20.2226  20.2226  20.2226  20.6949  20.6949
    20.9031  20.9031  20.9031  20.9031  20.9262  20.9262  20.9271  20.9271
    20.9271  20.9271  20.9300  20.9300  20.9781  20.9781  20.9781  20.9781
    20.9925  20.9925  20.9925  20.9925  21.0287  21.0287  21.0297  21.0297
    21.0465  21.0465  21.0638  21.0638  21.0638  21.0638  21.0645  21.0646
    21.0646  21.0646  21.4827  21.4827  21.4828  21.4828  21.5324  21.5324
    21.8646  21.8646  21.8647  21.8647  21.8912  21.8912  22.3035  22.3035
    22.3035  22.3035  22.3971  22.3971  22.3971  22.3971  22.4268  22.4268
    22.4268  22.4268  22.7904  22.7904  22.8025  22.8025  22.8676  22.8676
    22.8676  22.8676  22.8956  22.8956  22.8956  22.8956  23.1143  23.1143
    23.2618  23.2618  23.4872  23.4872  23.4872  23.4872  23.6487  23.6487
    24.7992  24.7992  24.7992  24.7992  24.8309  24.8309  24.8309  24.8309
    24.8343  24.8343  24.8819  24.8819  24.8819  24.8819  24.8882  24.8882
    24.8882  24.8882  24.9405  24.9405  24.9405  24.9405  24.9893  24.9893
    27.1019  27.1019  27.1019  27.1019  27.5540  27.5540  27.7015  27.7015
    27.7015  27.7015  28.4894

          k = 0.3889-0.5000-0.5000 ( 30188 PWs)   bands (ev):

   -49.8295 -49.8295 -49.8295 -49.8295 -49.8101 -49.8101 -49.8101 -49.8101
   -49.7198 -49.7198 -49.7198 -49.7198 -49.7094 -49.7094 -49.7094 -49.7094
   -49.7094 -49.7093 -49.7093 -49.7093 -49.7092 -49.7092 -49.7092 -49.7092
   -49.7092 -49.7092 -49.7092 -49.7092 -49.7005 -49.7005 -49.7005 -49.7005
   -20.1511 -20.1511 -20.1511 -20.1511 -20.1511 -20.1511 -20.1511 -20.1511
   -20.1364 -20.1364 -20.1364 -20.1364 -20.1325 -20.1325 -20.1325 -20.1325
   -20.1262 -20.1262 -20.1262 -20.1262 -20.1262 -20.1262 -20.1262 -20.1262
   -19.8770 -19.8770 -19.8770 -19.8770 -19.7632 -19.7632 -19.7632 -19.7632
   -19.7610 -19.7610 -19.7610 -19.7610 -19.7067 -19.7067 -19.7067 -19.7067
   -19.7066 -19.7066 -19.7066 -19.7066 -19.7052 -19.7052 -19.7052 -19.7052
   -19.7052 -19.7052 -19.7052 -19.7052 -19.6482 -19.6482 -19.6482 -19.6482
   -19.5705 -19.5705 -19.5705 -19.5705 -19.5684 -19.5684 -19.5684 -19.5684
   -19.5684 -19.5684 -19.5684 -19.5684 -19.5447 -19.5447 -19.5447 -19.5447
   -19.5447 -19.5447 -19.5447 -19.5447 -19.5389 -19.5389 -19.5389 -19.5389
   -19.3905 -19.3905 -19.3904 -19.3904 -19.3777 -19.3777 -19.3777 -19.3777
   -19.3776 -19.3776 -19.3776 -19.3776 -19.3585 -19.3585 -19.3585 -19.3585
    17.0362  17.0362  17.0363  17.0363  17.2773  17.2773  17.2773  17.2773
    17.9462  17.9462  17.9462  17.9462  17.9462  17.9462  17.9462  17.9462
    17.9472  17.9472  17.9472  17.9472  18.0260  18.0260  18.0260  18.0260
    18.0903  18.0903  18.0903  18.0903  18.0903  18.0903  18.0903  18.0903
    18.8120  18.8120  18.8120  18.8120  18.8120  18.8120  18.8120  18.8120
    18.8699  18.8699  18.8699  18.8699  19.2188  19.2188  19.2188  19.2188
    19.2188  19.2188  19.2188  19.2188  19.2461  19.2461  19.2461  19.2461
    20.2002  20.2002  20.2002  20.2002  20.4728  20.4728  20.4728  20.4728
    20.9298  20.9298  20.9298  20.9298  20.9517  20.9517  20.9517  20.9517
    20.9742  20.9742  20.9743  20.9743  20.9743  20.9743  20.9743  20.9743
    20.9902  20.9902  20.9902  20.9902  21.0248  21.0248  21.0248  21.0248
    21.0346  21.0346  21.0347  21.0347  21.2293  21.2293  21.2293  21.2293
    21.2293  21.2293  21.2293  21.2293  21.2879  21.2879  21.2879  21.2879
    22.0456  22.0456  22.0456  22.0456  22.1265  22.1265  22.1265  22.1265
    22.1265  22.1265  22.1265  22.1265  22.5861  22.5861  22.5861  22.5861
    22.5861  22.5861  22.5861  22.5861  22.6025  22.6025  22.6025  22.6025
    22.8662  22.8662  22.8662  22.8662  23.1562  23.1562  23.1562  23.1562
    23.2306  23.2306  23.2307  23.2307  23.4521  23.4521  23.4521  23.4521
    24.8749  24.8749  24.8749  24.8749  24.8749  24.8749  24.8749  24.8749
    24.8965  24.8965  24.8965  24.8965  24.9421  24.9421  24.9421  24.9421
    24.9422  24.9422  24.9422  24.9422  24.9433  24.9433  24.9433  24.9433
    27.3713  27.3713  27.3713  27.3713  28.0100  28.0100  28.0100  28.0100
    28.0100  28.0100  28.0100

          k =-0.5000-0.5000-0.5000 ( 30280 PWs)   bands (ev):

   -49.8207 -49.8207 -49.8207 -49.8207 -49.8206 -49.8206 -49.8206 -49.8206
   -49.7094 -49.7094 -49.7094 -49.7094 -49.7093 -49.7093 -49.7093 -49.7093
   -49.7093 -49.7093 -49.7093 -49.7093 -49.7093 -49.7093 -49.7093 -49.7093
   -49.7093 -49.7093 -49.7093 -49.7093 -49.7093 -49.7093 -49.7093 -49.7093
   -20.1389 -20.1389 -20.1389 -20.1389 -20.1389 -20.1388 -20.1388 -20.1388
   -20.1388 -20.1388 -20.1388 -20.1388 -20.1388 -20.1388 -20.1388 -20.1388
   -20.1388 -20.1388 -20.1388 -20.1388 -20.1388 -20.1388 -20.1388 -20.1388
   -19.8186 -19.8186 -19.8186 -19.8186 -19.8186 -19.8186 -19.8186 -19.8186
   -19.7064 -19.7064 -19.7064 -19.7064 -19.7063 -19.7063 -19.7063 -19.7063
   -19.7063 -19.7063 -19.7063 -19.7063 -19.7063 -19.7063 -19.7063 -19.7063
   -19.7063 -19.7063 -19.7063 -19.7063 -19.7063 -19.7063 -19.7063 -19.7063
   -19.5562 -19.5562 -19.5562 -19.5562 -19.5562 -19.5561 -19.5561 -19.5561
   -19.5561 -19.5561 -19.5561 -19.5561 -19.5561 -19.5561 -19.5561 -19.5561
   -19.5561 -19.5561 -19.5561 -19.5561 -19.5561 -19.5561 -19.5561 -19.5561
   -19.3731 -19.3731 -19.3731 -19.3731 -19.3731 -19.3731 -19.3731 -19.3731
   -19.3731 -19.3731 -19.3731 -19.3731 -19.3731 -19.3731 -19.3731 -19.3731
    17.1469  17.1469  17.1469  17.1469  17.1469  17.1469  17.1469  17.1469
    18.0015  18.0015  18.0015  18.0015  18.0015  18.0015  18.0015  18.0015
    18.0015  18.0015  18.0015  18.0015  18.0015  18.0015  18.0015  18.0015
    18.0015  18.0015  18.0015  18.0015  18.0015  18.0015  18.0015  18.0015
    19.0312  19.0312  19.0312  19.0312  19.0312  19.0312  19.0312  19.0312
    19.0312  19.0312  19.0312  19.0312  19.0312  19.0312  19.0312  19.0312
    19.0312  19.0312  19.0312  19.0312  19.0312  19.0312  19.0312  19.0312
    20.3547  20.3547  20.3547  20.3547  20.3548  20.3548  20.3548  20.3548
    20.9950  20.9950  20.9950  20.9950  20.9950  20.9950  20.9950  20.9950
    20.9950  20.9950  20.9950  20.9950  20.9950  20.9950  20.9950  20.9950
    21.1045  21.1045  21.1045  21.1045  21.1046  21.1046  21.1046  21.1046
    21.1046  21.1046  21.1046  21.1046  21.1046  21.1046  21.1046  21.1046
    21.1046  21.1046  21.1046  21.1046  21.1046  21.1046  21.1046  21.1046
    22.3198  22.3198  22.3198  22.3198  22.3198  22.3198  22.3198  22.3198
    22.3198  22.3198  22.3198  22.3198  22.3198  22.3198  22.3198  22.3198
    22.3198  22.3198  22.3198  22.3198  22.3198  22.3198  22.3198  22.3198
    23.1520  23.1520  23.1520  23.1520  23.1520  23.1520  23.1520  23.1520
    23.1520  23.1520  23.1520  23.1520  23.1520  23.1520  23.1520  23.1520
    24.9501  24.9501  24.9501  24.9501  24.9501  24.9501  24.9501  24.9501
    24.9502  24.9502  24.9502  24.9502  24.9502  24.9502  24.9502  24.9502
    24.9502  24.9502  24.9502  24.9502  24.9502  24.9502  24.9502  24.9502
    28.3308  28.3308  28.3308  28.3308  28.3308  28.3308  28.3308  28.3308
    28.3308  28.3308  28.3308

     the Fermi energy is    23.1192 ev

!    total energy              =  -13813.30088493 Ry

     total all-electron energy =   -289989.691224 Ry
     estimated scf accuracy    <       0.00000090 Ry
     smearing contrib. (-TS)   =       0.02044401 Ry
     internal energy E=F+TS    =  -13813.32132894 Ry

     The total energy is F=E-TS. E is the sum of the following terms:
     one-electron contribution =    -995.13156450 Ry
     hartree contribution      =     915.87300651 Ry
     xc contribution           =    -928.06698852 Ry
     ewald contribution        =   -5216.55418210 Ry
     one-center paw contrib.   =   -7589.44160032 Ry

     convergence has been achieved in  11 iterations

     Forces acting on atoms (cartesian axes, Ry/au):

     atom    1 type  1   force =     0.00000000    0.00000000    0.00000000
     atom    2 type  1   force =     0.00000823    0.00000823    0.00000000
     atom    3 type  1   force =     0.00000823   -0.00000000    0.00000823
     atom    4 type  1   force =    -0.00000000    0.00000823    0.00000823
     atom    5 type  1   force =     0.00000000    0.00000000    0.00000000
     atom    6 type  1   force =    -0.00000704   -0.00000704    0.00000000
     atom    7 type  1   force =     0.00000823    0.00000000   -0.00000823
     atom    8 type  1   force =    -0.00000000    0.00000823   -0.00000823
     atom    9 type  1   force =     0.00000000    0.00000000    0.00000000
     atom   10 type  1   force =     0.00000823   -0.00000823    0.00000000
     atom   11 type  1   force =    -0.00000704    0.00000000   -0.00000704
     atom   12 type  1   force =     0.00000000   -0.00000823    0.00000823
     atom   13 type  1   force =     0.00000000    0.00000000    0.00000000
     atom   14 type  1   force =    -0.00000704    0.00000704    0.00000000
     atom   15 type  1   force =    -0.00000704    0.00000000    0.00000704
     atom   16 type  1   force =     0.00000000   -0.00000823   -0.00000823
     atom   17 type  1   force =     0.00000000    0.00000000    0.00000000
     atom   18 type  1   force =    -0.00000823    0.00000823    0.00000000
     atom   19 type  1   force =    -0.00000823    0.00000000    0.00000823
     atom   20 type  1   force =     0.00000000   -0.00000704   -0.00000704
     atom   21 type  1   force =     0.00000000    0.00000000    0.00000000
     atom   22 type  1   force =     0.00000704   -0.00000704    0.00000000
     atom   23 type  1   force =    -0.00000823   -0.00000000   -0.00000823
     atom   24 type  1   force =     0.00000000   -0.00000704    0.00000704
     atom   25 type  1   force =     0.00000000    0.00000000    0.00000000
     atom   26 type  1   force =    -0.00000823   -0.00000823    0.00000000
     atom   27 type  1   force =     0.00000704    0.00000000   -0.00000704
     atom   28 type  1   force =     0.00000000    0.00000704   -0.00000704
     atom   29 type  1   force =     0.00000000    0.00000000    0.00000000
     atom   30 type  1   force =     0.00000704    0.00000704    0.00000000
     atom   31 type  1   force =     0.00000704    0.00000000    0.00000704
     atom   32 type  1   force =     0.00000000    0.00000704    0.00000704

     Total force =     0.000053     Total SCF correction =     0.000268
     SCF correction compared to forces is large: reduce conv_thr to get better values


     Computing stress (Cartesian axis) and pressure

          total   stress  (Ry/bohr**3)                   (kbar)     P=       -4.78
  -0.00003250   0.00000000   0.00000000           -4.78        0.00        0.00
   0.00000000  -0.00003250   0.00000000            0.00       -4.78        0.00
   0.00000000   0.00000000  -0.00003250            0.00        0.00       -4.78


     Writing output data file /scratch/IuUZljwpXgfhpeHG.save/
 
     init_run     :     13.61s CPU     13.94s WALL (       1 calls)
     electrons    :    487.30s CPU    495.08s WALL (       1 calls)
     forces       :      5.13s CPU      5.22s WALL (       1 calls)
     stress       :     31.12s CPU     31.37s WALL (       1 calls)

     Called by init_run:
     wfcinit      :     12.92s CPU     13.17s WALL (       1 calls)
     potinit      :      0.26s CPU      0.27s WALL (       1 calls)
     hinit0       :      0.07s CPU      0.08s WALL (       1 calls)

     Called by electrons:
     c_bands      :    436.75s CPU    443.31s WALL (      12 calls)
     sum_band     :     48.73s CPU     49.71s WALL (      12 calls)
     v_of_rho     :      0.26s CPU      0.28s WALL (      12 calls)
     newd         :      0.35s CPU      0.46s WALL (      12 calls)
     PAW_pot      :      1.13s CPU      1.19s WALL (      12 calls)
     mix_rho      :      0.05s CPU      0.06s WALL (      12 calls)

     Called by c_bands:
     init_us_2    :      1.89s CPU      1.93s WALL (     945 calls)
     cegterg      :    430.24s CPU    436.55s WALL (     420 calls)

     Called by *egterg:
     cdiaghg      :     55.64s CPU     56.43s WALL (    1532 calls)
     h_psi        :    221.68s CPU    225.30s WALL (    1602 calls)
     s_psi        :     15.64s CPU     15.74s WALL (    1602 calls)
     g_psi        :      0.39s CPU      0.39s WALL (    1147 calls)

     Called by h_psi:
     h_psi:calbec :     31.14s CPU     31.35s WALL (    1602 calls)
     vloc_psi     :    174.64s CPU    177.64s WALL (    1602 calls)
     add_vuspsi   :     14.88s CPU     15.28s WALL (    1602 calls)

     General routines
     calbec       :     48.17s CPU     48.54s WALL (    2197 calls)
     fft          :      0.45s CPU      0.47s WALL (     180 calls)
     ffts         :      0.03s CPU      0.04s WALL (      24 calls)
     fftw         :    201.94s CPU    205.35s WALL (  804578 calls)
     interpolate  :      0.15s CPU      0.16s WALL (      12 calls)
 
     Parallel routines
     fft_scatt_xy :     13.92s CPU     14.15s WALL (  804782 calls)
     fft_scatt_yz :    164.35s CPU    167.16s WALL (  804782 calls)
 
     PWSCF        :   9m 7.18s CPU   9m17.47s WALL

 
   This run was terminated on:  15:20:50  25Nov2021            

=------------------------------------------------------------------------------=
   JOB DONE.
=------------------------------------------------------------------------------=
