
     Program PWSCF v.6.7MaX starts on 25Nov2021 at 21:17:41 

     This program is part of the open-source Quantum ESPRESSO suite
     for quantum simulation of materials; please cite
         "P. Giannozzi et al., J. Phys.:Condens. Matter 21 395502 (2009);
         "P. Giannozzi et al., J. Phys.:Condens. Matter 29 465901 (2017);
          URL http://www.quantum-espresso.org", 
     in publications or presentations arising from this work. More details at
     http://www.quantum-espresso.org/quote

     Parallel version (MPI & OpenMP), running on      72 processor cores
     Number of MPI processes:                72
     Threads/MPI process:                     1

     MPI processes distributed on     1 nodes
     R & G space division:  proc/nbgrp/npool/nimage =      72
     Reading input from fcc_11.in
Warning: card &CELL ignored
Warning: card CELL_DYNAMICS = 'BFGS', ignored
Warning: card CELL_FACTOR = 2.0, ignored
Warning: card PRESS = 0.0, ignored
Warning: card / ignored

     Current dimensions of program PWSCF are:
     Max number of different atomic species (ntypx) = 10
     Max number of k-points (npk) =  40000
     Max angular momentum in pseudopotentials (lmaxx) =  3
     file Ru.pbe-spn-kjpaw_psl.1.0.0.UPF: wavefunction(s)  4D renormalized

     Subspace diagonalization in iterative solution of the eigenvalue problem:
     one sub-group per band group will be used
     ELPA distributed-memory algorithm (size of sub-group:  8*  8 procs)

     Found symmetry operation: I + (  0.2500  0.2500  0.0000)
     This is a supercell, fractional translations are disabled
     Message from routine setup:
     using ibrav=0 with symmetry is DISCOURAGED, use correct ibrav instead
 
     Parallelization info
     --------------------
     sticks:   dense  smooth     PW     G-vecs:    dense   smooth      PW
     Min         394     260     68                49957    26814    3580
     Max         396     261     69                49961    26819    3586
     Sum       28393   18765   4905              3597007  1930799  257943
 


     bravais-lattice index     =            0
     lattice parameter (alat)  =      14.4000  a.u.
     unit-cell volume          =   23887.8720 (a.u.)^3
     number of atoms/cell      =           32
     number of atomic types    =            1
     number of electrons       =       512.00
     number of Kohn-Sham states=          307
     kinetic-energy cutoff     =      71.0000  Ry
     charge density cutoff     =     430.0000  Ry
     scf convergence threshold =      1.0E-06
     mixing beta               =       0.1000
     number of iterations used =           10  TF        mixing
     Exchange-correlation= SLA  PW   PBX  PBC
                           (   1   4   3   4   0   0   0)

     celldm(1)=  14.400000  celldm(2)=   0.000000  celldm(3)=   0.000000
     celldm(4)=   0.000000  celldm(5)=   0.000000  celldm(6)=   0.000000

     crystal axes: (cart. coord. in units of alat)
               a(1) = (   2.000000   0.000000   0.000000 )  
               a(2) = (   0.000000   2.000000   0.000000 )  
               a(3) = (   0.000000   0.000000   2.000000 )  

     reciprocal axes: (cart. coord. in units 2 pi/alat)
               b(1) = (  0.500000  0.000000  0.000000 )  
               b(2) = (  0.000000  0.500000  0.000000 )  
               b(3) = (  0.000000  0.000000  0.500000 )  


     PseudoPot. # 1 for Ru read from file:
     /rds/homes/b/bxp912/pp/Ru.pbe-spn-kjpaw_psl.1.0.0.UPF
     MD5 check sum: 0ae1f594dea09af7be8575c3a481d1ae
     Pseudo is Projector augmented-wave + core cor, Zval = 16.0
     Generated using "atomic" code by A. Dal Corso  v.5.1
     Shape of augmentation charge: PSQ
     Using radial grid of 1233 points,  6 beta functions with: 
                l(1) =   0
                l(2) =   0
                l(3) =   1
                l(4) =   1
                l(5) =   2
                l(6) =   2
     Q(r) pseudized with 0 coefficients 


     atomic species   valence    mass     pseudopotential
        Ru            16.00   101.07000     Ru( 1.00)

     48 Sym. Ops., with inversion, found



   Cartesian axes

     site n.     atom                  positions (alat units)
         1           Ru  tau(   1) = (   0.0000000   0.0000000   0.0000000  )
         2           Ru  tau(   2) = (   0.5000000   0.5000000   0.0000000  )
         3           Ru  tau(   3) = (   0.5000000   0.0000000   0.5000000  )
         4           Ru  tau(   4) = (   0.0000000   0.5000000   0.5000000  )
         5           Ru  tau(   5) = (   0.0000000   0.0000000   1.0000000  )
         6           Ru  tau(   6) = (   0.5000000   0.5000000   1.0000000  )
         7           Ru  tau(   7) = (   0.5000000   0.0000000   1.5000000  )
         8           Ru  tau(   8) = (   0.0000000   0.5000000   1.5000000  )
         9           Ru  tau(   9) = (   0.0000000   1.0000000   0.0000000  )
        10           Ru  tau(  10) = (   0.5000000   1.5000000   0.0000000  )
        11           Ru  tau(  11) = (   0.5000000   1.0000000   0.5000000  )
        12           Ru  tau(  12) = (   0.0000000   1.5000000   0.5000000  )
        13           Ru  tau(  13) = (   0.0000000   1.0000000   1.0000000  )
        14           Ru  tau(  14) = (   0.5000000   1.5000000   1.0000000  )
        15           Ru  tau(  15) = (   0.5000000   1.0000000   1.5000000  )
        16           Ru  tau(  16) = (   0.0000000   1.5000000   1.5000000  )
        17           Ru  tau(  17) = (   1.0000000   0.0000000   0.0000000  )
        18           Ru  tau(  18) = (   1.5000000   0.5000000   0.0000000  )
        19           Ru  tau(  19) = (   1.5000000   0.0000000   0.5000000  )
        20           Ru  tau(  20) = (   1.0000000   0.5000000   0.5000000  )
        21           Ru  tau(  21) = (   1.0000000   0.0000000   1.0000000  )
        22           Ru  tau(  22) = (   1.5000000   0.5000000   1.0000000  )
        23           Ru  tau(  23) = (   1.5000000   0.0000000   1.5000000  )
        24           Ru  tau(  24) = (   1.0000000   0.5000000   1.5000000  )
        25           Ru  tau(  25) = (   1.0000000   1.0000000   0.0000000  )
        26           Ru  tau(  26) = (   1.5000000   1.5000000   0.0000000  )
        27           Ru  tau(  27) = (   1.5000000   1.0000000   0.5000000  )
        28           Ru  tau(  28) = (   1.0000000   1.5000000   0.5000000  )
        29           Ru  tau(  29) = (   1.0000000   1.0000000   1.0000000  )
        30           Ru  tau(  30) = (   1.5000000   1.5000000   1.0000000  )
        31           Ru  tau(  31) = (   1.5000000   1.0000000   1.5000000  )
        32           Ru  tau(  32) = (   1.0000000   1.5000000   1.5000000  )

     number of k points=    35  Marzari-Vanderbilt smearing, width (Ry)=  0.0400
                       cart. coord. in units 2pi/alat
        k(    1) = (   0.0277778   0.0277778   0.0277778), wk =   0.0219479
        k(    2) = (   0.0277778   0.0277778   0.0833333), wk =   0.0658436
        k(    3) = (   0.0277778   0.0277778   0.1388889), wk =   0.0658436
        k(    4) = (   0.0277778   0.0277778   0.1944444), wk =   0.0658436
        k(    5) = (   0.0277778   0.0277778  -0.2500000), wk =   0.0329218
        k(    6) = (   0.0277778   0.0833333   0.0833333), wk =   0.0658436
        k(    7) = (   0.0277778   0.0833333   0.1388889), wk =   0.1316872
        k(    8) = (   0.0277778   0.0833333   0.1944444), wk =   0.1316872
        k(    9) = (   0.0277778   0.0833333  -0.2500000), wk =   0.0658436
        k(   10) = (   0.0277778   0.1388889   0.1388889), wk =   0.0658436
        k(   11) = (   0.0277778   0.1388889   0.1944444), wk =   0.1316872
        k(   12) = (   0.0277778   0.1388889  -0.2500000), wk =   0.0658436
        k(   13) = (   0.0277778   0.1944444   0.1944444), wk =   0.0658436
        k(   14) = (   0.0277778   0.1944444  -0.2500000), wk =   0.0658436
        k(   15) = (   0.0277778  -0.2500000  -0.2500000), wk =   0.0164609
        k(   16) = (   0.0833333   0.0833333   0.0833333), wk =   0.0219479
        k(   17) = (   0.0833333   0.0833333   0.1388889), wk =   0.0658436
        k(   18) = (   0.0833333   0.0833333   0.1944444), wk =   0.0658436
        k(   19) = (   0.0833333   0.0833333  -0.2500000), wk =   0.0329218
        k(   20) = (   0.0833333   0.1388889   0.1388889), wk =   0.0658436
        k(   21) = (   0.0833333   0.1388889   0.1944444), wk =   0.1316872
        k(   22) = (   0.0833333   0.1388889  -0.2500000), wk =   0.0658436
        k(   23) = (   0.0833333   0.1944444   0.1944444), wk =   0.0658436
        k(   24) = (   0.0833333   0.1944444  -0.2500000), wk =   0.0658436
        k(   25) = (   0.0833333  -0.2500000  -0.2500000), wk =   0.0164609
        k(   26) = (   0.1388889   0.1388889   0.1388889), wk =   0.0219479
        k(   27) = (   0.1388889   0.1388889   0.1944444), wk =   0.0658436
        k(   28) = (   0.1388889   0.1388889  -0.2500000), wk =   0.0329218
        k(   29) = (   0.1388889   0.1944444   0.1944444), wk =   0.0658436
        k(   30) = (   0.1388889   0.1944444  -0.2500000), wk =   0.0658436
        k(   31) = (   0.1388889  -0.2500000  -0.2500000), wk =   0.0164609
        k(   32) = (   0.1944444   0.1944444   0.1944444), wk =   0.0219479
        k(   33) = (   0.1944444   0.1944444  -0.2500000), wk =   0.0329218
        k(   34) = (   0.1944444  -0.2500000  -0.2500000), wk =   0.0164609
        k(   35) = (  -0.2500000  -0.2500000  -0.2500000), wk =   0.0027435

     Dense  grid:  3597007 G-vectors     FFT dimensions: ( 192, 192, 192)

     Smooth grid:  1930799 G-vectors     FFT dimensions: ( 160, 160, 160)

     Estimated max dynamical RAM per process >     841.42 MB

     Estimated total dynamical RAM >      59.16 GB

     Initial potential from superposition of free atoms

     starting charge  511.97959, renormalised to  512.00000
     Starting wfcs are  320 randomized atomic wfcs
     Checking if some PAW data can be deallocated... 

     total cpu time spent up to now is       83.1 secs

     Self-consistent Calculation

     iteration #  1     ecut=    71.00 Ry     beta= 0.10
     Davidson diagonalization with overlap
     ethr =  1.00E-02,  avg # of iterations =  2.0

     total cpu time spent up to now is      272.7 secs

     total energy              =  -13798.44709752 Ry
     estimated scf accuracy    <      19.75274370 Ry

     iteration #  2     ecut=    71.00 Ry     beta= 0.10
     Davidson diagonalization with overlap
     ethr =  3.86E-03,  avg # of iterations =  1.0

     total cpu time spent up to now is      443.1 secs

     total energy              =  -13793.28145861 Ry
     estimated scf accuracy    <      15.24767233 Ry

     iteration #  3     ecut=    71.00 Ry     beta= 0.10
     Davidson diagonalization with overlap
     ethr =  2.98E-03,  avg # of iterations =  2.0

     total cpu time spent up to now is      657.0 secs

     total energy              =  -13794.90101977 Ry
     estimated scf accuracy    <      16.26981798 Ry

     iteration #  4     ecut=    71.00 Ry     beta= 0.10
     Davidson diagonalization with overlap
     ethr =  2.98E-03,  avg # of iterations =  1.0

     total cpu time spent up to now is      813.9 secs

     total energy              =  -13795.17756842 Ry
     estimated scf accuracy    <       9.68541455 Ry

     iteration #  5     ecut=    71.00 Ry     beta= 0.10
     Davidson diagonalization with overlap
     ethr =  1.89E-03,  avg # of iterations =  1.0

     total cpu time spent up to now is      968.9 secs

     total energy              =  -13794.17148138 Ry
     estimated scf accuracy    <       2.40234232 Ry

     iteration #  6     ecut=    71.00 Ry     beta= 0.10
     Davidson diagonalization with overlap
     ethr =  4.69E-04,  avg # of iterations =  2.0

     total cpu time spent up to now is     1190.3 secs

     total energy              =  -13796.17426314 Ry
     estimated scf accuracy    <      13.77713235 Ry

     iteration #  7     ecut=    71.00 Ry     beta= 0.10
     Davidson diagonalization with overlap
     ethr =  4.69E-04,  avg # of iterations =  1.0

     total cpu time spent up to now is     1349.7 secs

     total energy              =  -13795.38083233 Ry
     estimated scf accuracy    <      14.10498892 Ry

     iteration #  8     ecut=    71.00 Ry     beta= 0.10
     Davidson diagonalization with overlap
     ethr =  4.69E-04,  avg # of iterations =  1.0

     total cpu time spent up to now is     1505.5 secs

     total energy              =  -13795.30941354 Ry
     estimated scf accuracy    <       4.47859032 Ry

     iteration #  9     ecut=    71.00 Ry     beta= 0.10
     Davidson diagonalization with overlap
     ethr =  4.69E-04,  avg # of iterations =  1.0

     total cpu time spent up to now is     1659.8 secs

     total energy              =  -13795.26566570 Ry
     estimated scf accuracy    <       3.91075117 Ry

     iteration # 10     ecut=    71.00 Ry     beta= 0.10
     Davidson diagonalization with overlap
     ethr =  4.69E-04,  avg # of iterations =  1.0

     total cpu time spent up to now is     1813.8 secs

     total energy              =  -13795.19288181 Ry
     estimated scf accuracy    <       5.74238437 Ry

     iteration # 11     ecut=    71.00 Ry     beta= 0.10
     Davidson diagonalization with overlap
     ethr =  4.69E-04,  avg # of iterations =  1.0

     total cpu time spent up to now is     1969.0 secs

     total energy              =  -13795.12800777 Ry
     estimated scf accuracy    <       3.36900077 Ry

     iteration # 12     ecut=    71.00 Ry     beta= 0.10
     Davidson diagonalization with overlap
     ethr =  4.69E-04,  avg # of iterations =  1.0

     total cpu time spent up to now is     2120.9 secs

     total energy              =  -13794.86420684 Ry
     estimated scf accuracy    <       2.87330746 Ry

     iteration # 13     ecut=    71.00 Ry     beta= 0.10
     Davidson diagonalization with overlap
     ethr =  4.69E-04,  avg # of iterations =  1.0

     total cpu time spent up to now is     2276.9 secs

     total energy              =  -13794.86108546 Ry
     estimated scf accuracy    <       1.31985676 Ry

     iteration # 14     ecut=    71.00 Ry     beta= 0.10
     Davidson diagonalization with overlap
     ethr =  2.58E-04,  avg # of iterations =  1.1

     total cpu time spent up to now is     2437.4 secs

     total energy              =  -13794.88140108 Ry
     estimated scf accuracy    <       0.36726551 Ry

     iteration # 15     ecut=    71.00 Ry     beta= 0.10
     Davidson diagonalization with overlap
     ethr =  7.17E-05,  avg # of iterations =  3.5

     total cpu time spent up to now is     2627.8 secs

     total energy              =  -13794.88734560 Ry
     estimated scf accuracy    <       0.00223331 Ry

     iteration # 16     ecut=    71.00 Ry     beta= 0.10
     Davidson diagonalization with overlap
     c_bands:  1 eigenvalues not converged
     c_bands:  1 eigenvalues not converged
     c_bands:  1 eigenvalues not converged
     c_bands:  1 eigenvalues not converged
     c_bands:  4 eigenvalues not converged
     ethr =  4.36E-07,  avg # of iterations = 14.8

     total cpu time spent up to now is     3010.7 secs

     total energy              =  -13794.89236114 Ry
     estimated scf accuracy    <       0.00731927 Ry

     iteration # 17     ecut=    71.00 Ry     beta= 0.10
     Davidson diagonalization with overlap
     ethr =  4.36E-07,  avg # of iterations = 10.9

     total cpu time spent up to now is     3434.6 secs

     total energy              =  -13794.98338246 Ry
     estimated scf accuracy    <       0.46781197 Ry

     iteration # 18     ecut=    71.00 Ry     beta= 0.10
     Davidson diagonalization with overlap
     ethr =  4.36E-07,  avg # of iterations =  6.1

     total cpu time spent up to now is     3688.8 secs

     total energy              =  -13794.88135400 Ry
     estimated scf accuracy    <       0.66887272 Ry

     iteration # 19     ecut=    71.00 Ry     beta= 0.10
     Davidson diagonalization with overlap
     ethr =  4.36E-07,  avg # of iterations =  7.5

     total cpu time spent up to now is     4055.3 secs

     total energy              =  -13794.88506784 Ry
     estimated scf accuracy    <       0.10721010 Ry

     iteration # 20     ecut=    71.00 Ry     beta= 0.10
     Davidson diagonalization with overlap
     ethr =  4.36E-07,  avg # of iterations =  8.6

     total cpu time spent up to now is     4383.9 secs

     total energy              =  -13794.89671143 Ry
     estimated scf accuracy    <       0.00093081 Ry

     iteration # 21     ecut=    71.00 Ry     beta= 0.10
     Davidson diagonalization with overlap
     ethr =  1.82E-07,  avg # of iterations =  4.5

     total cpu time spent up to now is     4597.9 secs

     total energy              =  -13794.89814139 Ry
     estimated scf accuracy    <       0.01020865 Ry

     iteration # 22     ecut=    71.00 Ry     beta= 0.10
     Davidson diagonalization with overlap
     ethr =  1.82E-07,  avg # of iterations =  7.0

     total cpu time spent up to now is     4851.9 secs

     total energy              =  -13794.89720534 Ry
     estimated scf accuracy    <       0.01812095 Ry

     iteration # 23     ecut=    71.00 Ry     beta= 0.10
     Davidson diagonalization with overlap
     ethr =  1.82E-07,  avg # of iterations =  4.4

     total cpu time spent up to now is     5074.3 secs

     total energy              =  -13794.89587282 Ry
     estimated scf accuracy    <       0.00732313 Ry

     iteration # 24     ecut=    71.00 Ry     beta= 0.10
     Davidson diagonalization with overlap
     ethr =  1.82E-07,  avg # of iterations =  6.1

     total cpu time spent up to now is     5325.0 secs

     total energy              =  -13794.89662096 Ry
     estimated scf accuracy    <       0.00018569 Ry

     iteration # 25     ecut=    71.00 Ry     beta= 0.10
     Davidson diagonalization with overlap
     ethr =  3.63E-08,  avg # of iterations =  2.3

     total cpu time spent up to now is     5517.1 secs

     total energy              =  -13794.89664225 Ry
     estimated scf accuracy    <       0.00005064 Ry

     iteration # 26     ecut=    71.00 Ry     beta= 0.10
     Davidson diagonalization with overlap
     ethr =  9.89E-09,  avg # of iterations =  2.6

     total cpu time spent up to now is     5710.6 secs

     total energy              =  -13794.89672653 Ry
     estimated scf accuracy    <       0.00009434 Ry

     iteration # 27     ecut=    71.00 Ry     beta= 0.10
     Davidson diagonalization with overlap
     ethr =  9.89E-09,  avg # of iterations =  4.1

     total cpu time spent up to now is     5920.2 secs

     total energy              =  -13794.89671975 Ry
     estimated scf accuracy    <       0.00017087 Ry

     iteration # 28     ecut=    71.00 Ry     beta= 0.10
     Davidson diagonalization with overlap
     ethr =  9.89E-09,  avg # of iterations =  2.2

     total cpu time spent up to now is     6149.5 secs

     total energy              =  -13794.89672983 Ry
     estimated scf accuracy    <       0.00001778 Ry

     iteration # 29     ecut=    71.00 Ry     beta= 0.10
     Davidson diagonalization with overlap
     ethr =  3.47E-09,  avg # of iterations =  6.3

     total cpu time spent up to now is     6459.4 secs

     total energy              =  -13794.89673064 Ry
     estimated scf accuracy    <       0.00016322 Ry

     iteration # 30     ecut=    71.00 Ry     beta= 0.10
     Davidson diagonalization with overlap
     ethr =  3.47E-09,  avg # of iterations =  5.8

     total cpu time spent up to now is     6702.2 secs

     total energy              =  -13794.89675243 Ry
     estimated scf accuracy    <       0.00000475 Ry

     iteration # 31     ecut=    71.00 Ry     beta= 0.10
     Davidson diagonalization with overlap
     ethr =  9.29E-10,  avg # of iterations =  2.1

     total cpu time spent up to now is     6902.0 secs

     total energy              =  -13794.89676258 Ry
     estimated scf accuracy    <       0.00000232 Ry

     iteration # 32     ecut=    71.00 Ry     beta= 0.10
     Davidson diagonalization with overlap
     c_bands:  1 eigenvalues not converged
     ethr =  4.53E-10,  avg # of iterations = 10.1

     total cpu time spent up to now is     7222.0 secs

     total energy              =  -13794.89676179 Ry
     estimated scf accuracy    <       0.00001556 Ry

     iteration # 33     ecut=    71.00 Ry     beta= 0.10
     Davidson diagonalization with overlap
     ethr =  4.53E-10,  avg # of iterations =  7.8

     total cpu time spent up to now is     7474.1 secs

     total energy              =  -13794.89676343 Ry
     estimated scf accuracy    <       0.00000327 Ry

     iteration # 34     ecut=    71.00 Ry     beta= 0.10
     Davidson diagonalization with overlap
     ethr =  4.53E-10,  avg # of iterations =  2.0

     total cpu time spent up to now is     7676.7 secs

     total energy              =  -13794.89676315 Ry
     estimated scf accuracy    <       0.00000229 Ry

     iteration # 35     ecut=    71.00 Ry     beta= 0.10
     Davidson diagonalization with overlap
     ethr =  4.46E-10,  avg # of iterations =  1.2

     total cpu time spent up to now is     7840.5 secs

     total energy              =  -13794.89676333 Ry
     estimated scf accuracy    <       0.00000242 Ry

     iteration # 36     ecut=    71.00 Ry     beta= 0.10
     Davidson diagonalization with overlap
     ethr =  4.46E-10,  avg # of iterations =  1.0

     total cpu time spent up to now is     7995.5 secs

     total energy              =  -13794.89676417 Ry
     estimated scf accuracy    <       0.00000172 Ry

     iteration # 37     ecut=    71.00 Ry     beta= 0.10
     Davidson diagonalization with overlap
     ethr =  3.36E-10,  avg # of iterations =  2.6

     total cpu time spent up to now is     8177.9 secs

     End of self-consistent calculation

          k = 0.0278 0.0278 0.0278 (241425 PWs)   bands (ev):

   -71.8049 -71.8049 -71.8049 -71.8049 -71.8049 -71.8049 -71.8049 -71.8049
   -71.8049 -71.8049 -71.8049 -71.8049 -71.8049 -71.8049 -71.8049 -71.8049
   -71.8048 -71.8048 -71.8048 -71.8048 -71.8048 -71.8048 -71.8048 -71.8048
   -71.8048 -71.8048 -71.8048 -71.8048 -71.8048 -71.8048 -71.8048 -71.8047
   -41.8946 -41.8946 -41.8945 -41.8945 -41.8945 -41.8945 -41.8945 -41.8945
   -41.8945 -41.8945 -41.8945 -41.8945 -41.8945 -41.8945 -41.8945 -41.8945
   -41.8945 -41.8945 -41.8945 -41.8945 -41.8945 -41.8945 -41.8945 -41.8945
   -41.8945 -41.8945 -41.8945 -41.8945 -41.8945 -41.8945 -41.8945 -41.8945
   -41.8945 -41.8945 -41.8945 -41.8945 -41.8945 -41.8945 -41.8945 -41.8945
   -41.8945 -41.8945 -41.8945 -41.8945 -41.8945 -41.8945 -41.8945 -41.8945
   -41.8945 -41.8945 -41.8945 -41.8945 -41.8945 -41.8945 -41.8945 -41.8945
   -41.8945 -41.8945 -41.8945 -41.8945 -41.8945 -41.8945 -41.8945 -41.8945
   -41.8945 -41.8945 -41.8945 -41.8945 -41.8945 -41.8945 -41.8945 -41.8945
   -41.8945 -41.8945 -41.8945 -41.8945 -41.8945 -41.8944 -41.8944 -41.8944
   -41.8944 -41.8944 -41.8944 -41.8944 -41.8944 -41.8944 -41.8944 -41.8944
   -41.8944 -41.8944 -41.8944 -41.8944 -41.8944 -41.8944 -41.8944 -41.8944
    -1.5654  -1.0916  -1.0916  -1.0916  -1.0708  -1.0689  -1.0689  -1.0689
    -1.0347  -1.0347  -1.0347  -1.0267  -1.0267  -1.0267  -1.0220  -1.0220
    -1.0220  -0.9827  -0.9827  -0.9827  -0.9796  -0.9796  -0.9796  -0.9764
    -0.9764  -0.9764  -0.9752  -0.9752  -0.9752  -0.9752  -0.9752  -0.9752
    -0.9752  -0.9752  -0.9752  -0.9604  -0.9604  -0.9604  -0.9604  -0.9604
    -0.9604  -0.9389  -0.9389  -0.9389  -0.9384  -0.9384  -0.9384  -0.9384
    -0.9384  -0.9383  -0.9366  -0.9366  -0.9366  -0.9366  -0.9366  -0.9366
    -0.9361  -0.9354  -0.9354  -0.9349  -0.9349  -0.9349  -0.9343  -0.9343
    -0.9337  -0.9337  -0.9337  -0.9310  -0.9310  -0.9310  -0.9204  -0.9204
    -0.9204  -0.9204  -0.9204  -0.9204  -0.9004  -0.9004  -0.9004  -0.9004
    -0.9004  -0.9004  -0.8942  -0.8942  -0.8942  -0.8927  -0.8927  -0.8927
    -0.8918  -0.8918  -0.8918  -0.8876  -0.8876  -0.8876  -0.8865  -0.8865
    -0.8865  -0.8830  -0.8830  -0.8830  -0.8830  -0.8830  -0.8830  -0.8820
    -0.8820  -0.8820  -0.8741  -0.8741  -0.8735  -0.8735  -0.8735  -0.8719
    -0.8719  -0.8719  -0.8711  -0.8711  -0.8711  -0.8664  -0.8664  -0.8664
    -0.8664  -0.8664  -0.8664  -0.8653  -0.8653  -0.8653  -0.8653  -0.8653
    -0.8653  -0.8611  -0.8611  -0.8611  -0.8559  -0.8559  -0.8559  -0.8511
    -0.8511  -0.8511  -0.8465  -0.8465  -0.8465  -0.8253  -0.8253  -0.8253
    -0.8224  -0.8224  -0.8224  -0.8216  -0.8216  -0.8209  -0.8209  -0.8209
    -0.8084  -0.8084  -0.8084  -0.8078  -0.8078  -0.8078  -0.8078  -0.8078
    -0.8078  -0.8077  -0.8077  -0.8077  -0.7949  -0.7949  -0.7949  -0.4643
    -0.4643  -0.4642  -0.3687  -0.3687  -0.3687  -0.3687  -0.3687  -0.3687
    -0.2778  -0.2778  -0.2778

          k = 0.0278 0.0278 0.0833 (241426 PWs)   bands (ev):

   -71.8049 -71.8049 -71.8049 -71.8049 -71.8049 -71.8049 -71.8049 -71.8049
   -71.8049 -71.8049 -71.8049 -71.8049 -71.8049 -71.8049 -71.8049 -71.8049
   -71.8049 -71.8048 -71.8048 -71.8048 -71.8048 -71.8048 -71.8048 -71.8048
   -71.8048 -71.8048 -71.8048 -71.8048 -71.8048 -71.8048 -71.8048 -71.8047
   -41.8945 -41.8945 -41.8945 -41.8945 -41.8945 -41.8945 -41.8945 -41.8945
   -41.8945 -41.8945 -41.8945 -41.8945 -41.8945 -41.8945 -41.8945 -41.8945
   -41.8945 -41.8945 -41.8945 -41.8945 -41.8945 -41.8945 -41.8945 -41.8945
   -41.8945 -41.8945 -41.8945 -41.8945 -41.8945 -41.8945 -41.8945 -41.8945
   -41.8945 -41.8945 -41.8945 -41.8945 -41.8945 -41.8945 -41.8945 -41.8945
   -41.8945 -41.8945 -41.8945 -41.8945 -41.8945 -41.8945 -41.8945 -41.8945
   -41.8945 -41.8945 -41.8945 -41.8945 -41.8945 -41.8945 -41.8945 -41.8945
   -41.8945 -41.8945 -41.8945 -41.8945 -41.8945 -41.8945 -41.8945 -41.8945
   -41.8945 -41.8945 -41.8945 -41.8945 -41.8945 -41.8945 -41.8945 -41.8945
   -41.8945 -41.8945 -41.8945 -41.8945 -41.8945 -41.8945 -41.8945 -41.8944
   -41.8944 -41.8944 -41.8944 -41.8944 -41.8944 -41.8944 -41.8944 -41.8944
   -41.8944 -41.8944 -41.8944 -41.8944 -41.8944 -41.8944 -41.8944 -41.8944
    -1.5506  -1.1758  -1.0835  -1.0835  -1.0690  -1.0653  -1.0653  -1.0635
    -1.0290  -1.0290  -1.0252  -1.0239  -1.0239  -1.0206  -1.0191  -1.0191
    -1.0121  -0.9922  -0.9901  -0.9857  -0.9857  -0.9851  -0.9851  -0.9841
    -0.9809  -0.9809  -0.9766  -0.9766  -0.9737  -0.9737  -0.9736  -0.9736
    -0.9708  -0.9708  -0.9678  -0.9668  -0.9668  -0.9617  -0.9617  -0.9595
    -0.9595  -0.9547  -0.9547  -0.9430  -0.9430  -0.9426  -0.9426  -0.9385
    -0.9385  -0.9378  -0.9378  -0.9374  -0.9372  -0.9371  -0.9371  -0.9358
    -0.9358  -0.9357  -0.9353  -0.9352  -0.9351  -0.9340  -0.9338  -0.9337
    -0.9332  -0.9320  -0.9320  -0.9315  -0.9269  -0.9269  -0.9220  -0.9220
    -0.9200  -0.9200  -0.9123  -0.9123  -0.9078  -0.9078  -0.9045  -0.9045
    -0.9018  -0.9018  -0.8986  -0.8986  -0.8986  -0.8979  -0.8979  -0.8977
    -0.8977  -0.8966  -0.8934  -0.8925  -0.8867  -0.8867  -0.8856  -0.8856
    -0.8836  -0.8826  -0.8826  -0.8824  -0.8822  -0.8822  -0.8809  -0.8809
    -0.8795  -0.8774  -0.8774  -0.8754  -0.8754  -0.8754  -0.8750  -0.8750
    -0.8733  -0.8718  -0.8718  -0.8664  -0.8664  -0.8661  -0.8661  -0.8653
    -0.8653  -0.8649  -0.8622  -0.8622  -0.8611  -0.8602  -0.8582  -0.8582
    -0.8569  -0.8569  -0.8555  -0.8555  -0.8547  -0.8547  -0.8530  -0.8530
    -0.8456  -0.8456  -0.8420  -0.8366  -0.8366  -0.8270  -0.8270  -0.8261
    -0.8255  -0.8255  -0.8251  -0.8240  -0.8230  -0.8218  -0.8215  -0.8215
    -0.8125  -0.8125  -0.8106  -0.8103  -0.8103  -0.8102  -0.8102  -0.8098
    -0.8078  -0.8078  -0.8078  -0.8078  -0.7762  -0.7762  -0.6873  -0.5506
    -0.5506  -0.4536  -0.4535  -0.4520  -0.3570  -0.3570  -0.2674  -0.2668
    -0.2668  -0.1980  -0.1834

          k = 0.0278 0.0278 0.1389 (241354 PWs)   bands (ev):

   -71.8049 -71.8049 -71.8049 -71.8049 -71.8049 -71.8049 -71.8049 -71.8049
   -71.8049 -71.8049 -71.8049 -71.8049 -71.8049 -71.8049 -71.8049 -71.8049
   -71.8048 -71.8048 -71.8048 -71.8048 -71.8048 -71.8048 -71.8048 -71.8048
   -71.8048 -71.8048 -71.8048 -71.8048 -71.8048 -71.8048 -71.8048 -71.8047
   -41.8945 -41.8945 -41.8945 -41.8945 -41.8945 -41.8945 -41.8945 -41.8945
   -41.8945 -41.8945 -41.8945 -41.8945 -41.8945 -41.8945 -41.8945 -41.8945
   -41.8945 -41.8945 -41.8945 -41.8945 -41.8945 -41.8945 -41.8945 -41.8945
   -41.8945 -41.8945 -41.8945 -41.8945 -41.8945 -41.8945 -41.8945 -41.8945
   -41.8945 -41.8945 -41.8945 -41.8945 -41.8945 -41.8945 -41.8945 -41.8945
   -41.8945 -41.8945 -41.8945 -41.8945 -41.8945 -41.8945 -41.8945 -41.8945
   -41.8945 -41.8945 -41.8945 -41.8945 -41.8945 -41.8945 -41.8945 -41.8945
   -41.8945 -41.8945 -41.8945 -41.8945 -41.8945 -41.8945 -41.8945 -41.8945
   -41.8945 -41.8945 -41.8945 -41.8945 -41.8945 -41.8945 -41.8945 -41.8945
   -41.8945 -41.8945 -41.8944 -41.8944 -41.8944 -41.8944 -41.8944 -41.8944
   -41.8944 -41.8944 -41.8944 -41.8944 -41.8944 -41.8944 -41.8944 -41.8944
   -41.8944 -41.8944 -41.8944 -41.8944 -41.8944 -41.8944 -41.8944 -41.8944
    -1.5209  -1.2650  -1.0683  -1.0683  -1.0636  -1.0581  -1.0581  -1.0547
    -1.0222  -1.0185  -1.0185  -1.0184  -1.0184  -1.0181  -1.0135  -1.0135
    -1.0095  -1.0074  -1.0016  -1.0016  -0.9974  -0.9972  -0.9937  -0.9937
    -0.9775  -0.9775  -0.9771  -0.9771  -0.9755  -0.9755  -0.9742  -0.9742
    -0.9703  -0.9703  -0.9692  -0.9692  -0.9663  -0.9663  -0.9641  -0.9641
    -0.9607  -0.9580  -0.9580  -0.9487  -0.9487  -0.9473  -0.9473  -0.9398
    -0.9388  -0.9388  -0.9381  -0.9381  -0.9379  -0.9367  -0.9363  -0.9363
    -0.9362  -0.9358  -0.9358  -0.9346  -0.9346  -0.9340  -0.9306  -0.9304
    -0.9304  -0.9287  -0.9287  -0.9278  -0.9248  -0.9248  -0.9240  -0.9240
    -0.9238  -0.9238  -0.9191  -0.9191  -0.9153  -0.9153  -0.9145  -0.9145
    -0.9091  -0.9091  -0.9065  -0.9057  -0.9057  -0.9036  -0.9034  -0.9034
    -0.9023  -0.9011  -0.9007  -0.9007  -0.8878  -0.8842  -0.8842  -0.8831
    -0.8831  -0.8830  -0.8830  -0.8778  -0.8747  -0.8747  -0.8746  -0.8746
    -0.8736  -0.8736  -0.8722  -0.8722  -0.8718  -0.8710  -0.8710  -0.8692
    -0.8689  -0.8689  -0.8687  -0.8659  -0.8659  -0.8639  -0.8639  -0.8636
    -0.8635  -0.8596  -0.8564  -0.8554  -0.8554  -0.8553  -0.8553  -0.8499
    -0.8497  -0.8497  -0.8496  -0.8481  -0.8478  -0.8478  -0.8468  -0.8468
    -0.8468  -0.8468  -0.8373  -0.8306  -0.8306  -0.8305  -0.8305  -0.8299
    -0.8280  -0.8278  -0.8266  -0.8244  -0.8240  -0.8240  -0.8206  -0.8206
    -0.8150  -0.8150  -0.8150  -0.8149  -0.8149  -0.8139  -0.8112  -0.8112
    -0.8079  -0.8078  -0.8078  -0.8078  -0.7452  -0.7452  -0.6256  -0.6256
    -0.5510  -0.5304  -0.5304  -0.4279  -0.3344  -0.3344  -0.2477  -0.2466
    -0.1831  -0.1831  -0.1621

          k = 0.0278 0.0278 0.1944 (241338 PWs)   bands (ev):

   -71.8049 -71.8049 -71.8049 -71.8049 -71.8049 -71.8049 -71.8049 -71.8049
   -71.8049 -71.8049 -71.8049 -71.8049 -71.8049 -71.8049 -71.8049 -71.8049
   -71.8048 -71.8048 -71.8048 -71.8048 -71.8048 -71.8048 -71.8048 -71.8048
   -71.8048 -71.8048 -71.8048 -71.8048 -71.8048 -71.8048 -71.8048 -71.8047
   -41.8945 -41.8945 -41.8945 -41.8945 -41.8945 -41.8945 -41.8945 -41.8945
   -41.8945 -41.8945 -41.8945 -41.8945 -41.8945 -41.8945 -41.8945 -41.8945
   -41.8945 -41.8945 -41.8945 -41.8945 -41.8945 -41.8945 -41.8945 -41.8945
   -41.8945 -41.8945 -41.8945 -41.8945 -41.8945 -41.8945 -41.8945 -41.8945
   -41.8945 -41.8945 -41.8945 -41.8945 -41.8945 -41.8945 -41.8945 -41.8945
   -41.8945 -41.8945 -41.8945 -41.8945 -41.8945 -41.8945 -41.8945 -41.8945
   -41.8945 -41.8945 -41.8945 -41.8945 -41.8945 -41.8945 -41.8945 -41.8945
   -41.8945 -41.8945 -41.8945 -41.8945 -41.8945 -41.8945 -41.8945 -41.8945
   -41.8945 -41.8945 -41.8945 -41.8945 -41.8945 -41.8945 -41.8945 -41.8945
   -41.8945 -41.8944 -41.8944 -41.8944 -41.8944 -41.8944 -41.8944 -41.8944
   -41.8944 -41.8944 -41.8944 -41.8944 -41.8944 -41.8944 -41.8944 -41.8944
   -41.8944 -41.8944 -41.8944 -41.8944 -41.8944 -41.8944 -41.8944 -41.8944
    -1.4768  -1.3474  -1.0545  -1.0483  -1.0483  -1.0476  -1.0476  -1.0430
    -1.0268  -1.0185  -1.0185  -1.0182  -1.0143  -1.0132  -1.0108  -1.0108
    -1.0093  -1.0075  -1.0075  -1.0051  -1.0051  -1.0049  -1.0049  -1.0037
    -0.9897  -0.9897  -0.9824  -0.9824  -0.9799  -0.9799  -0.9734  -0.9734
    -0.9713  -0.9713  -0.9672  -0.9672  -0.9655  -0.9655  -0.9618  -0.9618
    -0.9571  -0.9571  -0.9549  -0.9549  -0.9542  -0.9531  -0.9531  -0.9435
    -0.9394  -0.9394  -0.9388  -0.9378  -0.9378  -0.9377  -0.9377  -0.9377
    -0.9365  -0.9365  -0.9353  -0.9342  -0.9310  -0.9310  -0.9293  -0.9293
    -0.9264  -0.9254  -0.9254  -0.9249  -0.9249  -0.9247  -0.9247  -0.9240
    -0.9240  -0.9227  -0.9221  -0.9221  -0.9199  -0.9199  -0.9179  -0.9179
    -0.9177  -0.9177  -0.9144  -0.9144  -0.9141  -0.9118  -0.9118  -0.9113
    -0.9112  -0.9109  -0.9109  -0.9090  -0.8879  -0.8840  -0.8840  -0.8835
    -0.8835  -0.8811  -0.8738  -0.8738  -0.8727  -0.8727  -0.8702  -0.8702
    -0.8696  -0.8685  -0.8685  -0.8662  -0.8662  -0.8650  -0.8650  -0.8649
    -0.8649  -0.8634  -0.8628  -0.8628  -0.8588  -0.8588  -0.8586  -0.8586
    -0.8583  -0.8583  -0.8566  -0.8542  -0.8497  -0.8497  -0.8480  -0.8478
    -0.8478  -0.8415  -0.8415  -0.8410  -0.8407  -0.8389  -0.8385  -0.8385
    -0.8381  -0.8381  -0.8377  -0.8377  -0.8367  -0.8363  -0.8363  -0.8335
    -0.8329  -0.8323  -0.8314  -0.8314  -0.8305  -0.8285  -0.8283  -0.8283
    -0.8215  -0.8215  -0.8214  -0.8214  -0.8214  -0.8196  -0.8079  -0.8078
    -0.8078  -0.8078  -0.7792  -0.7792  -0.7052  -0.7052  -0.6883  -0.6883
    -0.5981  -0.5981  -0.3993  -0.3929  -0.3025  -0.3025  -0.2987  -0.2224
    -0.2224  -0.2210  -0.1609

          k = 0.0278 0.0278-0.2500 (241376 PWs)   bands (ev):

   -71.8049 -71.8049 -71.8049 -71.8049 -71.8049 -71.8049 -71.8049 -71.8049
   -71.8049 -71.8049 -71.8049 -71.8049 -71.8049 -71.8049 -71.8049 -71.8049
   -71.8048 -71.8048 -71.8048 -71.8048 -71.8048 -71.8048 -71.8048 -71.8048
   -71.8048 -71.8048 -71.8048 -71.8048 -71.8048 -71.8048 -71.8048 -71.8047
   -41.8945 -41.8945 -41.8945 -41.8945 -41.8945 -41.8945 -41.8945 -41.8945
   -41.8945 -41.8945 -41.8945 -41.8945 -41.8945 -41.8945 -41.8945 -41.8945
   -41.8945 -41.8945 -41.8945 -41.8945 -41.8945 -41.8945 -41.8945 -41.8945
   -41.8945 -41.8945 -41.8945 -41.8945 -41.8945 -41.8945 -41.8945 -41.8945
   -41.8945 -41.8945 -41.8945 -41.8945 -41.8945 -41.8945 -41.8945 -41.8945
   -41.8945 -41.8945 -41.8945 -41.8945 -41.8945 -41.8945 -41.8945 -41.8945
   -41.8945 -41.8945 -41.8945 -41.8945 -41.8945 -41.8945 -41.8945 -41.8945
   -41.8945 -41.8945 -41.8945 -41.8945 -41.8945 -41.8945 -41.8945 -41.8945
   -41.8945 -41.8945 -41.8945 -41.8945 -41.8945 -41.8945 -41.8945 -41.8945
   -41.8945 -41.8945 -41.8945 -41.8944 -41.8944 -41.8944 -41.8944 -41.8944
   -41.8944 -41.8944 -41.8944 -41.8944 -41.8944 -41.8944 -41.8944 -41.8944
   -41.8944 -41.8944 -41.8944 -41.8944 -41.8944 -41.8944 -41.8944 -41.8944
    -1.4186  -1.4186  -1.0421  -1.0421  -1.0342  -1.0342  -1.0342  -1.0342
    -1.0289  -1.0289  -1.0267  -1.0267  -1.0267  -1.0267  -1.0135  -1.0135
    -1.0095  -1.0095  -1.0011  -1.0011  -1.0011  -1.0011  -0.9945  -0.9945
    -0.9945  -0.9945  -0.9909  -0.9909  -0.9909  -0.9909  -0.9704  -0.9704
    -0.9704  -0.9704  -0.9636  -0.9636  -0.9636  -0.9636  -0.9595  -0.9595
    -0.9595  -0.9595  -0.9584  -0.9584  -0.9584  -0.9584  -0.9484  -0.9484
    -0.9391  -0.9391  -0.9391  -0.9391  -0.9385  -0.9385  -0.9372  -0.9372
    -0.9372  -0.9372  -0.9347  -0.9347  -0.9272  -0.9272  -0.9272  -0.9272
    -0.9248  -0.9248  -0.9248  -0.9248  -0.9234  -0.9234  -0.9234  -0.9234
    -0.9225  -0.9225  -0.9225  -0.9225  -0.9209  -0.9209  -0.9190  -0.9190
    -0.9189  -0.9189  -0.9180  -0.9180  -0.9179  -0.9179  -0.9163  -0.9163
    -0.9158  -0.9158  -0.9158  -0.9158  -0.8848  -0.8848  -0.8839  -0.8839
    -0.8839  -0.8839  -0.8732  -0.8732  -0.8732  -0.8732  -0.8675  -0.8675
    -0.8675  -0.8675  -0.8668  -0.8668  -0.8633  -0.8633  -0.8633  -0.8633
    -0.8630  -0.8630  -0.8630  -0.8630  -0.8538  -0.8538  -0.8538  -0.8538
    -0.8485  -0.8485  -0.8485  -0.8485  -0.8470  -0.8470  -0.8470  -0.8470
    -0.8456  -0.8456  -0.8421  -0.8421  -0.8402  -0.8402  -0.8402  -0.8402
    -0.8402  -0.8402  -0.8346  -0.8345  -0.8342  -0.8342  -0.8342  -0.8342
    -0.8340  -0.8340  -0.8295  -0.8295  -0.8295  -0.8295  -0.8295  -0.8295
    -0.8295  -0.8295  -0.8294  -0.8294  -0.8262  -0.8262  -0.8079  -0.8078
    -0.8078  -0.8078  -0.7390  -0.7390  -0.7390  -0.7390  -0.6563  -0.6563
    -0.6563  -0.6563  -0.3489  -0.3488  -0.2639  -0.2639  -0.2639  -0.2639
    -0.2401  -0.2401  -0.1904

          k = 0.0278 0.0833 0.0833 (241402 PWs)   bands (ev):

   -71.8049 -71.8049 -71.8049 -71.8049 -71.8049 -71.8049 -71.8049 -71.8049
   -71.8049 -71.8049 -71.8049 -71.8049 -71.8049 -71.8049 -71.8049 -71.8049
   -71.8049 -71.8048 -71.8048 -71.8048 -71.8048 -71.8048 -71.8048 -71.8048
   -71.8048 -71.8048 -71.8048 -71.8048 -71.8048 -71.8048 -71.8048 -71.8047
   -41.8945 -41.8945 -41.8945 -41.8945 -41.8945 -41.8945 -41.8945 -41.8945
   -41.8945 -41.8945 -41.8945 -41.8945 -41.8945 -41.8945 -41.8945 -41.8945
   -41.8945 -41.8945 -41.8945 -41.8945 -41.8945 -41.8945 -41.8945 -41.8945
   -41.8945 -41.8945 -41.8945 -41.8945 -41.8945 -41.8945 -41.8945 -41.8945
   -41.8945 -41.8945 -41.8945 -41.8945 -41.8945 -41.8945 -41.8945 -41.8945
   -41.8945 -41.8945 -41.8945 -41.8945 -41.8945 -41.8945 -41.8945 -41.8945
   -41.8945 -41.8945 -41.8945 -41.8945 -41.8945 -41.8945 -41.8945 -41.8945
   -41.8945 -41.8945 -41.8945 -41.8945 -41.8945 -41.8945 -41.8945 -41.8945
   -41.8945 -41.8945 -41.8945 -41.8945 -41.8945 -41.8945 -41.8945 -41.8945
   -41.8945 -41.8945 -41.8945 -41.8945 -41.8945 -41.8945 -41.8944 -41.8944
   -41.8944 -41.8944 -41.8944 -41.8944 -41.8944 -41.8944 -41.8944 -41.8944
   -41.8944 -41.8944 -41.8944 -41.8944 -41.8944 -41.8944 -41.8944 -41.8944
    -1.5358  -1.1653  -1.1653  -1.0768  -1.0693  -1.0635  -1.0583  -1.0583
    -1.0254  -1.0228  -1.0223  -1.0223  -1.0178  -1.0178  -1.0147  -1.0078
    -1.0078  -1.0003  -0.9994  -0.9994  -0.9880  -0.9880  -0.9879  -0.9878
    -0.9820  -0.9820  -0.9805  -0.9794  -0.9794  -0.9775  -0.9711  -0.9711
    -0.9708  -0.9663  -0.9663  -0.9652  -0.9652  -0.9644  -0.9644  -0.9605
    -0.9605  -0.9541  -0.9541  -0.9489  -0.9489  -0.9444  -0.9444  -0.9435
    -0.9399  -0.9399  -0.9398  -0.9398  -0.9394  -0.9394  -0.9379  -0.9379
    -0.9373  -0.9367  -0.9367  -0.9353  -0.9337  -0.9336  -0.9336  -0.9332
    -0.9322  -0.9321  -0.9305  -0.9291  -0.9291  -0.9200  -0.9200  -0.9194
    -0.9190  -0.9190  -0.9057  -0.9057  -0.9054  -0.9054  -0.9044  -0.9044
    -0.9031  -0.9021  -0.9021  -0.9019  -0.9019  -0.9001  -0.9000  -0.9000
    -0.8975  -0.8944  -0.8930  -0.8930  -0.8923  -0.8923  -0.8915  -0.8875
    -0.8875  -0.8871  -0.8833  -0.8833  -0.8824  -0.8824  -0.8822  -0.8812
    -0.8791  -0.8791  -0.8777  -0.8756  -0.8735  -0.8722  -0.8722  -0.8705
    -0.8705  -0.8690  -0.8690  -0.8662  -0.8661  -0.8656  -0.8656  -0.8626
    -0.8626  -0.8607  -0.8607  -0.8604  -0.8604  -0.8570  -0.8570  -0.8567
    -0.8567  -0.8527  -0.8527  -0.8505  -0.8501  -0.8501  -0.8495  -0.8495
    -0.8475  -0.8420  -0.8401  -0.8401  -0.8298  -0.8293  -0.8293  -0.8286
    -0.8283  -0.8283  -0.8274  -0.8269  -0.8232  -0.8213  -0.8213  -0.8210
    -0.8152  -0.8144  -0.8144  -0.8124  -0.8124  -0.8103  -0.8103  -0.8102
    -0.8102  -0.8099  -0.8099  -0.8093  -0.7607  -0.6705  -0.6705  -0.6343
    -0.5387  -0.5387  -0.4413  -0.4413  -0.3466  -0.3466  -0.2566  -0.2566
    -0.2546  -0.1904  -0.1753

          k = 0.0278 0.0833 0.1389 (241381 PWs)   bands (ev):

   -71.8049 -71.8049 -71.8049 -71.8049 -71.8049 -71.8049 -71.8049 -71.8049
   -71.8049 -71.8049 -71.8049 -71.8049 -71.8049 -71.8049 -71.8049 -71.8049
   -71.8048 -71.8048 -71.8048 -71.8048 -71.8048 -71.8048 -71.8048 -71.8048
   -71.8048 -71.8048 -71.8048 -71.8048 -71.8048 -71.8048 -71.8048 -71.8047
   -41.8945 -41.8945 -41.8945 -41.8945 -41.8945 -41.8945 -41.8945 -41.8945
   -41.8945 -41.8945 -41.8945 -41.8945 -41.8945 -41.8945 -41.8945 -41.8945
   -41.8945 -41.8945 -41.8945 -41.8945 -41.8945 -41.8945 -41.8945 -41.8945
   -41.8945 -41.8945 -41.8945 -41.8945 -41.8945 -41.8945 -41.8945 -41.8945
   -41.8945 -41.8945 -41.8945 -41.8945 -41.8945 -41.8945 -41.8945 -41.8945
   -41.8945 -41.8945 -41.8945 -41.8945 -41.8945 -41.8945 -41.8945 -41.8945
   -41.8945 -41.8945 -41.8945 -41.8945 -41.8945 -41.8945 -41.8945 -41.8945
   -41.8945 -41.8945 -41.8945 -41.8945 -41.8945 -41.8945 -41.8945 -41.8945
   -41.8945 -41.8945 -41.8945 -41.8945 -41.8945 -41.8945 -41.8945 -41.8945
   -41.8945 -41.8945 -41.8945 -41.8945 -41.8945 -41.8944 -41.8944 -41.8944
   -41.8944 -41.8944 -41.8944 -41.8944 -41.8944 -41.8944 -41.8944 -41.8944
   -41.8944 -41.8944 -41.8944 -41.8944 -41.8944 -41.8944 -41.8944 -41.8944
    -1.5063  -1.2528  -1.1451  -1.0659  -1.0647  -1.0583  -1.0498  -1.0483
    -1.0218  -1.0195  -1.0194  -1.0190  -1.0173  -1.0170  -1.0152  -1.0121
    -1.0083  -1.0073  -1.0055  -1.0038  -0.9998  -0.9948  -0.9935  -0.9928
    -0.9914  -0.9836  -0.9832  -0.9827  -0.9792  -0.9761  -0.9756  -0.9729
    -0.9705  -0.9681  -0.9653  -0.9635  -0.9631  -0.9630  -0.9622  -0.9610
    -0.9594  -0.9583  -0.9567  -0.9531  -0.9471  -0.9465  -0.9461  -0.9446
    -0.9423  -0.9415  -0.9411  -0.9405  -0.9397  -0.9393  -0.9387  -0.9385
    -0.9382  -0.9380  -0.9379  -0.9355  -0.9350  -0.9337  -0.9333  -0.9326
    -0.9304  -0.9300  -0.9290  -0.9275  -0.9265  -0.9251  -0.9248  -0.9172
    -0.9166  -0.9152  -0.9146  -0.9121  -0.9114  -0.9114  -0.9100  -0.9081
    -0.9080  -0.9076  -0.9048  -0.9039  -0.9033  -0.9027  -0.9025  -0.9021
    -0.8993  -0.8970  -0.8954  -0.8934  -0.8926  -0.8914  -0.8895  -0.8881
    -0.8878  -0.8838  -0.8834  -0.8834  -0.8824  -0.8803  -0.8790  -0.8787
    -0.8776  -0.8763  -0.8753  -0.8751  -0.8744  -0.8729  -0.8721  -0.8672
    -0.8663  -0.8651  -0.8650  -0.8634  -0.8628  -0.8623  -0.8611  -0.8602
    -0.8583  -0.8580  -0.8562  -0.8560  -0.8545  -0.8530  -0.8529  -0.8499
    -0.8476  -0.8476  -0.8469  -0.8445  -0.8427  -0.8425  -0.8424  -0.8424
    -0.8409  -0.8408  -0.8402  -0.8362  -0.8355  -0.8348  -0.8348  -0.8331
    -0.8329  -0.8319  -0.8310  -0.8254  -0.8227  -0.8225  -0.8223  -0.8223
    -0.8212  -0.8180  -0.8164  -0.8163  -0.8150  -0.8147  -0.8138  -0.8103
    -0.8101  -0.8100  -0.8100  -0.8040  -0.7323  -0.7021  -0.6399  -0.6148
    -0.5363  -0.5182  -0.5147  -0.4209  -0.4173  -0.3159  -0.2382  -0.2374
    -0.2338  -0.1605  -0.1545

          k = 0.0278 0.0833 0.1944 (241306 PWs)   bands (ev):

   -71.8049 -71.8049 -71.8049 -71.8049 -71.8049 -71.8049 -71.8049 -71.8049
   -71.8049 -71.8049 -71.8049 -71.8049 -71.8049 -71.8049 -71.8049 -71.8049
   -71.8048 -71.8048 -71.8048 -71.8048 -71.8048 -71.8048 -71.8048 -71.8048
   -71.8048 -71.8048 -71.8048 -71.8048 -71.8048 -71.8048 -71.8048 -71.8047
   -41.8945 -41.8945 -41.8945 -41.8945 -41.8945 -41.8945 -41.8945 -41.8945
   -41.8945 -41.8945 -41.8945 -41.8945 -41.8945 -41.8945 -41.8945 -41.8945
   -41.8945 -41.8945 -41.8945 -41.8945 -41.8945 -41.8945 -41.8945 -41.8945
   -41.8945 -41.8945 -41.8945 -41.8945 -41.8945 -41.8945 -41.8945 -41.8945
   -41.8945 -41.8945 -41.8945 -41.8945 -41.8945 -41.8945 -41.8945 -41.8945
   -41.8945 -41.8945 -41.8945 -41.8945 -41.8945 -41.8945 -41.8945 -41.8945
   -41.8945 -41.8945 -41.8945 -41.8945 -41.8945 -41.8945 -41.8945 -41.8945
   -41.8945 -41.8945 -41.8945 -41.8945 -41.8945 -41.8945 -41.8945 -41.8945
   -41.8945 -41.8945 -41.8945 -41.8945 -41.8945 -41.8945 -41.8945 -41.8945
   -41.8945 -41.8944 -41.8944 -41.8944 -41.8944 -41.8944 -41.8944 -41.8944
   -41.8944 -41.8944 -41.8944 -41.8944 -41.8944 -41.8944 -41.8944 -41.8944
   -41.8944 -41.8944 -41.8944 -41.8944 -41.8944 -41.8944 -41.8944 -41.8944
    -1.4625  -1.3342  -1.1169  -1.0588  -1.0505  -1.0495  -1.0493  -1.0385
    -1.0359  -1.0341  -1.0225  -1.0195  -1.0154  -1.0136  -1.0114  -1.0114
    -1.0094  -1.0093  -1.0068  -1.0063  -1.0037  -1.0010  -0.9976  -0.9968
    -0.9951  -0.9896  -0.9884  -0.9831  -0.9810  -0.9793  -0.9763  -0.9756
    -0.9736  -0.9703  -0.9669  -0.9661  -0.9603  -0.9596  -0.9582  -0.9571
    -0.9563  -0.9531  -0.9525  -0.9521  -0.9516  -0.9501  -0.9496  -0.9489
    -0.9458  -0.9428  -0.9411  -0.9406  -0.9404  -0.9396  -0.9396  -0.9392
    -0.9384  -0.9370  -0.9358  -0.9353  -0.9337  -0.9335  -0.9330  -0.9324
    -0.9294  -0.9278  -0.9264  -0.9256  -0.9243  -0.9231  -0.9196  -0.9196
    -0.9196  -0.9191  -0.9188  -0.9178  -0.9161  -0.9155  -0.9150  -0.9149
    -0.9148  -0.9123  -0.9115  -0.9109  -0.9099  -0.9080  -0.9057  -0.9047
    -0.9045  -0.9042  -0.9026  -0.9001  -0.8938  -0.8933  -0.8924  -0.8909
    -0.8856  -0.8835  -0.8816  -0.8806  -0.8788  -0.8745  -0.8713  -0.8708
    -0.8698  -0.8698  -0.8693  -0.8679  -0.8668  -0.8656  -0.8651  -0.8650
    -0.8642  -0.8633  -0.8628  -0.8616  -0.8614  -0.8613  -0.8582  -0.8579
    -0.8563  -0.8502  -0.8501  -0.8500  -0.8488  -0.8487  -0.8459  -0.8449
    -0.8446  -0.8435  -0.8422  -0.8420  -0.8420  -0.8419  -0.8403  -0.8398
    -0.8382  -0.8381  -0.8375  -0.8371  -0.8360  -0.8354  -0.8353  -0.8353
    -0.8351  -0.8331  -0.8299  -0.8296  -0.8291  -0.8258  -0.8256  -0.8250
    -0.8235  -0.8219  -0.8218  -0.8215  -0.8212  -0.8202  -0.8189  -0.8103
    -0.8103  -0.8101  -0.8100  -0.7722  -0.7538  -0.6934  -0.6789  -0.5984
    -0.5862  -0.4882  -0.4788  -0.3866  -0.3826  -0.3766  -0.2895  -0.2112
    -0.1527  -0.1417  -0.1195

          k = 0.0278 0.0833-0.2500 (241366 PWs)   bands (ev):

   -71.8049 -71.8049 -71.8049 -71.8049 -71.8049 -71.8049 -71.8049 -71.8049
   -71.8049 -71.8049 -71.8049 -71.8049 -71.8049 -71.8049 -71.8049 -71.8048
   -71.8048 -71.8048 -71.8048 -71.8048 -71.8048 -71.8048 -71.8048 -71.8048
   -71.8048 -71.8048 -71.8048 -71.8048 -71.8048 -71.8048 -71.8048 -71.8047
   -41.8945 -41.8945 -41.8945 -41.8945 -41.8945 -41.8945 -41.8945 -41.8945
   -41.8945 -41.8945 -41.8945 -41.8945 -41.8945 -41.8945 -41.8945 -41.8945
   -41.8945 -41.8945 -41.8945 -41.8945 -41.8945 -41.8945 -41.8945 -41.8945
   -41.8945 -41.8945 -41.8945 -41.8945 -41.8945 -41.8945 -41.8945 -41.8945
   -41.8945 -41.8945 -41.8945 -41.8945 -41.8945 -41.8945 -41.8945 -41.8945
   -41.8945 -41.8945 -41.8945 -41.8945 -41.8945 -41.8945 -41.8945 -41.8945
   -41.8945 -41.8945 -41.8945 -41.8945 -41.8945 -41.8945 -41.8945 -41.8945
   -41.8945 -41.8945 -41.8945 -41.8945 -41.8945 -41.8945 -41.8945 -41.8945
   -41.8945 -41.8945 -41.8945 -41.8945 -41.8945 -41.8945 -41.8945 -41.8945
   -41.8945 -41.8945 -41.8945 -41.8945 -41.8944 -41.8944 -41.8944 -41.8944
   -41.8944 -41.8944 -41.8944 -41.8944 -41.8944 -41.8944 -41.8944 -41.8944
   -41.8944 -41.8944 -41.8944 -41.8944 -41.8944 -41.8944 -41.8944 -41.8944
    -1.4048  -1.4048  -1.0839  -1.0839  -1.0481  -1.0481  -1.0374  -1.0374
    -1.0335  -1.0335  -1.0248  -1.0248  -1.0217  -1.0217  -1.0107  -1.0107
    -1.0066  -1.0066  -1.0054  -1.0054  -1.0036  -1.0036  -0.9997  -0.9997
    -0.9931  -0.9931  -0.9861  -0.9861  -0.9819  -0.9819  -0.9795  -0.9795
    -0.9713  -0.9713  -0.9654  -0.9654  -0.9595  -0.9595  -0.9548  -0.9548
    -0.9539  -0.9539  -0.9502  -0.9502  -0.9494  -0.9494  -0.9477  -0.9476
    -0.9475  -0.9475  -0.9473  -0.9473  -0.9405  -0.9405  -0.9403  -0.9403
    -0.9375  -0.9375  -0.9363  -0.9363  -0.9331  -0.9331  -0.9263  -0.9263
    -0.9254  -0.9254  -0.9252  -0.9252  -0.9228  -0.9228  -0.9213  -0.9213
    -0.9197  -0.9197  -0.9192  -0.9192  -0.9185  -0.9185  -0.9175  -0.9175
    -0.9174  -0.9174  -0.9130  -0.9130  -0.9123  -0.9123  -0.9117  -0.9117
    -0.9050  -0.9050  -0.9035  -0.9035  -0.8938  -0.8938  -0.8919  -0.8919
    -0.8839  -0.8839  -0.8827  -0.8827  -0.8735  -0.8735  -0.8706  -0.8706
    -0.8676  -0.8676  -0.8666  -0.8666  -0.8666  -0.8666  -0.8623  -0.8623
    -0.8561  -0.8561  -0.8549  -0.8549  -0.8548  -0.8548  -0.8539  -0.8538
    -0.8532  -0.8532  -0.8509  -0.8509  -0.8496  -0.8496  -0.8494  -0.8494
    -0.8457  -0.8457  -0.8448  -0.8448  -0.8417  -0.8417  -0.8416  -0.8416
    -0.8369  -0.8369  -0.8369  -0.8369  -0.8309  -0.8309  -0.8308  -0.8308
    -0.8303  -0.8303  -0.8294  -0.8294  -0.8292  -0.8292  -0.8291  -0.8291
    -0.8284  -0.8284  -0.8282  -0.8282  -0.8244  -0.8244  -0.8103  -0.8103
    -0.8101  -0.8101  -0.7920  -0.7920  -0.7310  -0.7310  -0.6446  -0.6446
    -0.5476  -0.5476  -0.4320  -0.4320  -0.3390  -0.3389  -0.2295  -0.2295
    -0.1815  -0.1814  -0.1230

          k = 0.0278 0.1389 0.1389 (241291 PWs)   bands (ev):

   -71.8049 -71.8049 -71.8049 -71.8049 -71.8049 -71.8049 -71.8049 -71.8049
   -71.8049 -71.8049 -71.8049 -71.8049 -71.8049 -71.8049 -71.8049 -71.8048
   -71.8048 -71.8048 -71.8048 -71.8048 -71.8048 -71.8048 -71.8048 -71.8048
   -71.8048 -71.8048 -71.8048 -71.8048 -71.8048 -71.8048 -71.8048 -71.8047
   -41.8945 -41.8945 -41.8945 -41.8945 -41.8945 -41.8945 -41.8945 -41.8945
   -41.8945 -41.8945 -41.8945 -41.8945 -41.8945 -41.8945 -41.8945 -41.8945
   -41.8945 -41.8945 -41.8945 -41.8945 -41.8945 -41.8945 -41.8945 -41.8945
   -41.8945 -41.8945 -41.8945 -41.8945 -41.8945 -41.8945 -41.8945 -41.8945
   -41.8945 -41.8945 -41.8945 -41.8945 -41.8945 -41.8945 -41.8945 -41.8945
   -41.8945 -41.8945 -41.8945 -41.8945 -41.8945 -41.8945 -41.8945 -41.8945
   -41.8945 -41.8945 -41.8945 -41.8945 -41.8945 -41.8945 -41.8945 -41.8945
   -41.8945 -41.8945 -41.8945 -41.8945 -41.8945 -41.8945 -41.8945 -41.8945
   -41.8945 -41.8945 -41.8945 -41.8945 -41.8945 -41.8945 -41.8945 -41.8944
   -41.8944 -41.8944 -41.8944 -41.8944 -41.8944 -41.8944 -41.8944 -41.8944
   -41.8944 -41.8944 -41.8944 -41.8944 -41.8944 -41.8944 -41.8944 -41.8944
   -41.8944 -41.8944 -41.8944 -41.8944 -41.8944 -41.8944 -41.8944 -41.8944
    -1.4772  -1.2291  -1.2291  -1.0649  -1.0600  -1.0582  -1.0550  -1.0392
    -1.0391  -1.0252  -1.0252  -1.0191  -1.0180  -1.0141  -1.0141  -1.0094
    -1.0094  -1.0093  -1.0093  -0.9986  -0.9975  -0.9975  -0.9895  -0.9895
    -0.9877  -0.9877  -0.9877  -0.9874  -0.9874  -0.9851  -0.9851  -0.9735
    -0.9735  -0.9658  -0.9658  -0.9616  -0.9616  -0.9611  -0.9611  -0.9592
    -0.9571  -0.9571  -0.9556  -0.9517  -0.9517  -0.9482  -0.9482  -0.9461
    -0.9448  -0.9448  -0.9415  -0.9415  -0.9402  -0.9402  -0.9401  -0.9401
    -0.9396  -0.9383  -0.9383  -0.9363  -0.9363  -0.9353  -0.9339  -0.9339
    -0.9329  -0.9290  -0.9276  -0.9262  -0.9247  -0.9200  -0.9200  -0.9159
    -0.9141  -0.9115  -0.9115  -0.9094  -0.9094  -0.9094  -0.9085  -0.9085
    -0.9077  -0.9077  -0.9059  -0.9030  -0.9030  -0.8996  -0.8983  -0.8963
    -0.8963  -0.8962  -0.8962  -0.8950  -0.8918  -0.8918  -0.8887  -0.8875
    -0.8875  -0.8873  -0.8873  -0.8871  -0.8843  -0.8843  -0.8784  -0.8783
    -0.8783  -0.8781  -0.8781  -0.8774  -0.8774  -0.8748  -0.8748  -0.8730
    -0.8715  -0.8674  -0.8674  -0.8578  -0.8578  -0.8568  -0.8568  -0.8528
    -0.8528  -0.8518  -0.8518  -0.8503  -0.8503  -0.8502  -0.8502  -0.8461
    -0.8461  -0.8441  -0.8429  -0.8429  -0.8426  -0.8418  -0.8418  -0.8406
    -0.8401  -0.8380  -0.8380  -0.8368  -0.8368  -0.8365  -0.8361  -0.8361
    -0.8349  -0.8344  -0.8344  -0.8279  -0.8257  -0.8227  -0.8227  -0.8223
    -0.8223  -0.8222  -0.8190  -0.8190  -0.8150  -0.8150  -0.8146  -0.8146
    -0.8140  -0.8140  -0.8126  -0.7857  -0.7580  -0.7067  -0.5922  -0.5922
    -0.5084  -0.5084  -0.4938  -0.4938  -0.3858  -0.3020  -0.3020  -0.2979
    -0.1406  -0.1406  -0.0934

          k = 0.0278 0.1389 0.1944 (241291 PWs)   bands (ev):

   -71.8049 -71.8049 -71.8049 -71.8049 -71.8049 -71.8049 -71.8049 -71.8049
   -71.8049 -71.8049 -71.8049 -71.8049 -71.8049 -71.8049 -71.8049 -71.8048
   -71.8048 -71.8048 -71.8048 -71.8048 -71.8048 -71.8048 -71.8048 -71.8048
   -71.8048 -71.8048 -71.8048 -71.8048 -71.8048 -71.8048 -71.8048 -71.8047
   -41.8945 -41.8945 -41.8945 -41.8945 -41.8945 -41.8945 -41.8945 -41.8945
   -41.8945 -41.8945 -41.8945 -41.8945 -41.8945 -41.8945 -41.8945 -41.8945
   -41.8945 -41.8945 -41.8945 -41.8945 -41.8945 -41.8945 -41.8945 -41.8945
   -41.8945 -41.8945 -41.8945 -41.8945 -41.8945 -41.8945 -41.8945 -41.8945
   -41.8945 -41.8945 -41.8945 -41.8945 -41.8945 -41.8945 -41.8945 -41.8945
   -41.8945 -41.8945 -41.8945 -41.8945 -41.8945 -41.8945 -41.8945 -41.8945
   -41.8945 -41.8945 -41.8945 -41.8945 -41.8945 -41.8945 -41.8945 -41.8945
   -41.8945 -41.8945 -41.8945 -41.8945 -41.8945 -41.8945 -41.8945 -41.8945
   -41.8945 -41.8945 -41.8945 -41.8945 -41.8945 -41.8945 -41.8945 -41.8945
   -41.8944 -41.8944 -41.8944 -41.8944 -41.8944 -41.8944 -41.8944 -41.8944
   -41.8944 -41.8944 -41.8944 -41.8944 -41.8944 -41.8944 -41.8944 -41.8944
   -41.8944 -41.8944 -41.8944 -41.8944 -41.8944 -41.8944 -41.8944 -41.8944
    -1.4341  -1.3083  -1.1950  -1.1056  -1.0603  -1.0502  -1.0484  -1.0402
    -1.0334  -1.0276  -1.0266  -1.0252  -1.0181  -1.0140  -1.0128  -1.0102
    -1.0067  -1.0055  -1.0009  -1.0009  -0.9996  -0.9993  -0.9985  -0.9951
    -0.9907  -0.9905  -0.9897  -0.9880  -0.9860  -0.9812  -0.9807  -0.9782
    -0.9764  -0.9718  -0.9703  -0.9673  -0.9639  -0.9637  -0.9620  -0.9607
    -0.9548  -0.9543  -0.9539  -0.9511  -0.9494  -0.9488  -0.9478  -0.9476
    -0.9450  -0.9448  -0.9429  -0.9427  -0.9425  -0.9420  -0.9420  -0.9419
    -0.9417  -0.9353  -0.9351  -0.9324  -0.9324  -0.9323  -0.9321  -0.9275
    -0.9252  -0.9246  -0.9243  -0.9222  -0.9217  -0.9209  -0.9207  -0.9179
    -0.9163  -0.9140  -0.9137  -0.9136  -0.9135  -0.9132  -0.9117  -0.9117
    -0.9100  -0.9096  -0.9059  -0.9044  -0.9032  -0.9018  -0.9010  -0.8993
    -0.8985  -0.8984  -0.8979  -0.8966  -0.8936  -0.8921  -0.8913  -0.8907
    -0.8895  -0.8865  -0.8860  -0.8834  -0.8806  -0.8805  -0.8794  -0.8787
    -0.8785  -0.8762  -0.8737  -0.8712  -0.8705  -0.8696  -0.8690  -0.8683
    -0.8682  -0.8672  -0.8632  -0.8603  -0.8599  -0.8540  -0.8535  -0.8513
    -0.8510  -0.8509  -0.8503  -0.8494  -0.8492  -0.8491  -0.8486  -0.8475
    -0.8448  -0.8430  -0.8423  -0.8420  -0.8417  -0.8409  -0.8403  -0.8399
    -0.8392  -0.8375  -0.8371  -0.8361  -0.8353  -0.8350  -0.8345  -0.8315
    -0.8315  -0.8309  -0.8306  -0.8293  -0.8284  -0.8283  -0.8259  -0.8240
    -0.8240  -0.8235  -0.8226  -0.8225  -0.8213  -0.8210  -0.8192  -0.8149
    -0.8145  -0.8142  -0.8140  -0.7963  -0.7552  -0.6693  -0.6586  -0.5621
    -0.5571  -0.4694  -0.4578  -0.4516  -0.3649  -0.3622  -0.3571  -0.1787
    -0.1232  -0.0943  -0.0724

          k = 0.0278 0.1389-0.2500 (241394 PWs)   bands (ev):

   -71.8049 -71.8049 -71.8049 -71.8049 -71.8049 -71.8049 -71.8049 -71.8049
   -71.8049 -71.8049 -71.8049 -71.8049 -71.8049 -71.8049 -71.8049 -71.8049
   -71.8049 -71.8048 -71.8048 -71.8048 -71.8048 -71.8048 -71.8048 -71.8048
   -71.8048 -71.8048 -71.8048 -71.8048 -71.8048 -71.8048 -71.8048 -71.8047
   -41.8945 -41.8945 -41.8945 -41.8945 -41.8945 -41.8945 -41.8945 -41.8945
   -41.8945 -41.8945 -41.8945 -41.8945 -41.8945 -41.8945 -41.8945 -41.8945
   -41.8945 -41.8945 -41.8945 -41.8945 -41.8945 -41.8945 -41.8945 -41.8945
   -41.8945 -41.8945 -41.8945 -41.8945 -41.8945 -41.8945 -41.8945 -41.8945
   -41.8945 -41.8945 -41.8945 -41.8945 -41.8945 -41.8945 -41.8945 -41.8945
   -41.8945 -41.8945 -41.8945 -41.8945 -41.8945 -41.8945 -41.8945 -41.8945
   -41.8945 -41.8945 -41.8945 -41.8945 -41.8945 -41.8945 -41.8945 -41.8945
   -41.8945 -41.8945 -41.8945 -41.8945 -41.8945 -41.8945 -41.8945 -41.8945
   -41.8945 -41.8945 -41.8945 -41.8945 -41.8945 -41.8945 -41.8945 -41.8945
   -41.8945 -41.8945 -41.8945 -41.8945 -41.8945 -41.8945 -41.8944 -41.8944
   -41.8944 -41.8944 -41.8944 -41.8944 -41.8944 -41.8944 -41.8944 -41.8944
   -41.8944 -41.8944 -41.8944 -41.8944 -41.8944 -41.8944 -41.8944 -41.8944
    -1.3774  -1.3773  -1.1526  -1.1525  -1.0520  -1.0520  -1.0418  -1.0418
    -1.0384  -1.0384  -1.0159  -1.0159  -1.0142  -1.0142  -1.0130  -1.0129
    -1.0074  -1.0074  -1.0057  -1.0057  -1.0006  -1.0006  -0.9972  -0.9972
    -0.9916  -0.9916  -0.9902  -0.9902  -0.9813  -0.9813  -0.9761  -0.9761
    -0.9744  -0.9744  -0.9687  -0.9687  -0.9677  -0.9677  -0.9670  -0.9670
    -0.9565  -0.9565  -0.9526  -0.9526  -0.9505  -0.9505  -0.9460  -0.9460
    -0.9455  -0.9455  -0.9436  -0.9436  -0.9431  -0.9431  -0.9351  -0.9351
    -0.9321  -0.9321  -0.9315  -0.9315  -0.9315  -0.9315  -0.9301  -0.9301
    -0.9258  -0.9258  -0.9214  -0.9214  -0.9197  -0.9197  -0.9192  -0.9192
    -0.9175  -0.9175  -0.9165  -0.9165  -0.9154  -0.9154  -0.9130  -0.9130
    -0.9083  -0.9083  -0.9065  -0.9065  -0.9063  -0.9063  -0.9027  -0.9027
    -0.9000  -0.9000  -0.8999  -0.8999  -0.8947  -0.8947  -0.8924  -0.8924
    -0.8890  -0.8890  -0.8830  -0.8830  -0.8821  -0.8821  -0.8761  -0.8761
    -0.8728  -0.8728  -0.8657  -0.8657  -0.8651  -0.8651  -0.8638  -0.8638
    -0.8633  -0.8633  -0.8604  -0.8604  -0.8601  -0.8601  -0.8583  -0.8583
    -0.8532  -0.8532  -0.8518  -0.8518  -0.8516  -0.8516  -0.8487  -0.8487
    -0.8443  -0.8443  -0.8440  -0.8440  -0.8392  -0.8392  -0.8365  -0.8365
    -0.8348  -0.8348  -0.8337  -0.8337  -0.8318  -0.8318  -0.8288  -0.8288
    -0.8283  -0.8283  -0.8281  -0.8281  -0.8271  -0.8271  -0.8268  -0.8268
    -0.8264  -0.8264  -0.8263  -0.8263  -0.8245  -0.8245  -0.8225  -0.8225
    -0.8147  -0.8147  -0.8143  -0.8143  -0.7129  -0.7129  -0.6209  -0.6208
    -0.5097  -0.5097  -0.4211  -0.4211  -0.4115  -0.4115  -0.2092  -0.2091
    -0.1061  -0.1060  -0.0658

          k = 0.0278 0.1944 0.1944 (241293 PWs)   bands (ev):

   -71.8049 -71.8049 -71.8049 -71.8049 -71.8049 -71.8049 -71.8049 -71.8049
   -71.8049 -71.8049 -71.8049 -71.8049 -71.8049 -71.8049 -71.8049 -71.8049
   -71.8048 -71.8048 -71.8048 -71.8048 -71.8048 -71.8048 -71.8048 -71.8048
   -71.8048 -71.8048 -71.8048 -71.8048 -71.8048 -71.8048 -71.8048 -71.8047
   -41.8945 -41.8945 -41.8945 -41.8945 -41.8945 -41.8945 -41.8945 -41.8945
   -41.8945 -41.8945 -41.8945 -41.8945 -41.8945 -41.8945 -41.8945 -41.8945
   -41.8945 -41.8945 -41.8945 -41.8945 -41.8945 -41.8945 -41.8945 -41.8945
   -41.8945 -41.8945 -41.8945 -41.8945 -41.8945 -41.8945 -41.8945 -41.8945
   -41.8945 -41.8945 -41.8945 -41.8945 -41.8945 -41.8945 -41.8945 -41.8945
   -41.8945 -41.8945 -41.8945 -41.8945 -41.8945 -41.8945 -41.8945 -41.8945
   -41.8945 -41.8945 -41.8945 -41.8945 -41.8945 -41.8945 -41.8945 -41.8945
   -41.8945 -41.8945 -41.8945 -41.8945 -41.8945 -41.8945 -41.8945 -41.8945
   -41.8945 -41.8945 -41.8945 -41.8945 -41.8945 -41.8945 -41.8945 -41.8945
   -41.8945 -41.8944 -41.8944 -41.8944 -41.8944 -41.8944 -41.8944 -41.8944
   -41.8944 -41.8944 -41.8944 -41.8944 -41.8944 -41.8944 -41.8944 -41.8944
   -41.8944 -41.8944 -41.8944 -41.8944 -41.8944 -41.8944 -41.8944 -41.8944
    -1.3919  -1.2703  -1.2703  -1.1652  -1.0585  -1.0501  -1.0450  -1.0450
    -1.0442  -1.0264  -1.0264  -1.0230  -1.0155  -1.0155  -1.0118  -1.0030
    -1.0030  -0.9999  -0.9999  -0.9968  -0.9968  -0.9960  -0.9940  -0.9940
    -0.9908  -0.9908  -0.9895  -0.9895  -0.9860  -0.9860  -0.9828  -0.9828
    -0.9769  -0.9754  -0.9754  -0.9739  -0.9739  -0.9713  -0.9713  -0.9614
    -0.9614  -0.9528  -0.9528  -0.9520  -0.9520  -0.9488  -0.9488  -0.9484
    -0.9484  -0.9465  -0.9459  -0.9459  -0.9444  -0.9444  -0.9424  -0.9342
    -0.9324  -0.9324  -0.9317  -0.9308  -0.9305  -0.9305  -0.9303  -0.9269
    -0.9230  -0.9219  -0.9210  -0.9200  -0.9192  -0.9169  -0.9131  -0.9131
    -0.9126  -0.9126  -0.9119  -0.9119  -0.9115  -0.9115  -0.9095  -0.9080
    -0.9080  -0.9067  -0.9067  -0.9066  -0.9040  -0.8974  -0.8945  -0.8945
    -0.8929  -0.8929  -0.8917  -0.8917  -0.8910  -0.8910  -0.8895  -0.8895
    -0.8885  -0.8884  -0.8884  -0.8836  -0.8836  -0.8832  -0.8819  -0.8789
    -0.8789  -0.8764  -0.8764  -0.8763  -0.8763  -0.8758  -0.8757  -0.8701
    -0.8701  -0.8660  -0.8655  -0.8634  -0.8603  -0.8581  -0.8581  -0.8577
    -0.8577  -0.8543  -0.8543  -0.8527  -0.8527  -0.8460  -0.8460  -0.8447
    -0.8434  -0.8411  -0.8411  -0.8411  -0.8411  -0.8384  -0.8384  -0.8376
    -0.8359  -0.8359  -0.8317  -0.8317  -0.8316  -0.8315  -0.8309  -0.8309
    -0.8295  -0.8295  -0.8290  -0.8279  -0.8279  -0.8273  -0.8273  -0.8243
    -0.8236  -0.8236  -0.8236  -0.8236  -0.8230  -0.8207  -0.8207  -0.8207
    -0.8207  -0.8198  -0.8198  -0.8174  -0.7255  -0.6329  -0.6255  -0.6255
    -0.5259  -0.5259  -0.5202  -0.4212  -0.3275  -0.3275  -0.2342  -0.2342
    -0.0505  -0.0505  -0.0429

          k = 0.0278 0.1944-0.2500 (241220 PWs)   bands (ev):

   -71.8049 -71.8049 -71.8049 -71.8049 -71.8049 -71.8049 -71.8049 -71.8049
   -71.8049 -71.8049 -71.8049 -71.8049 -71.8049 -71.8049 -71.8049 -71.8048
   -71.8048 -71.8048 -71.8048 -71.8048 -71.8048 -71.8048 -71.8048 -71.8048
   -71.8048 -71.8048 -71.8048 -71.8048 -71.8048 -71.8048 -71.8048 -71.8047
   -41.8945 -41.8945 -41.8945 -41.8945 -41.8945 -41.8945 -41.8945 -41.8945
   -41.8945 -41.8945 -41.8945 -41.8945 -41.8945 -41.8945 -41.8945 -41.8945
   -41.8945 -41.8945 -41.8945 -41.8945 -41.8945 -41.8945 -41.8945 -41.8945
   -41.8945 -41.8945 -41.8945 -41.8945 -41.8945 -41.8945 -41.8945 -41.8945
   -41.8945 -41.8945 -41.8945 -41.8945 -41.8945 -41.8945 -41.8945 -41.8945
   -41.8945 -41.8945 -41.8945 -41.8945 -41.8945 -41.8945 -41.8945 -41.8945
   -41.8945 -41.8945 -41.8945 -41.8945 -41.8945 -41.8945 -41.8945 -41.8945
   -41.8945 -41.8945 -41.8945 -41.8945 -41.8945 -41.8945 -41.8945 -41.8945
   -41.8945 -41.8945 -41.8945 -41.8944 -41.8944 -41.8944 -41.8944 -41.8944
   -41.8944 -41.8944 -41.8944 -41.8944 -41.8944 -41.8944 -41.8944 -41.8944
   -41.8944 -41.8944 -41.8944 -41.8944 -41.8944 -41.8944 -41.8944 -41.8944
   -41.8944 -41.8944 -41.8944 -41.8944 -41.8944 -41.8944 -41.8944 -41.8944
    -1.3369  -1.3369  -1.2217  -1.2217  -1.0535  -1.0535  -1.0483  -1.0483
    -1.0369  -1.0369  -1.0257  -1.0257  -1.0071  -1.0071  -1.0029  -1.0029
    -1.0028  -1.0028  -0.9991  -0.9991  -0.9987  -0.9987  -0.9938  -0.9938
    -0.9916  -0.9916  -0.9860  -0.9860  -0.9855  -0.9855  -0.9814  -0.9814
    -0.9796  -0.9796  -0.9792  -0.9792  -0.9743  -0.9743  -0.9682  -0.9682
    -0.9650  -0.9650  -0.9513  -0.9513  -0.9490  -0.9490  -0.9470  -0.9470
    -0.9467  -0.9467  -0.9460  -0.9460  -0.9448  -0.9448  -0.9416  -0.9416
    -0.9332  -0.9332  -0.9308  -0.9308  -0.9288  -0.9288  -0.9279  -0.9279
    -0.9182  -0.9182  -0.9168  -0.9168  -0.9157  -0.9157  -0.9121  -0.9121
    -0.9116  -0.9116  -0.9113  -0.9113  -0.9100  -0.9100  -0.9099  -0.9099
    -0.9042  -0.9042  -0.9007  -0.9007  -0.9003  -0.9003  -0.8991  -0.8991
    -0.8989  -0.8989  -0.8958  -0.8958  -0.8898  -0.8898  -0.8861  -0.8861
    -0.8851  -0.8851  -0.8837  -0.8837  -0.8831  -0.8831  -0.8794  -0.8794
    -0.8787  -0.8787  -0.8753  -0.8752  -0.8735  -0.8735  -0.8730  -0.8730
    -0.8677  -0.8677  -0.8676  -0.8676  -0.8669  -0.8669  -0.8606  -0.8606
    -0.8585  -0.8585  -0.8560  -0.8560  -0.8484  -0.8484  -0.8427  -0.8427
    -0.8421  -0.8421  -0.8407  -0.8407  -0.8368  -0.8368  -0.8346  -0.8346
    -0.8335  -0.8335  -0.8335  -0.8335  -0.8322  -0.8322  -0.8306  -0.8306
    -0.8282  -0.8282  -0.8268  -0.8268  -0.8267  -0.8267  -0.8258  -0.8258
    -0.8253  -0.8253  -0.8252  -0.8252  -0.8251  -0.8251  -0.8248  -0.8248
    -0.8203  -0.8203  -0.8196  -0.8196  -0.6820  -0.6820  -0.5847  -0.5847
    -0.5789  -0.5789  -0.4783  -0.4783  -0.2844  -0.2843  -0.1801  -0.1801
    -0.1022  -0.1022  -0.0420

          k = 0.0278-0.2500-0.2500 (241316 PWs)   bands (ev):

   -71.8049 -71.8049 -71.8049 -71.8049 -71.8049 -71.8049 -71.8049 -71.8049
   -71.8049 -71.8049 -71.8049 -71.8049 -71.8049 -71.8049 -71.8049 -71.8049
   -71.8048 -71.8048 -71.8048 -71.8048 -71.8048 -71.8048 -71.8048 -71.8048
   -71.8048 -71.8048 -71.8048 -71.8048 -71.8048 -71.8048 -71.8048 -71.8047
   -41.8945 -41.8945 -41.8945 -41.8945 -41.8945 -41.8945 -41.8945 -41.8945
   -41.8945 -41.8945 -41.8945 -41.8945 -41.8945 -41.8945 -41.8945 -41.8945
   -41.8945 -41.8945 -41.8945 -41.8945 -41.8945 -41.8945 -41.8945 -41.8945
   -41.8945 -41.8945 -41.8945 -41.8945 -41.8945 -41.8945 -41.8945 -41.8945
   -41.8945 -41.8945 -41.8945 -41.8945 -41.8945 -41.8945 -41.8945 -41.8945
   -41.8945 -41.8945 -41.8945 -41.8945 -41.8945 -41.8945 -41.8945 -41.8945
   -41.8945 -41.8945 -41.8945 -41.8945 -41.8945 -41.8945 -41.8945 -41.8945
   -41.8945 -41.8945 -41.8945 -41.8945 -41.8945 -41.8945 -41.8945 -41.8945
   -41.8945 -41.8945 -41.8945 -41.8945 -41.8945 -41.8945 -41.8945 -41.8945
   -41.8944 -41.8944 -41.8944 -41.8944 -41.8944 -41.8944 -41.8944 -41.8944
   -41.8944 -41.8944 -41.8944 -41.8944 -41.8944 -41.8944 -41.8944 -41.8944
   -41.8944 -41.8944 -41.8944 -41.8944 -41.8944 -41.8944 -41.8944 -41.8944
    -1.2844  -1.2844  -1.2844  -1.2843  -1.0523  -1.0523  -1.0523  -1.0523
    -1.0327  -1.0327  -1.0327  -1.0327  -1.0043  -1.0043  -1.0043  -1.0043
    -0.9916  -0.9916  -0.9916  -0.9916  -0.9916  -0.9916  -0.9916  -0.9916
    -0.9898  -0.9898  -0.9898  -0.9898  -0.9898  -0.9898  -0.9898  -0.9898
    -0.9805  -0.9805  -0.9805  -0.9805  -0.9805  -0.9805  -0.9805  -0.9805
    -0.9532  -0.9532  -0.9532  -0.9532  -0.9488  -0.9488  -0.9488  -0.9488
    -0.9488  -0.9488  -0.9488  -0.9488  -0.9450  -0.9450  -0.9450  -0.9450
    -0.9310  -0.9310  -0.9310  -0.9310  -0.9292  -0.9292  -0.9292  -0.9292
    -0.9153  -0.9153  -0.9153  -0.9153  -0.9133  -0.9133  -0.9133  -0.9133
    -0.9129  -0.9129  -0.9129  -0.9129  -0.9076  -0.9076  -0.9076  -0.9076
    -0.8936  -0.8936  -0.8936  -0.8936  -0.8911  -0.8911  -0.8911  -0.8911
    -0.8911  -0.8911  -0.8911  -0.8911  -0.8889  -0.8889  -0.8889  -0.8889
    -0.8856  -0.8856  -0.8856  -0.8856  -0.8839  -0.8839  -0.8839  -0.8839
    -0.8839  -0.8839  -0.8839  -0.8839  -0.8760  -0.8760  -0.8760  -0.8760
    -0.8760  -0.8760  -0.8760  -0.8760  -0.8639  -0.8639  -0.8639  -0.8639
    -0.8532  -0.8532  -0.8532  -0.8532  -0.8526  -0.8526  -0.8526  -0.8526
    -0.8369  -0.8369  -0.8369  -0.8369  -0.8369  -0.8369  -0.8369  -0.8369
    -0.8330  -0.8330  -0.8330  -0.8330  -0.8274  -0.8274  -0.8274  -0.8274
    -0.8272  -0.8272  -0.8272  -0.8272  -0.8272  -0.8272  -0.8272  -0.8272
    -0.8246  -0.8246  -0.8246  -0.8246  -0.8246  -0.8245  -0.8245  -0.8245
    -0.8238  -0.8238  -0.8238  -0.8238  -0.6371  -0.6371  -0.6371  -0.6370
    -0.5367  -0.5367  -0.5367  -0.5367  -0.1440  -0.1440  -0.1440  -0.1440
    -0.1439  -0.1439  -0.1439

          k = 0.0833 0.0833 0.0833 (241341 PWs)   bands (ev):

   -71.8049 -71.8049 -71.8049 -71.8049 -71.8049 -71.8049 -71.8049 -71.8049
   -71.8049 -71.8049 -71.8049 -71.8049 -71.8049 -71.8049 -71.8049 -71.8049
   -71.8048 -71.8048 -71.8048 -71.8048 -71.8048 -71.8048 -71.8048 -71.8048
   -71.8048 -71.8048 -71.8048 -71.8048 -71.8048 -71.8048 -71.8048 -71.8047
   -41.8945 -41.8945 -41.8945 -41.8945 -41.8945 -41.8945 -41.8945 -41.8945
   -41.8945 -41.8945 -41.8945 -41.8945 -41.8945 -41.8945 -41.8945 -41.8945
   -41.8945 -41.8945 -41.8945 -41.8945 -41.8945 -41.8945 -41.8945 -41.8945
   -41.8945 -41.8945 -41.8945 -41.8945 -41.8945 -41.8945 -41.8945 -41.8945
   -41.8945 -41.8945 -41.8945 -41.8945 -41.8945 -41.8945 -41.8945 -41.8945
   -41.8945 -41.8945 -41.8945 -41.8945 -41.8945 -41.8945 -41.8945 -41.8945
   -41.8945 -41.8945 -41.8945 -41.8945 -41.8945 -41.8945 -41.8945 -41.8945
   -41.8945 -41.8945 -41.8945 -41.8945 -41.8945 -41.8945 -41.8945 -41.8945
   -41.8945 -41.8945 -41.8945 -41.8945 -41.8945 -41.8945 -41.8945 -41.8945
   -41.8945 -41.8945 -41.8945 -41.8944 -41.8944 -41.8944 -41.8944 -41.8944
   -41.8944 -41.8944 -41.8944 -41.8944 -41.8944 -41.8944 -41.8944 -41.8944
   -41.8944 -41.8944 -41.8944 -41.8944 -41.8944 -41.8944 -41.8944 -41.8944
    -1.5211  -1.1557  -1.1557  -1.1556  -1.0718  -1.0549  -1.0549  -1.0549
    -1.0214  -1.0214  -1.0214  -1.0139  -1.0139  -1.0139  -1.0133  -1.0133
    -1.0133  -1.0061  -1.0061  -1.0061  -0.9842  -0.9842  -0.9842  -0.9837
    -0.9837  -0.9837  -0.9782  -0.9782  -0.9782  -0.9781  -0.9781  -0.9781
    -0.9699  -0.9699  -0.9699  -0.9699  -0.9699  -0.9699  -0.9641  -0.9641
    -0.9641  -0.9487  -0.9487  -0.9487  -0.9487  -0.9487  -0.9487  -0.9426
    -0.9426  -0.9426  -0.9426  -0.9426  -0.9426  -0.9371  -0.9371  -0.9371
    -0.9371  -0.9371  -0.9371  -0.9371  -0.9323  -0.9323  -0.9318  -0.9318
    -0.9284  -0.9284  -0.9284  -0.9272  -0.9272  -0.9272  -0.9103  -0.9102
    -0.9102  -0.9102  -0.9102  -0.9102  -0.9079  -0.9079  -0.9079  -0.9050
    -0.9050  -0.9050  -0.9050  -0.9050  -0.9050  -0.9024  -0.9024  -0.9024
    -0.8962  -0.8962  -0.8962  -0.8902  -0.8902  -0.8902  -0.8867  -0.8867
    -0.8867  -0.8864  -0.8864  -0.8864  -0.8769  -0.8769  -0.8769  -0.8769
    -0.8769  -0.8769  -0.8763  -0.8763  -0.8763  -0.8747  -0.8747  -0.8735
    -0.8735  -0.8735  -0.8683  -0.8683  -0.8683  -0.8612  -0.8612  -0.8612
    -0.8612  -0.8612  -0.8612  -0.8601  -0.8601  -0.8601  -0.8529  -0.8529
    -0.8529  -0.8481  -0.8481  -0.8481  -0.8481  -0.8481  -0.8481  -0.8460
    -0.8460  -0.8460  -0.8365  -0.8365  -0.8365  -0.8338  -0.8338  -0.8338
    -0.8301  -0.8301  -0.8301  -0.8270  -0.8270  -0.8205  -0.8205  -0.8205
    -0.8176  -0.8176  -0.8176  -0.8123  -0.8123  -0.8123  -0.8123  -0.8123
    -0.8123  -0.8107  -0.8107  -0.8107  -0.6549  -0.6549  -0.6549  -0.6238
    -0.6238  -0.6238  -0.3352  -0.3352  -0.3352  -0.3352  -0.3352  -0.3352
    -0.3247  -0.1375  -0.1375

          k = 0.0833 0.0833 0.1389 (241325 PWs)   bands (ev):

   -71.8049 -71.8049 -71.8049 -71.8049 -71.8049 -71.8049 -71.8049 -71.8049
   -71.8049 -71.8049 -71.8049 -71.8049 -71.8049 -71.8049 -71.8049 -71.8049
   -71.8048 -71.8048 -71.8048 -71.8048 -71.8048 -71.8048 -71.8048 -71.8048
   -71.8048 -71.8048 -71.8048 -71.8048 -71.8048 -71.8048 -71.8048 -71.8047
   -41.8945 -41.8945 -41.8945 -41.8945 -41.8945 -41.8945 -41.8945 -41.8945
   -41.8945 -41.8945 -41.8945 -41.8945 -41.8945 -41.8945 -41.8945 -41.8945
   -41.8945 -41.8945 -41.8945 -41.8945 -41.8945 -41.8945 -41.8945 -41.8945
   -41.8945 -41.8945 -41.8945 -41.8945 -41.8945 -41.8945 -41.8945 -41.8945
   -41.8945 -41.8945 -41.8945 -41.8945 -41.8945 -41.8945 -41.8945 -41.8945
   -41.8945 -41.8945 -41.8945 -41.8945 -41.8945 -41.8945 -41.8945 -41.8945
   -41.8945 -41.8945 -41.8945 -41.8945 -41.8945 -41.8945 -41.8945 -41.8945
   -41.8945 -41.8945 -41.8945 -41.8945 -41.8945 -41.8945 -41.8945 -41.8945
   -41.8945 -41.8945 -41.8945 -41.8945 -41.8945 -41.8945 -41.8945 -41.8945
   -41.8945 -41.8945 -41.8944 -41.8944 -41.8944 -41.8944 -41.8944 -41.8944
   -41.8944 -41.8944 -41.8944 -41.8944 -41.8944 -41.8944 -41.8944 -41.8944
   -41.8944 -41.8944 -41.8944 -41.8944 -41.8944 -41.8944 -41.8944 -41.8944
    -1.4918  -1.2413  -1.1373  -1.1373  -1.0708  -1.0483  -1.0483  -1.0438
    -1.0325  -1.0325  -1.0306  -1.0187  -1.0182  -1.0182  -1.0105  -1.0058
    -1.0058  -1.0033  -1.0028  -1.0028  -0.9949  -0.9949  -0.9920  -0.9897
    -0.9850  -0.9850  -0.9822  -0.9822  -0.9806  -0.9806  -0.9755  -0.9755
    -0.9748  -0.9748  -0.9701  -0.9701  -0.9676  -0.9676  -0.9599  -0.9599
    -0.9597  -0.9597  -0.9576  -0.9485  -0.9485  -0.9457  -0.9457  -0.9423
    -0.9423  -0.9415  -0.9415  -0.9399  -0.9399  -0.9388  -0.9385  -0.9378
    -0.9378  -0.9377  -0.9377  -0.9357  -0.9329  -0.9313  -0.9308  -0.9293
    -0.9289  -0.9258  -0.9258  -0.9236  -0.9236  -0.9228  -0.9228  -0.9225
    -0.9146  -0.9146  -0.9130  -0.9130  -0.9103  -0.9098  -0.9098  -0.9095
    -0.9055  -0.9055  -0.9047  -0.9035  -0.9035  -0.9027  -0.9027  -0.8981
    -0.8981  -0.8966  -0.8966  -0.8938  -0.8913  -0.8913  -0.8897  -0.8897
    -0.8881  -0.8881  -0.8810  -0.8810  -0.8797  -0.8797  -0.8769  -0.8765
    -0.8753  -0.8753  -0.8749  -0.8737  -0.8732  -0.8732  -0.8728  -0.8706
    -0.8706  -0.8701  -0.8701  -0.8642  -0.8630  -0.8630  -0.8620  -0.8597
    -0.8597  -0.8592  -0.8579  -0.8573  -0.8573  -0.8543  -0.8543  -0.8445
    -0.8445  -0.8408  -0.8408  -0.8408  -0.8408  -0.8406  -0.8406  -0.8406
    -0.8406  -0.8398  -0.8395  -0.8395  -0.8392  -0.8348  -0.8348  -0.8344
    -0.8343  -0.8331  -0.8323  -0.8311  -0.8291  -0.8242  -0.8242  -0.8224
    -0.8216  -0.8208  -0.8208  -0.8163  -0.8163  -0.8161  -0.8161  -0.8133
    -0.8123  -0.8122  -0.8113  -0.8113  -0.6941  -0.6941  -0.6256  -0.6256
    -0.6019  -0.5220  -0.4088  -0.4088  -0.3954  -0.3132  -0.3132  -0.2242
    -0.2242  -0.1674  -0.1674

          k = 0.0833 0.0833 0.1944 (241326 PWs)   bands (ev):

   -71.8049 -71.8049 -71.8049 -71.8049 -71.8049 -71.8049 -71.8049 -71.8049
   -71.8049 -71.8049 -71.8049 -71.8049 -71.8049 -71.8049 -71.8049 -71.8049
   -71.8048 -71.8048 -71.8048 -71.8048 -71.8048 -71.8048 -71.8048 -71.8048
   -71.8048 -71.8048 -71.8048 -71.8048 -71.8048 -71.8048 -71.8048 -71.8047
   -41.8945 -41.8945 -41.8945 -41.8945 -41.8945 -41.8945 -41.8945 -41.8945
   -41.8945 -41.8945 -41.8945 -41.8945 -41.8945 -41.8945 -41.8945 -41.8945
   -41.8945 -41.8945 -41.8945 -41.8945 -41.8945 -41.8945 -41.8945 -41.8945
   -41.8945 -41.8945 -41.8945 -41.8945 -41.8945 -41.8945 -41.8945 -41.8945
   -41.8945 -41.8945 -41.8945 -41.8945 -41.8945 -41.8945 -41.8945 -41.8945
   -41.8945 -41.8945 -41.8945 -41.8945 -41.8945 -41.8945 -41.8945 -41.8945
   -41.8945 -41.8945 -41.8945 -41.8945 -41.8945 -41.8945 -41.8945 -41.8945
   -41.8945 -41.8945 -41.8945 -41.8945 -41.8945 -41.8945 -41.8945 -41.8945
   -41.8945 -41.8945 -41.8945 -41.8945 -41.8945 -41.8945 -41.8945 -41.8945
   -41.8945 -41.8945 -41.8944 -41.8944 -41.8944 -41.8944 -41.8944 -41.8944
   -41.8944 -41.8944 -41.8944 -41.8944 -41.8944 -41.8944 -41.8944 -41.8944
   -41.8944 -41.8944 -41.8944 -41.8944 -41.8944 -41.8944 -41.8944 -41.8944
    -1.4483  -1.3214  -1.1123  -1.1123  -1.0662  -1.0562  -1.0562  -1.0458
    -1.0386  -1.0386  -1.0309  -1.0150  -1.0124  -1.0124  -1.0113  -1.0113
    -1.0064  -1.0062  -1.0035  -0.9981  -0.9981  -0.9960  -0.9960  -0.9956
    -0.9940  -0.9940  -0.9860  -0.9860  -0.9844  -0.9844  -0.9791  -0.9791
    -0.9722  -0.9722  -0.9649  -0.9649  -0.9645  -0.9645  -0.9643  -0.9643
    -0.9533  -0.9533  -0.9515  -0.9487  -0.9487  -0.9484  -0.9484  -0.9417
    -0.9405  -0.9405  -0.9403  -0.9403  -0.9402  -0.9396  -0.9386  -0.9386
    -0.9369  -0.9369  -0.9360  -0.9360  -0.9313  -0.9313  -0.9311  -0.9306
    -0.9278  -0.9268  -0.9268  -0.9247  -0.9246  -0.9184  -0.9184  -0.9173
    -0.9173  -0.9173  -0.9167  -0.9167  -0.9165  -0.9145  -0.9145  -0.9128
    -0.9125  -0.9125  -0.9124  -0.9055  -0.9055  -0.9050  -0.9050  -0.9018
    -0.9015  -0.9015  -0.9000  -0.9000  -0.8994  -0.8994  -0.8954  -0.8954
    -0.8828  -0.8798  -0.8754  -0.8754  -0.8739  -0.8739  -0.8718  -0.8718
    -0.8717  -0.8717  -0.8712  -0.8712  -0.8701  -0.8691  -0.8690  -0.8660
    -0.8660  -0.8643  -0.8643  -0.8640  -0.8626  -0.8603  -0.8603  -0.8592
    -0.8592  -0.8568  -0.8551  -0.8509  -0.8499  -0.8499  -0.8493  -0.8466
    -0.8466  -0.8461  -0.8426  -0.8426  -0.8407  -0.8407  -0.8389  -0.8376
    -0.8353  -0.8353  -0.8344  -0.8344  -0.8342  -0.8338  -0.8338  -0.8337
    -0.8322  -0.8322  -0.8319  -0.8319  -0.8294  -0.8259  -0.8242  -0.8228
    -0.8228  -0.8217  -0.8217  -0.8213  -0.8213  -0.8187  -0.8187  -0.8168
    -0.8121  -0.8121  -0.8117  -0.8117  -0.7486  -0.7486  -0.5850  -0.5850
    -0.5674  -0.4757  -0.4757  -0.4618  -0.3741  -0.2822  -0.2822  -0.2050
    -0.2050  -0.1129  -0.1129

          k = 0.0833 0.0833-0.2500 (241500 PWs)   bands (ev):

   -71.8049 -71.8049 -71.8049 -71.8049 -71.8049 -71.8049 -71.8049 -71.8049
   -71.8049 -71.8049 -71.8049 -71.8049 -71.8049 -71.8049 -71.8049 -71.8049
   -71.8049 -71.8048 -71.8048 -71.8048 -71.8048 -71.8048 -71.8048 -71.8048
   -71.8048 -71.8048 -71.8048 -71.8048 -71.8048 -71.8048 -71.8048 -71.8047
   -41.8945 -41.8945 -41.8945 -41.8945 -41.8945 -41.8945 -41.8945 -41.8945
   -41.8945 -41.8945 -41.8945 -41.8945 -41.8945 -41.8945 -41.8945 -41.8945
   -41.8945 -41.8945 -41.8945 -41.8945 -41.8945 -41.8945 -41.8945 -41.8945
   -41.8945 -41.8945 -41.8945 -41.8945 -41.8945 -41.8945 -41.8945 -41.8945
   -41.8945 -41.8945 -41.8945 -41.8945 -41.8945 -41.8945 -41.8945 -41.8945
   -41.8945 -41.8945 -41.8945 -41.8945 -41.8945 -41.8945 -41.8945 -41.8945
   -41.8945 -41.8945 -41.8945 -41.8945 -41.8945 -41.8945 -41.8945 -41.8945
   -41.8945 -41.8945 -41.8945 -41.8945 -41.8945 -41.8945 -41.8945 -41.8945
   -41.8945 -41.8945 -41.8945 -41.8945 -41.8945 -41.8945 -41.8945 -41.8945
   -41.8945 -41.8945 -41.8945 -41.8945 -41.8945 -41.8945 -41.8945 -41.8945
   -41.8945 -41.8944 -41.8944 -41.8944 -41.8944 -41.8944 -41.8944 -41.8944
   -41.8944 -41.8944 -41.8944 -41.8944 -41.8944 -41.8944 -41.8944 -41.8944
    -1.3912  -1.3912  -1.0839  -1.0839  -1.0839  -1.0839  -1.0578  -1.0578
    -1.0261  -1.0261  -1.0261  -1.0261  -1.0171  -1.0171  -1.0106  -1.0106
    -1.0042  -1.0042  -1.0042  -1.0042  -1.0013  -1.0013  -0.9923  -0.9923
    -0.9923  -0.9923  -0.9846  -0.9846  -0.9846  -0.9846  -0.9824  -0.9824
    -0.9824  -0.9824  -0.9630  -0.9630  -0.9630  -0.9630  -0.9510  -0.9510
    -0.9510  -0.9510  -0.9492  -0.9492  -0.9492  -0.9492  -0.9462  -0.9461
    -0.9460  -0.9460  -0.9460  -0.9460  -0.9407  -0.9407  -0.9396  -0.9396
    -0.9396  -0.9396  -0.9305  -0.9305  -0.9305  -0.9305  -0.9305  -0.9305
    -0.9232  -0.9232  -0.9193  -0.9193  -0.9193  -0.9193  -0.9191  -0.9191
    -0.9186  -0.9186  -0.9174  -0.9174  -0.9174  -0.9174  -0.9172  -0.9172
    -0.9172  -0.9172  -0.9121  -0.9121  -0.9121  -0.9121  -0.9095  -0.9095
    -0.9002  -0.9002  -0.9002  -0.9002  -0.8988  -0.8988  -0.8988  -0.8988
    -0.8825  -0.8825  -0.8728  -0.8728  -0.8728  -0.8728  -0.8702  -0.8702
    -0.8702  -0.8702  -0.8667  -0.8667  -0.8644  -0.8644  -0.8644  -0.8644
    -0.8606  -0.8606  -0.8606  -0.8606  -0.8605  -0.8605  -0.8605  -0.8605
    -0.8555  -0.8555  -0.8555  -0.8555  -0.8544  -0.8544  -0.8465  -0.8465
    -0.8436  -0.8436  -0.8433  -0.8433  -0.8392  -0.8392  -0.8392  -0.8392
    -0.8384  -0.8384  -0.8374  -0.8374  -0.8374  -0.8374  -0.8284  -0.8283
    -0.8279  -0.8279  -0.8279  -0.8279  -0.8274  -0.8274  -0.8274  -0.8274
    -0.8266  -0.8266  -0.8266  -0.8266  -0.8211  -0.8211  -0.8119  -0.8119
    -0.8119  -0.8119  -0.7890  -0.7890  -0.7890  -0.7890  -0.5347  -0.5347
    -0.5347  -0.5347  -0.5202  -0.5201  -0.2449  -0.2449  -0.2449  -0.2449
    -0.2192  -0.2192  -0.0737

          k = 0.0833 0.1389 0.1389 (241310 PWs)   bands (ev):

   -71.8049 -71.8049 -71.8049 -71.8049 -71.8049 -71.8049 -71.8049 -71.8049
   -71.8049 -71.8049 -71.8049 -71.8049 -71.8049 -71.8049 -71.8049 -71.8048
   -71.8048 -71.8048 -71.8048 -71.8048 -71.8048 -71.8048 -71.8048 -71.8048
   -71.8048 -71.8048 -71.8048 -71.8048 -71.8048 -71.8048 -71.8048 -71.8047
   -41.8945 -41.8945 -41.8945 -41.8945 -41.8945 -41.8945 -41.8945 -41.8945
   -41.8945 -41.8945 -41.8945 -41.8945 -41.8945 -41.8945 -41.8945 -41.8945
   -41.8945 -41.8945 -41.8945 -41.8945 -41.8945 -41.8945 -41.8945 -41.8945
   -41.8945 -41.8945 -41.8945 -41.8945 -41.8945 -41.8945 -41.8945 -41.8945
   -41.8945 -41.8945 -41.8945 -41.8945 -41.8945 -41.8945 -41.8945 -41.8945
   -41.8945 -41.8945 -41.8945 -41.8945 -41.8945 -41.8945 -41.8945 -41.8945
   -41.8945 -41.8945 -41.8945 -41.8945 -41.8945 -41.8945 -41.8945 -41.8945
   -41.8945 -41.8945 -41.8945 -41.8945 -41.8945 -41.8945 -41.8945 -41.8945
   -41.8945 -41.8945 -41.8945 -41.8945 -41.8945 -41.8945 -41.8945 -41.8945
   -41.8945 -41.8945 -41.8945 -41.8944 -41.8944 -41.8944 -41.8944 -41.8944
   -41.8944 -41.8944 -41.8944 -41.8944 -41.8944 -41.8944 -41.8944 -41.8944
   -41.8944 -41.8944 -41.8944 -41.8944 -41.8944 -41.8944 -41.8944 -41.8944
    -1.4630  -1.2187  -1.2187  -1.1229  -1.0727  -1.0652  -1.0459  -1.0459
    -1.0437  -1.0366  -1.0366  -1.0169  -1.0156  -1.0156  -1.0048  -1.0029
    -1.0029  -1.0011  -1.0011  -0.9974  -0.9974  -0.9970  -0.9904  -0.9904
    -0.9892  -0.9870  -0.9870  -0.9856  -0.9856  -0.9811  -0.9811  -0.9802
    -0.9802  -0.9752  -0.9752  -0.9736  -0.9736  -0.9641  -0.9577  -0.9577
    -0.9540  -0.9540  -0.9520  -0.9509  -0.9509  -0.9449  -0.9449  -0.9441
    -0.9441  -0.9409  -0.9409  -0.9398  -0.9398  -0.9386  -0.9386  -0.9384
    -0.9377  -0.9377  -0.9344  -0.9344  -0.9316  -0.9316  -0.9307  -0.9290
    -0.9281  -0.9265  -0.9251  -0.9251  -0.9224  -0.9204  -0.9183  -0.9183
    -0.9156  -0.9123  -0.9123  -0.9111  -0.9111  -0.9095  -0.9095  -0.9060
    -0.9060  -0.9060  -0.9054  -0.9054  -0.9031  -0.9031  -0.9024  -0.8998
[...]
   -41.8945 -41.8945 -41.8945 -41.8945 -41.8945 -41.8945 -41.8945 -41.8945
   -41.8945 -41.8944 -41.8944 -41.8944 -41.8944 -41.8944 -41.8944 -41.8944
   -41.8944 -41.8944 -41.8944 -41.8944 -41.8944 -41.8944 -41.8944 -41.8944
   -41.8944 -41.8944 -41.8944 -41.8944 -41.8944 -41.8944 -41.8944 -41.8944
    -1.2522  -1.2522  -1.2522  -1.2522  -1.1102  -1.1102  -1.1102  -1.1102
    -1.0098  -1.0098  -1.0098  -1.0098  -1.0032  -1.0032  -1.0032  -1.0032
    -1.0002  -1.0002  -1.0002  -1.0002  -1.0002  -1.0002  -1.0002  -1.0002
    -0.9983  -0.9983  -0.9983  -0.9983  -0.9983  -0.9983  -0.9983  -0.9983
    -0.9615  -0.9615  -0.9615  -0.9615  -0.9615  -0.9615  -0.9615  -0.9615
    -0.9500  -0.9500  -0.9500  -0.9500  -0.9397  -0.9397  -0.9397  -0.9397
    -0.9397  -0.9397  -0.9397  -0.9397  -0.9356  -0.9356  -0.9356  -0.9356
    -0.9316  -0.9316  -0.9316  -0.9316  -0.9252  -0.9252  -0.9252  -0.9252
    -0.9199  -0.9199  -0.9199  -0.9199  -0.9191  -0.9190  -0.9190  -0.9190
    -0.9132  -0.9132  -0.9132  -0.9132  -0.8950  -0.8950  -0.8950  -0.8950
    -0.8941  -0.8941  -0.8941  -0.8941  -0.8923  -0.8923  -0.8923  -0.8923
    -0.8923  -0.8923  -0.8923  -0.8923  -0.8835  -0.8835  -0.8835  -0.8835
    -0.8835  -0.8835  -0.8835  -0.8835  -0.8790  -0.8790  -0.8790  -0.8790
    -0.8790  -0.8790  -0.8790  -0.8790  -0.8773  -0.8773  -0.8773  -0.8773
    -0.8765  -0.8765  -0.8765  -0.8765  -0.8710  -0.8709  -0.8709  -0.8709
    -0.8630  -0.8630  -0.8630  -0.8630  -0.8571  -0.8571  -0.8571  -0.8571
    -0.8571  -0.8571  -0.8571  -0.8571  -0.8560  -0.8560  -0.8560  -0.8560
    -0.8465  -0.8465  -0.8465  -0.8465  -0.8209  -0.8209  -0.8209  -0.8209
    -0.8209  -0.8209  -0.8209  -0.8209  -0.8199  -0.8199  -0.8199  -0.8199
    -0.8198  -0.8198  -0.8198  -0.8198  -0.8189  -0.8189  -0.8189  -0.8189
    -0.8189  -0.8189  -0.8189  -0.8189  -0.7924  -0.7924  -0.7924  -0.7924
    -0.3079  -0.3079  -0.3079  -0.3079  -0.1197  -0.1197  -0.1197  -0.1197
    -0.1197  -0.1197  -0.1197

          k = 0.1944 0.1944 0.1944 (241313 PWs)   bands (ev):

   -71.8049 -71.8049 -71.8049 -71.8049 -71.8049 -71.8049 -71.8049 -71.8049
   -71.8049 -71.8049 -71.8049 -71.8049 -71.8049 -71.8049 -71.8049 -71.8049
   -71.8048 -71.8048 -71.8048 -71.8048 -71.8048 -71.8048 -71.8048 -71.8048
   -71.8048 -71.8048 -71.8048 -71.8048 -71.8048 -71.8048 -71.8048 -71.8047
   -41.8945 -41.8945 -41.8945 -41.8945 -41.8945 -41.8945 -41.8945 -41.8945
   -41.8945 -41.8945 -41.8945 -41.8945 -41.8945 -41.8945 -41.8945 -41.8945
   -41.8945 -41.8945 -41.8945 -41.8945 -41.8945 -41.8945 -41.8945 -41.8945
   -41.8945 -41.8945 -41.8945 -41.8945 -41.8945 -41.8945 -41.8945 -41.8945
   -41.8945 -41.8945 -41.8945 -41.8945 -41.8945 -41.8945 -41.8945 -41.8945
   -41.8945 -41.8945 -41.8945 -41.8945 -41.8945 -41.8945 -41.8945 -41.8945
   -41.8945 -41.8945 -41.8945 -41.8945 -41.8945 -41.8945 -41.8945 -41.8945
   -41.8945 -41.8945 -41.8945 -41.8945 -41.8945 -41.8945 -41.8945 -41.8945
   -41.8945 -41.8945 -41.8945 -41.8945 -41.8945 -41.8945 -41.8945 -41.8944
   -41.8944 -41.8944 -41.8944 -41.8944 -41.8944 -41.8944 -41.8944 -41.8944
   -41.8944 -41.8944 -41.8944 -41.8944 -41.8944 -41.8944 -41.8944 -41.8944
   -41.8944 -41.8944 -41.8944 -41.8944 -41.8944 -41.8944 -41.8944 -41.8944
    -1.3145  -1.2089  -1.2089  -1.2089  -1.1358  -1.1358  -1.1358  -1.1047
    -1.0099  -1.0099  -1.0099  -1.0072  -1.0072  -1.0072  -1.0038  -1.0038
    -1.0038  -0.9998  -0.9998  -0.9998  -0.9998  -0.9998  -0.9998  -0.9992
    -0.9992  -0.9992  -0.9979  -0.9979  -0.9979  -0.9979  -0.9979  -0.9979
    -0.9679  -0.9679  -0.9679  -0.9552  -0.9552  -0.9552  -0.9469  -0.9469
    -0.9469  -0.9469  -0.9469  -0.9469  -0.9398  -0.9398  -0.9398  -0.9398
    -0.9398  -0.9398  -0.9382  -0.9382  -0.9382  -0.9353  -0.9353  -0.9353
    -0.9280  -0.9280  -0.9280  -0.9278  -0.9247  -0.9247  -0.9242  -0.9242
    -0.9242  -0.9220  -0.9220  -0.9200  -0.9200  -0.9200  -0.9179  -0.9179
    -0.9179  -0.9098  -0.9098  -0.9098  -0.9002  -0.9002  -0.9002  -0.9002
    -0.9002  -0.9002  -0.8979  -0.8979  -0.8979  -0.8870  -0.8870  -0.8870
    -0.8870  -0.8870  -0.8870  -0.8835  -0.8835  -0.8835  -0.8831  -0.8831
    -0.8831  -0.8820  -0.8820  -0.8820  -0.8790  -0.8790  -0.8790  -0.8788
    -0.8788  -0.8788  -0.8777  -0.8777  -0.8777  -0.8777  -0.8777  -0.8777
    -0.8742  -0.8742  -0.8742  -0.8708  -0.8708  -0.8663  -0.8663  -0.8663
    -0.8637  -0.8637  -0.8637  -0.8637  -0.8637  -0.8637  -0.8630  -0.8630
    -0.8630  -0.8613  -0.8613  -0.8613  -0.8586  -0.8586  -0.8586  -0.8580
    -0.8580  -0.8580  -0.8495  -0.8495  -0.8221  -0.8221  -0.8221  -0.8216
    -0.8216  -0.8216  -0.8202  -0.8202  -0.8202  -0.8202  -0.8202  -0.8202
    -0.8189  -0.8189  -0.8189  -0.8189  -0.8189  -0.8189  -0.8188  -0.8188
    -0.8188  -0.8187  -0.8187  -0.8187  -0.8159  -0.8159  -0.8158  -0.7596
    -0.2626  -0.2626  -0.2626  -0.1796  -0.1796  -0.1796  -0.1796  -0.1796
    -0.1796  -0.1165  -0.1165

          k = 0.1944 0.1944-0.2500 (241346 PWs)   bands (ev):

   -71.8049 -71.8049 -71.8049 -71.8049 -71.8049 -71.8049 -71.8049 -71.8049
   -71.8049 -71.8049 -71.8049 -71.8049 -71.8049 -71.8049 -71.8049 -71.8049
   -71.8049 -71.8048 -71.8048 -71.8048 -71.8048 -71.8048 -71.8048 -71.8048
   -71.8048 -71.8048 -71.8048 -71.8048 -71.8048 -71.8048 -71.8048 -71.8047
   -41.8945 -41.8945 -41.8945 -41.8945 -41.8945 -41.8945 -41.8945 -41.8945
   -41.8945 -41.8945 -41.8945 -41.8945 -41.8945 -41.8945 -41.8945 -41.8945
   -41.8945 -41.8945 -41.8945 -41.8945 -41.8945 -41.8945 -41.8945 -41.8945
   -41.8945 -41.8945 -41.8945 -41.8945 -41.8945 -41.8945 -41.8945 -41.8945
   -41.8945 -41.8945 -41.8945 -41.8945 -41.8945 -41.8945 -41.8945 -41.8945
   -41.8945 -41.8945 -41.8945 -41.8945 -41.8945 -41.8945 -41.8945 -41.8945
   -41.8945 -41.8945 -41.8945 -41.8945 -41.8945 -41.8945 -41.8945 -41.8945
   -41.8945 -41.8945 -41.8945 -41.8945 -41.8945 -41.8945 -41.8945 -41.8945
   -41.8945 -41.8945 -41.8945 -41.8945 -41.8945 -41.8945 -41.8945 -41.8945
   -41.8945 -41.8945 -41.8944 -41.8944 -41.8944 -41.8944 -41.8944 -41.8944
   -41.8944 -41.8944 -41.8944 -41.8944 -41.8944 -41.8944 -41.8944 -41.8944
   -41.8944 -41.8944 -41.8944 -41.8944 -41.8944 -41.8944 -41.8944 -41.8944
    -1.2657  -1.2657  -1.1735  -1.1735  -1.1734  -1.1734  -1.1205  -1.1205
    -1.0056  -1.0056  -1.0056  -1.0056  -1.0051  -1.0051  -1.0037  -1.0037
    -1.0037  -1.0037  -1.0032  -1.0032  -1.0027  -1.0027  -1.0027  -1.0027
    -0.9995  -0.9995  -0.9995  -0.9995  -0.9980  -0.9980  -0.9980  -0.9980
    -0.9621  -0.9621  -0.9568  -0.9568  -0.9568  -0.9568  -0.9454  -0.9454
    -0.9454  -0.9454  -0.9434  -0.9434  -0.9434  -0.9434  -0.9395  -0.9395
    -0.9395  -0.9395  -0.9377  -0.9377  -0.9377  -0.9377  -0.9372  -0.9372
    -0.9262  -0.9262  -0.9242  -0.9242  -0.9242  -0.9242  -0.9236  -0.9236
    -0.9230  -0.9230  -0.9204  -0.9204  -0.9194  -0.9194  -0.9194  -0.9194
    -0.9165  -0.9165  -0.8959  -0.8959  -0.8959  -0.8959  -0.8942  -0.8942
    -0.8942  -0.8942  -0.8941  -0.8941  -0.8941  -0.8941  -0.8930  -0.8930
    -0.8930  -0.8930  -0.8901  -0.8901  -0.8852  -0.8852  -0.8852  -0.8852
    -0.8845  -0.8845  -0.8845  -0.8845  -0.8815  -0.8815  -0.8771  -0.8771
    -0.8771  -0.8771  -0.8741  -0.8741  -0.8741  -0.8741  -0.8737  -0.8737
    -0.8737  -0.8737  -0.8716  -0.8715  -0.8709  -0.8709  -0.8703  -0.8703
    -0.8703  -0.8703  -0.8662  -0.8662  -0.8647  -0.8647  -0.8641  -0.8641
    -0.8641  -0.8641  -0.8612  -0.8612  -0.8612  -0.8612  -0.8578  -0.8578
    -0.8560  -0.8560  -0.8465  -0.8465  -0.8465  -0.8465  -0.8201  -0.8201
    -0.8201  -0.8201  -0.8198  -0.8198  -0.8191  -0.8191  -0.8190  -0.8190
    -0.8188  -0.8188  -0.8188  -0.8188  -0.8187  -0.8187  -0.8187  -0.8187
    -0.8170  -0.8170  -0.8170  -0.8170  -0.8168  -0.8168  -0.8058  -0.8057
    -0.2238  -0.2238  -0.2237  -0.2237  -0.1489  -0.1488  -0.1488  -0.1488
    -0.1281  -0.1280  -0.0645

          k = 0.1944-0.2500-0.2500 (241400 PWs)   bands (ev):

   -71.8049 -71.8049 -71.8049 -71.8049 -71.8049 -71.8049 -71.8049 -71.8049
   -71.8049 -71.8049 -71.8049 -71.8049 -71.8049 -71.8049 -71.8049 -71.8049
   -71.8049 -71.8048 -71.8048 -71.8048 -71.8048 -71.8048 -71.8048 -71.8048
   -71.8048 -71.8048 -71.8048 -71.8048 -71.8048 -71.8048 -71.8048 -71.8047
   -41.8945 -41.8945 -41.8945 -41.8945 -41.8945 -41.8945 -41.8945 -41.8945
   -41.8945 -41.8945 -41.8945 -41.8945 -41.8945 -41.8945 -41.8945 -41.8945
   -41.8945 -41.8945 -41.8945 -41.8945 -41.8945 -41.8945 -41.8945 -41.8945
   -41.8945 -41.8945 -41.8945 -41.8945 -41.8945 -41.8945 -41.8945 -41.8945
   -41.8945 -41.8945 -41.8945 -41.8945 -41.8945 -41.8945 -41.8945 -41.8945
   -41.8945 -41.8945 -41.8945 -41.8945 -41.8945 -41.8945 -41.8945 -41.8945
   -41.8945 -41.8945 -41.8945 -41.8945 -41.8945 -41.8945 -41.8945 -41.8945
   -41.8945 -41.8945 -41.8945 -41.8945 -41.8945 -41.8945 -41.8945 -41.8945
   -41.8945 -41.8945 -41.8945 -41.8945 -41.8945 -41.8945 -41.8945 -41.8945
   -41.8945 -41.8945 -41.8945 -41.8945 -41.8944 -41.8944 -41.8944 -41.8944
   -41.8944 -41.8944 -41.8944 -41.8944 -41.8944 -41.8944 -41.8944 -41.8944
   -41.8944 -41.8944 -41.8944 -41.8944 -41.8944 -41.8944 -41.8944 -41.8944
    -1.2222  -1.2222  -1.2222  -1.2222  -1.1473  -1.1473  -1.1473  -1.1473
    -1.0050  -1.0050  -1.0050  -1.0050  -1.0027  -1.0027  -1.0027  -1.0027
    -1.0026  -1.0026  -1.0026  -1.0026  -1.0026  -1.0026  -1.0026  -1.0026
    -1.0014  -1.0014  -1.0014  -1.0014  -1.0014  -1.0014  -1.0014  -1.0014
    -0.9515  -0.9515  -0.9515  -0.9515  -0.9515  -0.9515  -0.9515  -0.9515
    -0.9469  -0.9469  -0.9469  -0.9469  -0.9392  -0.9392  -0.9392  -0.9392
    -0.9386  -0.9386  -0.9386  -0.9386  -0.9386  -0.9386  -0.9386  -0.9386
    -0.9232  -0.9232  -0.9232  -0.9232  -0.9228  -0.9228  -0.9228  -0.9228
    -0.9214  -0.9214  -0.9214  -0.9214  -0.9208  -0.9208  -0.9208  -0.9208
    -0.9068  -0.9068  -0.9068  -0.9068  -0.8906  -0.8906  -0.8906  -0.8906
    -0.8895  -0.8895  -0.8895  -0.8895  -0.8895  -0.8895  -0.8895  -0.8895
    -0.8864  -0.8864  -0.8864  -0.8864  -0.8833  -0.8833  -0.8833  -0.8833
    -0.8833  -0.8833  -0.8833  -0.8833  -0.8801  -0.8801  -0.8801  -0.8801
    -0.8801  -0.8801  -0.8801  -0.8801  -0.8772  -0.8772  -0.8772  -0.8772
    -0.8730  -0.8730  -0.8730  -0.8730  -0.8704  -0.8704  -0.8704  -0.8704
    -0.8695  -0.8695  -0.8695  -0.8695  -0.8688  -0.8688  -0.8688  -0.8688
    -0.8688  -0.8688  -0.8688  -0.8688  -0.8592  -0.8592  -0.8592  -0.8592
    -0.8541  -0.8541  -0.8541  -0.8541  -0.8432  -0.8432  -0.8432  -0.8432
    -0.8188  -0.8188  -0.8188  -0.8188  -0.8188  -0.8188  -0.8188  -0.8188
    -0.8181  -0.8181  -0.8181  -0.8181  -0.8180  -0.8180  -0.8180  -0.8180
    -0.8174  -0.8174  -0.8174  -0.8174  -0.8174  -0.8173  -0.8173  -0.8173
    -0.1882  -0.1882  -0.1882  -0.1882  -0.0978  -0.0978  -0.0978  -0.0978
    -0.0978  -0.0978  -0.0977

          k =-0.2500-0.2500-0.2500 (241472 PWs)   bands (ev):

   -71.8049 -71.8049 -71.8049 -71.8049 -71.8049 -71.8049 -71.8049 -71.8049
   -71.8049 -71.8049 -71.8049 -71.8049 -71.8049 -71.8049 -71.8049 -71.8049
   -71.8049 -71.8049 -71.8049 -71.8049 -71.8048 -71.8048 -71.8048 -71.8048
   -71.8048 -71.8048 -71.8048 -71.8048 -71.8048 -71.8048 -71.8048 -71.8047
   -41.8945 -41.8945 -41.8945 -41.8945 -41.8945 -41.8945 -41.8945 -41.8945
   -41.8945 -41.8945 -41.8945 -41.8945 -41.8945 -41.8945 -41.8945 -41.8945
   -41.8945 -41.8945 -41.8945 -41.8945 -41.8945 -41.8945 -41.8945 -41.8945
   -41.8945 -41.8945 -41.8945 -41.8945 -41.8945 -41.8945 -41.8945 -41.8945
   -41.8945 -41.8945 -41.8945 -41.8945 -41.8945 -41.8945 -41.8945 -41.8945
   -41.8945 -41.8945 -41.8945 -41.8945 -41.8945 -41.8945 -41.8945 -41.8945
   -41.8945 -41.8945 -41.8945 -41.8945 -41.8945 -41.8945 -41.8945 -41.8945
   -41.8945 -41.8945 -41.8945 -41.8945 -41.8945 -41.8945 -41.8945 -41.8945
   -41.8945 -41.8945 -41.8945 -41.8945 -41.8945 -41.8945 -41.8945 -41.8945
   -41.8945 -41.8945 -41.8945 -41.8945 -41.8945 -41.8945 -41.8945 -41.8945
   -41.8945 -41.8945 -41.8945 -41.8945 -41.8944 -41.8944 -41.8944 -41.8944
   -41.8944 -41.8944 -41.8944 -41.8944 -41.8944 -41.8944 -41.8944 -41.8944
    -1.1860  -1.1860  -1.1860  -1.1860  -1.1860  -1.1860  -1.1860  -1.1860
    -1.0030  -1.0030  -1.0030  -1.0030  -1.0030  -1.0030  -1.0030  -1.0030
    -1.0030  -1.0030  -1.0030  -1.0030  -1.0030  -1.0030  -1.0030  -1.0030
    -1.0030  -1.0030  -1.0030  -1.0030  -1.0030  -1.0030  -1.0030  -1.0030
    -0.9432  -0.9432  -0.9432  -0.9432  -0.9432  -0.9432  -0.9432  -0.9432
    -0.9432  -0.9432  -0.9432  -0.9432  -0.9432  -0.9432  -0.9432  -0.9432
    -0.9432  -0.9432  -0.9432  -0.9432  -0.9432  -0.9432  -0.9432  -0.9432
    -0.9217  -0.9217  -0.9217  -0.9217  -0.9217  -0.9217  -0.9217  -0.9217
    -0.9217  -0.9217  -0.9217  -0.9217  -0.9217  -0.9217  -0.9217  -0.9217
    -0.8858  -0.8858  -0.8858  -0.8858  -0.8858  -0.8858  -0.8858  -0.8858
    -0.8842  -0.8842  -0.8842  -0.8842  -0.8842  -0.8842  -0.8842  -0.8842
    -0.8842  -0.8842  -0.8842  -0.8842  -0.8842  -0.8842  -0.8842  -0.8842
    -0.8842  -0.8842  -0.8842  -0.8842  -0.8842  -0.8842  -0.8842  -0.8842
    -0.8784  -0.8784  -0.8784  -0.8784  -0.8784  -0.8784  -0.8783  -0.8783
    -0.8783  -0.8783  -0.8783  -0.8783  -0.8783  -0.8783  -0.8783  -0.8783
    -0.8783  -0.8783  -0.8783  -0.8783  -0.8783  -0.8783  -0.8783  -0.8783
    -0.8619  -0.8619  -0.8619  -0.8619  -0.8619  -0.8619  -0.8619  -0.8619
    -0.8619  -0.8619  -0.8619  -0.8619  -0.8619  -0.8619  -0.8619  -0.8619
    -0.8174  -0.8174  -0.8174  -0.8174  -0.8174  -0.8174  -0.8174  -0.8174
    -0.8174  -0.8174  -0.8174  -0.8174  -0.8174  -0.8174  -0.8174  -0.8174
    -0.8174  -0.8174  -0.8174  -0.8174  -0.8174  -0.8174  -0.8174  -0.8174
    -0.0721  -0.0721  -0.0721  -0.0721  -0.0721  -0.0721  -0.0721  -0.0721
    -0.0721  -0.0721  -0.0721

     the Fermi energy is    -0.6432 ev

!    total energy              =  -13794.89676476 Ry

     total all-electron energy =   -289971.287104 Ry
     estimated scf accuracy    <       0.00000046 Ry
     smearing contrib. (-TS)   =      -1.12798806 Ry
     internal energy E=F+TS    =  -13793.76877670 Ry

     The total energy is F=E-TS. E is the sum of the following terms:
     one-electron contribution =   -5366.39054695 Ry
     hartree contribution      =    2687.32916026 Ry
     xc contribution           =    -917.59001121 Ry
     ewald contribution        =   -2608.27709105 Ry
     one-center paw contrib.   =   -7588.84028774 Ry

     convergence has been achieved in  37 iterations

     Forces acting on atoms (cartesian axes, Ry/au):

     atom    1 type  1   force =     0.00000000    0.00000000    0.00000000
     atom    2 type  1   force =    -0.00000169   -0.00000169    0.00000000
     atom    3 type  1   force =    -0.00000169   -0.00000000   -0.00000169
     atom    4 type  1   force =    -0.00000000   -0.00000169   -0.00000169
     atom    5 type  1   force =     0.00000000    0.00000000    0.00000000
     atom    6 type  1   force =    -0.00000631   -0.00000631    0.00000000
     atom    7 type  1   force =    -0.00000169    0.00000000    0.00000169
     atom    8 type  1   force =     0.00000000   -0.00000169    0.00000169
     atom    9 type  1   force =     0.00000000    0.00000000    0.00000000
     atom   10 type  1   force =    -0.00000169    0.00000169    0.00000000
     atom   11 type  1   force =    -0.00000631    0.00000000   -0.00000631
     atom   12 type  1   force =     0.00000000    0.00000169   -0.00000169
     atom   13 type  1   force =     0.00000000    0.00000000    0.00000000
     atom   14 type  1   force =    -0.00000631    0.00000631    0.00000000
     atom   15 type  1   force =    -0.00000631    0.00000000    0.00000631
     atom   16 type  1   force =    -0.00000000    0.00000169    0.00000169
     atom   17 type  1   force =     0.00000000    0.00000000    0.00000000
     atom   18 type  1   force =     0.00000169   -0.00000169    0.00000000
     atom   19 type  1   force =     0.00000169    0.00000000   -0.00000169
     atom   20 type  1   force =     0.00000000   -0.00000631   -0.00000631
     atom   21 type  1   force =     0.00000000    0.00000000    0.00000000
     atom   22 type  1   force =     0.00000631   -0.00000631    0.00000000
     atom   23 type  1   force =     0.00000169   -0.00000000    0.00000169
     atom   24 type  1   force =     0.00000000   -0.00000631    0.00000631
     atom   25 type  1   force =     0.00000000    0.00000000    0.00000000
     atom   26 type  1   force =     0.00000169    0.00000169    0.00000000
     atom   27 type  1   force =     0.00000631    0.00000000   -0.00000631
     atom   28 type  1   force =     0.00000000    0.00000631   -0.00000631
     atom   29 type  1   force =     0.00000000    0.00000000    0.00000000
     atom   30 type  1   force =     0.00000631    0.00000631    0.00000000
     atom   31 type  1   force =     0.00000631    0.00000000    0.00000631
     atom   32 type  1   force =     0.00000000    0.00000631    0.00000631

     Total force =     0.000032     Total SCF correction =     0.000150
     SCF correction compared to forces is large: reduce conv_thr to get better values


     Computing stress (Cartesian axis) and pressure

          total   stress  (Ry/bohr**3)                   (kbar)     P=      -14.43
  -0.00009811   0.00000000   0.00000000          -14.43        0.00        0.00
   0.00000000  -0.00009811   0.00000000            0.00      -14.43        0.00
   0.00000000   0.00000000  -0.00009811            0.00        0.00      -14.43


     Writing output data file /scratch/hLVWAkkVOugoZVfZ.save/
 
     init_run     :     78.29s CPU     80.28s WALL (       1 calls)
     electrons    :   7983.11s CPU   8094.96s WALL (       1 calls)
     forces       :     21.11s CPU     21.36s WALL (       1 calls)
     stress       :    315.60s CPU    317.97s WALL (       1 calls)

     Called by init_run:
     wfcinit      :     75.10s CPU     76.87s WALL (       1 calls)
     potinit      :      0.46s CPU      0.49s WALL (       1 calls)
     hinit0       :      0.24s CPU      0.25s WALL (       1 calls)

     Called by electrons:
     c_bands      :   6989.53s CPU   7081.89s WALL (      37 calls)
     sum_band     :    975.92s CPU    991.78s WALL (      37 calls)
     v_of_rho     :      4.00s CPU      4.42s WALL (      38 calls)
     newd         :      8.07s CPU     10.91s WALL (      38 calls)
     PAW_pot      :      3.65s CPU      3.80s WALL (      38 calls)
     mix_rho      :      1.33s CPU      1.51s WALL (      37 calls)

     Called by c_bands:
     init_us_2    :     41.78s CPU     42.21s WALL (    2695 calls)
     cegterg      :   6839.82s CPU   6914.88s WALL (    1295 calls)

     Called by *egterg:
     cdiaghg      :    216.04s CPU    218.51s WALL (    6209 calls)
     h_psi        :   3984.10s CPU   4030.04s WALL (    6244 calls)
     s_psi        :    330.20s CPU    332.36s WALL (    6244 calls)
     g_psi        :     14.39s CPU     14.57s WALL (    4914 calls)

     Called by h_psi:
     h_psi:calbec :    391.62s CPU    394.45s WALL (    6244 calls)
     vloc_psi     :   3232.00s CPU   3271.73s WALL (    6244 calls)
     add_vuspsi   :    333.48s CPU    336.01s WALL (    6244 calls)

     General routines
     calbec       :    571.51s CPU    575.76s WALL (    7714 calls)
     fft          :      3.90s CPU      4.05s WALL (     517 calls)
     ffts         :      0.38s CPU      0.39s WALL (      75 calls)
     fftw         :   3640.65s CPU   3686.88s WALL ( 2393077 calls)
     interpolate  :      0.70s CPU      0.72s WALL (      38 calls)
 
     Parallel routines
     fft_scatt_xy :    421.60s CPU    425.85s WALL ( 2393669 calls)
     fft_scatt_yz :   2321.18s CPU   2355.42s WALL ( 2393669 calls)
 
     PWSCF        :      2h20m CPU      2h22m WALL

 
   This run was terminated on:  23:40:28  25Nov2021            

=------------------------------------------------------------------------------=
   JOB DONE.
=------------------------------------------------------------------------------=
