
     Program PWSCF v.6.7MaX starts on 25Nov2021 at 15:45:49 

     This program is part of the open-source Quantum ESPRESSO suite
     for quantum simulation of materials; please cite
         "P. Giannozzi et al., J. Phys.:Condens. Matter 21 395502 (2009);
         "P. Giannozzi et al., J. Phys.:Condens. Matter 29 465901 (2017);
          URL http://www.quantum-espresso.org", 
     in publications or presentations arising from this work. More details at
     http://www.quantum-espresso.org/quote

     Parallel version (MPI & OpenMP), running on      72 processor cores
     Number of MPI processes:                72
     Threads/MPI process:                     1

     MPI processes distributed on     1 nodes
     R & G space division:  proc/nbgrp/npool/nimage =      72
     Reading input from fcc_4.in
Warning: card &CELL ignored
Warning: card CELL_DYNAMICS = 'BFGS', ignored
Warning: card CELL_FACTOR = 2.0, ignored
Warning: card PRESS = 0.0, ignored
Warning: card / ignored

     Current dimensions of program PWSCF are:
     Max number of different atomic species (ntypx) = 10
     Max number of k-points (npk) =  40000
     Max angular momentum in pseudopotentials (lmaxx) =  3
     file Ru.pbe-spn-kjpaw_psl.1.0.0.UPF: wavefunction(s)  4D renormalized

     Subspace diagonalization in iterative solution of the eigenvalue problem:
     one sub-group per band group will be used
     ELPA distributed-memory algorithm (size of sub-group:  8*  8 procs)

     Found symmetry operation: I + (  0.2500  0.2500  0.0000)
     This is a supercell, fractional translations are disabled
     Message from routine setup:
     using ibrav=0 with symmetry is DISCOURAGED, use correct ibrav instead
 
     Parallelization info
     --------------------
     sticks:   dense  smooth     PW     G-vecs:    dense   smooth      PW
     Min         166     109     29                13712     7351    1015
     Max         167     110     30                13717     7356    1020
     Sum       11993    7909   2109               987395   529569   73223
 


     bravais-lattice index     =            0
     lattice parameter (alat)  =      14.4000  a.u.
     unit-cell volume          =    6560.2068 (a.u.)^3
     number of atoms/cell      =           32
     number of atomic types    =            1
     number of electrons       =       512.00
     number of Kohn-Sham states=          307
     kinetic-energy cutoff     =      71.0000  Ry
     charge density cutoff     =     430.0000  Ry
     scf convergence threshold =      1.0E-06
     mixing beta               =       0.1000
     number of iterations used =           10  TF        mixing
     Exchange-correlation= SLA  PW   PBX  PBC
                           (   1   4   3   4   0   0   0)

     celldm(1)=  14.400000  celldm(2)=   0.000000  celldm(3)=   0.000000
     celldm(4)=   0.000000  celldm(5)=   0.000000  celldm(6)=   0.000000

     crystal axes: (cart. coord. in units of alat)
               a(1) = (   1.300000   0.000000   0.000000 )  
               a(2) = (   0.000000   1.300000   0.000000 )  
               a(3) = (   0.000000   0.000000   1.300000 )  

     reciprocal axes: (cart. coord. in units 2 pi/alat)
               b(1) = (  0.769231  0.000000  0.000000 )  
               b(2) = (  0.000000  0.769231  0.000000 )  
               b(3) = (  0.000000  0.000000  0.769231 )  


     PseudoPot. # 1 for Ru read from file:
     /rds/homes/b/bxp912/pp/Ru.pbe-spn-kjpaw_psl.1.0.0.UPF
     MD5 check sum: 0ae1f594dea09af7be8575c3a481d1ae
     Pseudo is Projector augmented-wave + core cor, Zval = 16.0
     Generated using "atomic" code by A. Dal Corso  v.5.1
     Shape of augmentation charge: PSQ
     Using radial grid of 1233 points,  6 beta functions with: 
                l(1) =   0
                l(2) =   0
                l(3) =   1
                l(4) =   1
                l(5) =   2
                l(6) =   2
     Q(r) pseudized with 0 coefficients 


     atomic species   valence    mass     pseudopotential
        Ru            16.00   101.07000     Ru( 1.00)

     48 Sym. Ops., with inversion, found



   Cartesian axes

     site n.     atom                  positions (alat units)
         1           Ru  tau(   1) = (   0.0000000   0.0000000   0.0000000  )
         2           Ru  tau(   2) = (   0.3250000   0.3250000   0.0000000  )
         3           Ru  tau(   3) = (   0.3250000   0.0000000   0.3250000  )
         4           Ru  tau(   4) = (   0.0000000   0.3250000   0.3250000  )
         5           Ru  tau(   5) = (   0.0000000   0.0000000   0.6500000  )
         6           Ru  tau(   6) = (   0.3250000   0.3250000   0.6500000  )
         7           Ru  tau(   7) = (   0.3250000   0.0000000   0.9750000  )
         8           Ru  tau(   8) = (   0.0000000   0.3250000   0.9750000  )
         9           Ru  tau(   9) = (   0.0000000   0.6500000   0.0000000  )
        10           Ru  tau(  10) = (   0.3250000   0.9750000   0.0000000  )
        11           Ru  tau(  11) = (   0.3250000   0.6500000   0.3250000  )
        12           Ru  tau(  12) = (   0.0000000   0.9750000   0.3250000  )
        13           Ru  tau(  13) = (   0.0000000   0.6500000   0.6500000  )
        14           Ru  tau(  14) = (   0.3250000   0.9750000   0.6500000  )
        15           Ru  tau(  15) = (   0.3250000   0.6500000   0.9750000  )
        16           Ru  tau(  16) = (   0.0000000   0.9750000   0.9750000  )
        17           Ru  tau(  17) = (   0.6500000   0.0000000   0.0000000  )
        18           Ru  tau(  18) = (   0.9750000   0.3250000   0.0000000  )
        19           Ru  tau(  19) = (   0.9750000   0.0000000   0.3250000  )
        20           Ru  tau(  20) = (   0.6500000   0.3250000   0.3250000  )
        21           Ru  tau(  21) = (   0.6500000   0.0000000   0.6500000  )
        22           Ru  tau(  22) = (   0.9750000   0.3250000   0.6500000  )
        23           Ru  tau(  23) = (   0.9750000   0.0000000   0.9750000  )
        24           Ru  tau(  24) = (   0.6500000   0.3250000   0.9750000  )
        25           Ru  tau(  25) = (   0.6500000   0.6500000   0.0000000  )
        26           Ru  tau(  26) = (   0.9750000   0.9750000   0.0000000  )
        27           Ru  tau(  27) = (   0.9750000   0.6500000   0.3250000  )
        28           Ru  tau(  28) = (   0.6500000   0.9750000   0.3250000  )
        29           Ru  tau(  29) = (   0.6500000   0.6500000   0.6500000  )
        30           Ru  tau(  30) = (   0.9750000   0.9750000   0.6500000  )
        31           Ru  tau(  31) = (   0.9750000   0.6500000   0.9750000  )
        32           Ru  tau(  32) = (   0.6500000   0.9750000   0.9750000  )

     number of k points=    35  Marzari-Vanderbilt smearing, width (Ry)=  0.0400
                       cart. coord. in units 2pi/alat
        k(    1) = (   0.0427350   0.0427350   0.0427350), wk =   0.0219479
        k(    2) = (   0.0427350   0.0427350   0.1282051), wk =   0.0658436
        k(    3) = (   0.0427350   0.0427350   0.2136752), wk =   0.0658436
        k(    4) = (   0.0427350   0.0427350   0.2991453), wk =   0.0658436
        k(    5) = (   0.0427350   0.0427350  -0.3846154), wk =   0.0329218
        k(    6) = (   0.0427350   0.1282051   0.1282051), wk =   0.0658436
        k(    7) = (   0.0427350   0.1282051   0.2136752), wk =   0.1316872
        k(    8) = (   0.0427350   0.1282051   0.2991453), wk =   0.1316872
        k(    9) = (   0.0427350   0.1282051  -0.3846154), wk =   0.0658436
        k(   10) = (   0.0427350   0.2136752   0.2136752), wk =   0.0658436
        k(   11) = (   0.0427350   0.2136752   0.2991453), wk =   0.1316872
        k(   12) = (   0.0427350   0.2136752  -0.3846154), wk =   0.0658436
        k(   13) = (   0.0427350   0.2991453   0.2991453), wk =   0.0658436
        k(   14) = (   0.0427350   0.2991453  -0.3846154), wk =   0.0658436
        k(   15) = (   0.0427350  -0.3846154  -0.3846154), wk =   0.0164609
        k(   16) = (   0.1282051   0.1282051   0.1282051), wk =   0.0219479
        k(   17) = (   0.1282051   0.1282051   0.2136752), wk =   0.0658436
        k(   18) = (   0.1282051   0.1282051   0.2991453), wk =   0.0658436
        k(   19) = (   0.1282051   0.1282051  -0.3846154), wk =   0.0329218
        k(   20) = (   0.1282051   0.2136752   0.2136752), wk =   0.0658436
        k(   21) = (   0.1282051   0.2136752   0.2991453), wk =   0.1316872
        k(   22) = (   0.1282051   0.2136752  -0.3846154), wk =   0.0658436
        k(   23) = (   0.1282051   0.2991453   0.2991453), wk =   0.0658436
        k(   24) = (   0.1282051   0.2991453  -0.3846154), wk =   0.0658436
        k(   25) = (   0.1282051  -0.3846154  -0.3846154), wk =   0.0164609
        k(   26) = (   0.2136752   0.2136752   0.2136752), wk =   0.0219479
        k(   27) = (   0.2136752   0.2136752   0.2991453), wk =   0.0658436
        k(   28) = (   0.2136752   0.2136752  -0.3846154), wk =   0.0329218
        k(   29) = (   0.2136752   0.2991453   0.2991453), wk =   0.0658436
        k(   30) = (   0.2136752   0.2991453  -0.3846154), wk =   0.0658436
        k(   31) = (   0.2136752  -0.3846154  -0.3846154), wk =   0.0164609
        k(   32) = (   0.2991453   0.2991453   0.2991453), wk =   0.0219479
        k(   33) = (   0.2991453   0.2991453  -0.3846154), wk =   0.0329218
        k(   34) = (   0.2991453  -0.3846154  -0.3846154), wk =   0.0164609
        k(   35) = (  -0.3846154  -0.3846154  -0.3846154), wk =   0.0027435

     Dense  grid:   987395 G-vectors     FFT dimensions: ( 125, 125, 125)

     Smooth grid:   529569 G-vectors     FFT dimensions: ( 108, 108, 108)

     Estimated max dynamical RAM per process >     232.37 MB

     Estimated total dynamical RAM >      16.34 GB

     Check: negative core charge=   -0.000002

     Initial potential from superposition of free atoms

     starting charge  511.97959, renormalised to  512.00000
     Starting wfcs are  320 randomized atomic wfcs
     Checking if some PAW data can be deallocated... 

     total cpu time spent up to now is       28.6 secs

     Self-consistent Calculation

     iteration #  1     ecut=    71.00 Ry     beta= 0.10
     Davidson diagonalization with overlap
     ethr =  1.00E-02,  avg # of iterations =  3.8

     Threshold (ethr) on eigenvalues was too large:
     Diagonalizing with lowered threshold

     Davidson diagonalization with overlap
     ethr =  3.13E-04,  avg # of iterations =  4.8

     total cpu time spent up to now is      157.9 secs

     total energy              =  -13804.48289050 Ry
     estimated scf accuracy    <       0.81783309 Ry

     iteration #  2     ecut=    71.00 Ry     beta= 0.10
     Davidson diagonalization with overlap
     ethr =  1.60E-04,  avg # of iterations =  2.5

     total cpu time spent up to now is      213.7 secs

     total energy              =  -13804.33626201 Ry
     estimated scf accuracy    <       0.53148940 Ry

     iteration #  3     ecut=    71.00 Ry     beta= 0.10
     Davidson diagonalization with overlap
     ethr =  1.04E-04,  avg # of iterations =  3.0

     total cpu time spent up to now is      275.4 secs

     total energy              =  -13804.39854113 Ry
     estimated scf accuracy    <       0.05291497 Ry

     iteration #  4     ecut=    71.00 Ry     beta= 0.10
     Davidson diagonalization with overlap
     ethr =  1.03E-05,  avg # of iterations =  4.9

     total cpu time spent up to now is      340.4 secs

     total energy              =  -13804.40063166 Ry
     estimated scf accuracy    <       0.01247072 Ry

     iteration #  5     ecut=    71.00 Ry     beta= 0.10
     Davidson diagonalization with overlap
     ethr =  2.44E-06,  avg # of iterations =  2.0

     total cpu time spent up to now is      402.8 secs

     total energy              =  -13804.40213865 Ry
     estimated scf accuracy    <       0.00487895 Ry

     iteration #  6     ecut=    71.00 Ry     beta= 0.10
     Davidson diagonalization with overlap
     ethr =  9.53E-07,  avg # of iterations =  1.3

     total cpu time spent up to now is      452.2 secs

     total energy              =  -13804.40225433 Ry
     estimated scf accuracy    <       0.00127693 Ry

     iteration #  7     ecut=    71.00 Ry     beta= 0.10
     Davidson diagonalization with overlap
     ethr =  2.49E-07,  avg # of iterations =  3.6

     total cpu time spent up to now is      508.5 secs

     total energy              =  -13804.40239683 Ry
     estimated scf accuracy    <       0.00055169 Ry

     iteration #  8     ecut=    71.00 Ry     beta= 0.10
     Davidson diagonalization with overlap
     ethr =  1.08E-07,  avg # of iterations =  1.2

     total cpu time spent up to now is      553.4 secs

     total energy              =  -13804.40237997 Ry
     estimated scf accuracy    <       0.00043921 Ry

     iteration #  9     ecut=    71.00 Ry     beta= 0.10
     Davidson diagonalization with overlap
     ethr =  8.58E-08,  avg # of iterations =  1.9

     total cpu time spent up to now is      601.8 secs

     total energy              =  -13804.40239153 Ry
     estimated scf accuracy    <       0.00010729 Ry

     iteration # 10     ecut=    71.00 Ry     beta= 0.10
     Davidson diagonalization with overlap
     ethr =  2.10E-08,  avg # of iterations =  4.1

     total cpu time spent up to now is      659.4 secs

     total energy              =  -13804.40242181 Ry
     estimated scf accuracy    <       0.00006278 Ry

     iteration # 11     ecut=    71.00 Ry     beta= 0.10
     Davidson diagonalization with overlap
     ethr =  1.23E-08,  avg # of iterations =  4.0

     total cpu time spent up to now is      734.8 secs

     total energy              =  -13804.40241416 Ry
     estimated scf accuracy    <       0.00009312 Ry

     iteration # 12     ecut=    71.00 Ry     beta= 0.10
     Davidson diagonalization with overlap
     ethr =  1.23E-08,  avg # of iterations =  2.3

     total cpu time spent up to now is      794.5 secs

     total energy              =  -13804.40241233 Ry
     estimated scf accuracy    <       0.00002522 Ry

     iteration # 13     ecut=    71.00 Ry     beta= 0.10
     Davidson diagonalization with overlap
     ethr =  4.93E-09,  avg # of iterations =  4.4

     total cpu time spent up to now is      859.4 secs

     total energy              =  -13804.40241879 Ry
     estimated scf accuracy    <       0.00000675 Ry

     iteration # 14     ecut=    71.00 Ry     beta= 0.10
     Davidson diagonalization with overlap
     ethr =  1.32E-09,  avg # of iterations =  3.8

     total cpu time spent up to now is      918.8 secs

     total energy              =  -13804.40242118 Ry
     estimated scf accuracy    <       0.00000147 Ry

     iteration # 15     ecut=    71.00 Ry     beta= 0.10
     Davidson diagonalization with overlap
     ethr =  2.88E-10,  avg # of iterations =  2.0

     total cpu time spent up to now is      968.8 secs

     End of self-consistent calculation

          k = 0.0427 0.0427 0.0427 ( 66326 PWs)   bands (ev):

   -64.3460 -64.3436 -64.3436 -64.3436 -64.3432 -64.3432 -64.3431 -64.3424
   -64.3424 -64.3423 -64.3421 -64.3421 -64.3421 -64.3421 -64.3421 -64.3421
   -64.3421 -64.3421 -64.3421 -64.3421 -64.3419 -64.3419 -64.3419 -64.3409
   -64.3409 -64.3409 -64.3409 -64.3409 -64.3409 -64.3408 -64.3408 -64.3408
   -34.3244 -34.3244 -34.3244 -34.3242 -34.3222 -34.3222 -34.3222 -34.3110
   -34.3110 -34.3110 -34.3103 -34.3103 -34.3103 -34.3103 -34.3103 -34.3103
   -34.3091 -34.3091 -34.3091 -34.3091 -34.3091 -34.3091 -34.3091 -34.3091
   -34.3091 -34.3065 -34.3065 -34.3065 -34.3065 -34.3065 -34.3065 -34.2999
   -34.2999 -34.2999 -34.2972 -34.2972 -34.2972 -34.2956 -34.2956 -34.2956
   -34.2951 -34.2951 -34.2951 -34.2951 -34.2950 -34.2950 -34.2931 -34.2931
   -34.2931 -34.2930 -34.2930 -34.2930 -34.2930 -34.2930 -34.2930 -34.2929
   -34.2929 -34.2929 -34.2929 -34.2929 -34.2929 -34.2836 -34.2836 -34.2836
   -34.2836 -34.2836 -34.2836 -34.2818 -34.2818 -34.2818 -34.2818 -34.2818
   -34.2818 -34.2816 -34.2816 -34.2816 -34.2809 -34.2809 -34.2809 -34.2809
   -34.2809 -34.2809 -34.2809 -34.2808 -34.2808 -34.2808 -34.2808 -34.2808
   -34.2806 -34.2806 -34.2798 -34.2798 -34.2798 -34.2729 -34.2726 -34.2726
     3.9069   5.2755   5.2755   5.2755   5.5101   5.5101   5.5101   5.6204
     5.6316   5.6316   5.6316   5.7656   5.7656   5.7656   5.9296   5.9296
     5.9296   6.0983   6.0983   6.0983   6.2050   6.2050   6.2050   6.2050
     6.2050   6.2050   6.2644   6.2644   6.2644   6.2802   6.2802   6.2802
     6.2802   6.2802   6.2802   6.3433   6.3433   6.3433   6.4272   6.4272
     6.4272   6.5784   6.5784   6.5784   6.5785   6.5785   6.5785   6.6253
     6.6253   6.6253   6.6374   6.6374   6.6374   6.6374   6.6374   6.6374
     6.6694   6.6694   6.6694   6.7388   6.7388   6.7388   6.7388   6.7388
     6.7388   6.7769   6.7769   6.7769   6.7921   6.7921   6.7921   6.7921
     6.7921   6.7921   6.8441   6.8441   6.8441   6.8743   6.8743   6.8743
     6.8829   6.8829   6.8877   6.8877   6.8877   6.8924   6.9009   6.9009
     7.2097   7.2097   7.2097   7.2581   7.2581   7.2581   7.2853   7.2853
     7.2853   7.3164   7.3164   7.3164   7.3164   7.3164   7.3164   7.3203
     7.3203   7.3203   7.3863   7.3863   7.3863   7.4233   7.4233   7.4233
     7.4937   7.4937   7.4937   7.5222   7.5222   7.5222   7.5389   7.5389
     7.5389   7.5391   7.5392   7.5392   7.5392   7.5392   7.5392   7.5526
     7.5526   7.5865   7.5865   7.5865   7.5865   7.5865   7.5865   7.6338
     7.6338   7.6338   7.7741   7.7742   7.7742   7.8183   7.8183   7.8183
     8.0143   8.0143   8.0143   8.0338   8.0338   8.0338   8.0578   8.0578
     8.0661   8.0661   8.0661   8.1739   8.1739   8.1739   8.1933   8.1933
     8.1933   8.1933   8.1933   8.1933   8.1946   8.1946   8.1946   8.8682
     8.8682   8.8682   9.1321   9.1321   9.1321   9.1321   9.1321   9.1321
     9.1761   9.1761   9.1761

          k = 0.0427 0.0427 0.1282 ( 66277 PWs)   bands (ev):

   -64.3459 -64.3441 -64.3436 -64.3435 -64.3431 -64.3431 -64.3427 -64.3426
   -64.3426 -64.3423 -64.3423 -64.3423 -64.3422 -64.3421 -64.3421 -64.3421
   -64.3421 -64.3421 -64.3419 -64.3419 -64.3419 -64.3417 -64.3417 -64.3409
   -64.3409 -64.3409 -64.3409 -64.3409 -64.3409 -64.3408 -64.3408 -64.3408
   -34.3241 -34.3239 -34.3239 -34.3235 -34.3218 -34.3218 -34.3215 -34.3126
   -34.3118 -34.3118 -34.3116 -34.3116 -34.3112 -34.3112 -34.3111 -34.3111
   -34.3106 -34.3096 -34.3096 -34.3093 -34.3093 -34.3089 -34.3089 -34.3076
   -34.3076 -34.3069 -34.3069 -34.3060 -34.3060 -34.3041 -34.3040 -34.3040
   -34.3005 -34.3005 -34.2993 -34.2993 -34.2971 -34.2971 -34.2964 -34.2964
   -34.2955 -34.2936 -34.2936 -34.2935 -34.2935 -34.2930 -34.2930 -34.2929
   -34.2929 -34.2929 -34.2929 -34.2928 -34.2926 -34.2923 -34.2923 -34.2922
   -34.2922 -34.2915 -34.2914 -34.2908 -34.2908 -34.2854 -34.2854 -34.2840
   -34.2840 -34.2832 -34.2832 -34.2827 -34.2827 -34.2822 -34.2822 -34.2821
   -34.2821 -34.2819 -34.2816 -34.2815 -34.2815 -34.2813 -34.2813 -34.2809
   -34.2809 -34.2808 -34.2808 -34.2808 -34.2808 -34.2804 -34.2804 -34.2804
   -34.2800 -34.2800 -34.2799 -34.2791 -34.2791 -34.2738 -34.2729 -34.2728
     3.9501   5.0183   5.3075   5.3075   5.5405   5.5405   5.6283   5.6509
     5.6509   5.6619   5.6897   5.7762   5.7892   5.7892   5.9427   5.9478
     5.9478   5.9759   5.9759   6.0284   6.1212   6.1212   6.1240   6.1240
     6.1794   6.2361   6.2361   6.2621   6.2966   6.2966   6.2972   6.2972
     6.2993   6.2993   6.3088   6.3088   6.3539   6.3539   6.4361   6.4361
     6.4362   6.4362   6.5115   6.5661   6.5661   6.5792   6.5792   6.5935
     6.5935   6.6039   6.6039   6.6390   6.6390   6.6792   6.6792   6.6988
     6.7089   6.7089   6.7114   6.7182   6.7182   6.7200   6.7200   6.7413
     6.7413   6.7477   6.7477   6.7959   6.7959   6.8434   6.8434   6.8582
     6.8657   6.8657   6.8669   6.8707   6.8707   6.8735   6.8773   6.8836
     6.8933   6.9039   6.9039   6.9076   6.9143   6.9147   6.9147   6.9153
     7.1436   7.1436   7.1751   7.1751   7.2083   7.2243   7.2585   7.2585
     7.2675   7.2856   7.2938   7.2938   7.3301   7.3485   7.3485   7.3592
     7.3592   7.3744   7.3745   7.3794   7.3794   7.3875   7.4767   7.4767
     7.4841   7.4841   7.4846   7.4846   7.5363   7.5389   7.5390   7.5434
     7.5435   7.5563   7.5563   7.5598   7.5820   7.5820   7.5893   7.6048
     7.6079   7.6079   7.6490   7.6490   7.6660   7.6660   7.6740   7.6885
     7.6974   7.6974   7.7313   7.7947   7.7947   7.8498   7.8498   7.8627
     7.9023   7.9203   7.9203   7.9989   8.0101   8.0101   8.0244   8.0304
     8.0551   8.0555   8.0555   8.0837   8.0837   8.1451   8.1640   8.1640
     8.1643   8.1643   8.1690   8.1932   8.1932   8.1933   8.1933   8.6407
     8.6407   8.8638   8.8700   8.8804   8.8804   9.1342   9.1342   9.1720
     9.1720   9.3381   9.4256

          k = 0.0427 0.0427 0.2137 ( 66244 PWs)   bands (ev):

   -64.3458 -64.3445 -64.3435 -64.3435 -64.3430 -64.3430 -64.3428 -64.3428
   -64.3425 -64.3425 -64.3423 -64.3423 -64.3422 -64.3421 -64.3421 -64.3421
   -64.3421 -64.3420 -64.3419 -64.3416 -64.3416 -64.3415 -64.3415 -64.3411
   -64.3410 -64.3410 -64.3410 -64.3409 -64.3408 -64.3408 -64.3408 -64.3408
   -34.3232 -34.3227 -34.3227 -34.3221 -34.3209 -34.3209 -34.3200 -34.3149
   -34.3141 -34.3141 -34.3140 -34.3140 -34.3129 -34.3115 -34.3115 -34.3112
   -34.3112 -34.3102 -34.3102 -34.3090 -34.3090 -34.3082 -34.3080 -34.3080
   -34.3070 -34.3070 -34.3059 -34.3059 -34.3052 -34.3052 -34.3018 -34.3017
   -34.3016 -34.3016 -34.3014 -34.3014 -34.2991 -34.2991 -34.2979 -34.2979
   -34.2945 -34.2945 -34.2930 -34.2929 -34.2929 -34.2929 -34.2929 -34.2922
   -34.2920 -34.2912 -34.2912 -34.2910 -34.2909 -34.2908 -34.2908 -34.2908
   -34.2908 -34.2894 -34.2888 -34.2888 -34.2873 -34.2871 -34.2870 -34.2847
   -34.2847 -34.2840 -34.2840 -34.2838 -34.2838 -34.2833 -34.2829 -34.2829
   -34.2826 -34.2826 -34.2825 -34.2825 -34.2818 -34.2815 -34.2811 -34.2808
   -34.2808 -34.2808 -34.2808 -34.2806 -34.2806 -34.2803 -34.2803 -34.2803
   -34.2799 -34.2788 -34.2788 -34.2783 -34.2783 -34.2753 -34.2735 -34.2734
     4.0360   4.7651   5.3703   5.3703   5.5999   5.5999   5.6554   5.6894
     5.6894   5.7108   5.7952   5.7953   5.8350   5.8350   5.8418   5.8418
     5.9347   5.9688   5.9844   5.9844   6.0143   6.0143   6.0213   6.0213
     6.0687   6.1608   6.1608   6.1861   6.3111   6.3111   6.3266   6.3266
     6.3367   6.3367   6.3445   6.3445   6.3750   6.3750   6.3785   6.3785
     6.4535   6.4535   6.5429   6.5429   6.5461   6.5461   6.5749   6.5749
     6.5775   6.5775   6.5936   6.6130   6.6130   6.6406   6.6406   6.6593
     6.6593   6.6836   6.6836   6.7237   6.7402   6.7402   6.7448   6.7448
     6.7543   6.7543   6.7887   6.8100   6.8100   6.8356   6.8454   6.8508
     6.8508   6.8769   6.8859   6.8859   6.9187   6.9343   6.9343   6.9420
     6.9432   6.9441   6.9791   6.9797   6.9797   7.0195   7.0668   7.0668
     7.0752   7.0752   7.1053   7.1053   7.1486   7.1805   7.1846   7.1846
     7.1938   7.1943   7.3061   7.3280   7.3280   7.3760   7.3760   7.3975
     7.3975   7.4133   7.4133   7.4379   7.4379   7.4536   7.4536   7.4790
     7.4790   7.5049   7.5236   7.5236   7.5357   7.5357   7.5442   7.5442
     7.5474   7.5474   7.5740   7.5872   7.6370   7.6370   7.6551   7.6551
     7.6767   7.6910   7.7158   7.7328   7.7328   7.7492   7.7560   7.7560
     7.7649   7.7669   7.7669   7.7744   7.7744   7.8368   7.8550   7.8550
     7.8565   7.9066   7.9172   7.9172   7.9433   7.9433   7.9740   7.9740
     7.9851   8.0047   8.0208   8.0208   8.0254   8.0890   8.1090   8.1090
     8.1095   8.1095   8.1209   8.1930   8.1930   8.1932   8.1932   8.4408
     8.4408   8.6550   8.6550   8.8183   8.8549   9.1381   9.1381   9.1655
     9.1655   9.4386   9.4406

          k = 0.0427 0.0427 0.2991 ( 66232 PWs)   bands (ev):

   -64.3455 -64.3449 -64.3434 -64.3434 -64.3430 -64.3430 -64.3430 -64.3430
   -64.3427 -64.3427 -64.3423 -64.3422 -64.3421 -64.3421 -64.3421 -64.3421
   -64.3420 -64.3419 -64.3419 -64.3414 -64.3414 -64.3413 -64.3413 -64.3413
   -64.3411 -64.3411 -64.3410 -64.3410 -64.3409 -64.3408 -64.3408 -64.3408
   -34.3217 -34.3211 -34.3211 -34.3202 -34.3197 -34.3197 -34.3180 -34.3174
   -34.3166 -34.3166 -34.3161 -34.3161 -34.3155 -34.3119 -34.3115 -34.3115
   -34.3109 -34.3109 -34.3108 -34.3108 -34.3096 -34.3096 -34.3065 -34.3065
   -34.3062 -34.3062 -34.3041 -34.3041 -34.3040 -34.3040 -34.3033 -34.3033
   -34.3033 -34.3033 -34.3010 -34.3010 -34.2999 -34.2998 -34.2994 -34.2994
   -34.2958 -34.2958 -34.2930 -34.2929 -34.2929 -34.2929 -34.2913 -34.2911
   -34.2902 -34.2893 -34.2892 -34.2891 -34.2891 -34.2889 -34.2889 -34.2887
   -34.2887 -34.2887 -34.2886 -34.2871 -34.2870 -34.2869 -34.2858 -34.2858
   -34.2856 -34.2856 -34.2855 -34.2855 -34.2852 -34.2843 -34.2843 -34.2839
   -34.2839 -34.2835 -34.2832 -34.2818 -34.2818 -34.2815 -34.2813 -34.2808
   -34.2808 -34.2808 -34.2808 -34.2806 -34.2806 -34.2802 -34.2799 -34.2798
   -34.2798 -34.2788 -34.2788 -34.2774 -34.2768 -34.2767 -34.2744 -34.2742
     4.1632   4.5324   5.4610   5.4610   5.6847   5.6847   5.7010   5.7047
     5.7047   5.7463   5.7463   5.7777   5.8181   5.8360   5.8435   5.9005
     5.9005   5.9055   5.9055   5.9113   5.9113   5.9595   6.0072   6.0393
     6.0393   6.0713   6.0713   6.1171   6.2031   6.2031   6.3621   6.3621
     6.3722   6.3722   6.3907   6.3907   6.4058   6.4058   6.4516   6.4516
     6.4781   6.4781   6.4920   6.4920   6.5291   6.5291   6.5378   6.5378
     6.5418   6.5418   6.5615   6.5615   6.5807   6.5807   6.6449   6.6449
     6.6518   6.6518   6.6706   6.7451   6.7451   6.7475   6.7475   6.7502
     6.7823   6.7823   6.7989   6.8084   6.8236   6.8308   6.8308   6.8459
     6.8459   6.8641   6.9077   6.9077   6.9585   6.9784   6.9784   6.9822
     6.9822   6.9864   6.9870   6.9899   6.9985   6.9985   7.0757   7.0940
     7.0940   7.1105   7.1126   7.1192   7.1652   7.1806   7.1806   7.1976
     7.3075   7.3075   7.3499   7.3579   7.3579   7.3730   7.3730   7.4401
     7.4401   7.4601   7.4601   7.4604   7.4640   7.4640   7.4730   7.4730
     7.4911   7.4911   7.5206   7.5206   7.5249   7.5249   7.5440   7.5440
     7.5543   7.5543   7.5726   7.5777   7.5777   7.5948   7.6181   7.6209
     7.6209   7.6541   7.7251   7.7251   7.7423   7.7423   7.7659   7.7704
     7.8186   7.8186   7.8211   7.8439   7.8512   7.8512   7.8603   7.8603
     7.9084   7.9084   7.9240   7.9503   7.9623   7.9623   7.9671   7.9671
     7.9708   7.9784   8.0081   8.0345   8.0345   8.0349   8.0349   8.0583
     8.0887   8.0887   8.1591   8.1930   8.1930   8.1931   8.1931   8.2620
     8.2620   8.4494   8.4494   8.8141   8.8421   9.0720   9.1437   9.1437
     9.1580   9.1580   9.4595

          k = 0.0427 0.0427-0.3846 ( 66184 PWs)   bands (ev):

   -64.3452 -64.3452 -64.3432 -64.3432 -64.3432 -64.3432 -64.3428 -64.3428
   -64.3428 -64.3428 -64.3423 -64.3423 -64.3421 -64.3421 -64.3421 -64.3421
   -64.3419 -64.3419 -64.3416 -64.3416 -64.3412 -64.3412 -64.3412 -64.3412
   -64.3412 -64.3412 -64.3412 -64.3412 -64.3408 -64.3408 -64.3408 -64.3408
   -34.3197 -34.3197 -34.3190 -34.3190 -34.3190 -34.3190 -34.3180 -34.3180
   -34.3180 -34.3180 -34.3180 -34.3180 -34.3152 -34.3152 -34.3113 -34.3113
   -34.3113 -34.3113 -34.3103 -34.3103 -34.3103 -34.3103 -34.3049 -34.3049
   -34.3049 -34.3049 -34.3049 -34.3049 -34.3049 -34.3049 -34.3027 -34.3027
   -34.3026 -34.3026 -34.3019 -34.3019 -34.3019 -34.3019 -34.2975 -34.2975
   -34.2975 -34.2975 -34.2929 -34.2929 -34.2929 -34.2929 -34.2901 -34.2901
   -34.2899 -34.2899 -34.2875 -34.2875 -34.2874 -34.2874 -34.2874 -34.2874
   -34.2873 -34.2873 -34.2873 -34.2873 -34.2872 -34.2872 -34.2872 -34.2872
   -34.2863 -34.2863 -34.2863 -34.2863 -34.2853 -34.2853 -34.2853 -34.2853
   -34.2849 -34.2849 -34.2814 -34.2814 -34.2810 -34.2810 -34.2810 -34.2810
   -34.2808 -34.2808 -34.2808 -34.2808 -34.2801 -34.2801 -34.2800 -34.2800
   -34.2792 -34.2792 -34.2792 -34.2792 -34.2755 -34.2755 -34.2753 -34.2753
     4.3299   4.3299   5.5747   5.5747   5.5747   5.5747   5.7643   5.7643
     5.7894   5.7894   5.7894   5.7894   5.8209   5.8209   5.8209   5.8209
     5.8364   5.8364   5.8612   5.8612   5.9814   5.9814   5.9814   5.9814
     6.0570   6.0570   6.1123   6.1123   6.1123   6.1123   6.3824   6.3824
     6.3824   6.3824   6.4453   6.4453   6.4453   6.4453   6.4583   6.4583
     6.4583   6.4583   6.5084   6.5084   6.5084   6.5084   6.5172   6.5172
     6.5172   6.5172   6.5363   6.5363   6.5363   6.5363   6.6412   6.6412
     6.6412   6.6412   6.7399   6.7399   6.7479   6.7479   6.7479   6.7479
     6.7791   6.7791   6.8074   6.8074   6.8074   6.8074   6.8463   6.8463
     6.9042   6.9042   6.9042   6.9042   6.9447   6.9447   6.9447   6.9447
     7.0114   7.0114   7.0346   7.0346   7.0346   7.0346   7.0429   7.0429
     7.0433   7.0433   7.0498   7.0498   7.3691   7.3691   7.3691   7.3691
     7.3745   7.3745   7.3746   7.3746   7.3854   7.3854   7.3859   7.3859
     7.4066   7.4066   7.4628   7.4628   7.4628   7.4628   7.4915   7.4915
     7.4915   7.4915   7.5019   7.5019   7.5019   7.5019   7.5168   7.5168
     7.5168   7.5168   7.5266   7.5266   7.5266   7.5266   7.5860   7.5860
     7.5860   7.5860   7.6218   7.6218   7.8299   7.8299   7.8299   7.8299
     7.8498   7.8498   7.8984   7.8984   7.8984   7.8984   7.9038   7.9038
     7.9108   7.9108   7.9167   7.9167   7.9461   7.9461   7.9461   7.9461
     7.9495   7.9495   7.9495   7.9495   7.9982   7.9982   8.1017   8.1017
     8.1017   8.1017   8.1931   8.1931   8.1931   8.1931   8.2605   8.2605
     8.2605   8.2605   8.5828   8.5828   8.8267   8.8267   9.1505   9.1505
     9.1505   9.1505   9.4758

          k = 0.0427 0.1282 0.1282 ( 66259 PWs)   bands (ev):

   -64.3458 -64.3440 -64.3440 -64.3435 -64.3431 -64.3429 -64.3427 -64.3427
   -64.3426 -64.3426 -64.3423 -64.3423 -64.3423 -64.3421 -64.3420 -64.3420
   -64.3420 -64.3420 -64.3419 -64.3419 -64.3417 -64.3417 -64.3415 -64.3409
   -64.3409 -64.3409 -64.3409 -64.3409 -64.3409 -64.3409 -64.3409 -64.3408
   -34.3237 -34.3237 -34.3231 -34.3224 -34.3214 -34.3211 -34.3211 -34.3130
   -34.3130 -34.3126 -34.3126 -34.3118 -34.3117 -34.3113 -34.3113 -34.3111
   -34.3107 -34.3107 -34.3106 -34.3106 -34.3100 -34.3100 -34.3091 -34.3091
   -34.3057 -34.3056 -34.3056 -34.3048 -34.3048 -34.3046 -34.3046 -34.3036
   -34.3036 -34.3015 -34.3013 -34.2975 -34.2975 -34.2973 -34.2955 -34.2955
   -34.2949 -34.2949 -34.2944 -34.2933 -34.2933 -34.2925 -34.2925 -34.2925
   -34.2924 -34.2924 -34.2923 -34.2923 -34.2921 -34.2921 -34.2916 -34.2916
   -34.2916 -34.2916 -34.2896 -34.2896 -34.2888 -34.2858 -34.2858 -34.2850
   -34.2850 -34.2836 -34.2835 -34.2834 -34.2826 -34.2826 -34.2826 -34.2826
   -34.2821 -34.2821 -34.2820 -34.2820 -34.2817 -34.2816 -34.2814 -34.2812
   -34.2812 -34.2811 -34.2806 -34.2805 -34.2805 -34.2805 -34.2804 -34.2804
   -34.2795 -34.2795 -34.2792 -34.2792 -34.2782 -34.2748 -34.2732 -34.2728
     3.9930   5.0526   5.0526   5.3372   5.5677   5.6238   5.6586   5.6914
     5.6914   5.7192   5.7192   5.8000   5.8000   5.8108   5.8153   5.9244
     5.9244   5.9608   5.9608   5.9672   6.0518   6.0518   6.2045   6.2046
     6.2304   6.2304   6.2455   6.2455   6.2540   6.2540   6.2544   6.2544
     6.2744   6.2744   6.3055   6.3151   6.3151   6.3674   6.4412   6.4412
     6.4416   6.4416   6.4476   6.5186   6.5186   6.5515   6.5515   6.5789
     6.5789   6.6070   6.6686   6.6686   6.6780   6.6780   6.6827   6.6900
     6.6900   6.6906   6.6906   6.7103   6.7103   6.7384   6.7384   6.7796
     6.8053   6.8053   6.8117   6.8117   6.8404   6.8404   6.8628   6.8643
     6.8643   6.8693   6.8825   6.8825   6.8836   6.8836   6.8876   6.9039
     6.9119   6.9119   6.9185   6.9213   6.9224   6.9283   6.9295   6.9295
     7.1056   7.1263   7.1464   7.1464   7.2242   7.2242   7.2698   7.2698
     7.2721   7.2788   7.2788   7.2813   7.2813   7.3086   7.3086   7.3172
     7.3172   7.3409   7.3806   7.3918   7.3918   7.4157   7.4200   7.4200
     7.4342   7.5322   7.5387   7.5387   7.5554   7.5554   7.5563   7.5615
     7.5774   7.5774   7.5899   7.5899   7.5929   7.5929   7.6340   7.6340
     7.6484   7.6484   7.7085   7.7248   7.7248   7.7436   7.7445   7.7445
     7.7473   7.7473   7.7533   7.7533   7.7998   7.7998   7.8031   7.8351
     7.8566   7.9193   7.9193   7.9395   7.9881   7.9881   7.9891   8.0140
     8.0399   8.0605   8.0605   8.0638   8.0638   8.0644   8.1398   8.1398
     8.1637   8.1637   8.1647   8.1647   8.1684   8.1684   8.1778   8.4382
     8.6323   8.6323   8.6397   8.8786   8.8786   9.0283   9.1682   9.1682
     9.4524   9.4524   9.4751

          k = 0.0427 0.1282 0.2137 ( 66268 PWs)   bands (ev):

   -64.3457 -64.3444 -64.3439 -64.3434 -64.3431 -64.3430 -64.3428 -64.3426
   -64.3425 -64.3425 -64.3423 -64.3423 -64.3423 -64.3422 -64.3422 -64.3420
   -64.3419 -64.3419 -64.3418 -64.3417 -64.3416 -64.3415 -64.3414 -64.3411
   -64.3410 -64.3410 -64.3410 -64.3409 -64.3409 -64.3409 -64.3409 -64.3408
   -34.3230 -34.3228 -34.3218 -34.3209 -34.3205 -34.3203 -34.3197 -34.3154
   -34.3149 -34.3139 -34.3136 -34.3131 -34.3130 -34.3129 -34.3120 -34.3115
   -34.3113 -34.3112 -34.3108 -34.3108 -34.3106 -34.3098 -34.3093 -34.3085
   -34.3072 -34.3058 -34.3055 -34.3049 -34.3042 -34.3036 -34.3036 -34.3028
   -34.3026 -34.3025 -34.3012 -34.2993 -34.2989 -34.2975 -34.2969 -34.2956
   -34.2947 -34.2942 -34.2942 -34.2931 -34.2928 -34.2927 -34.2925 -34.2924
   -34.2922 -34.2921 -34.2919 -34.2911 -34.2907 -34.2904 -34.2903 -34.2897
   -34.2895 -34.2885 -34.2877 -34.2877 -34.2875 -34.2868 -34.2868 -34.2865
   -34.2846 -34.2844 -34.2842 -34.2842 -34.2840 -34.2838 -34.2838 -34.2837
   -34.2828 -34.2825 -34.2823 -34.2821 -34.2821 -34.2821 -34.2816 -34.2815
   -34.2811 -34.2811 -34.2810 -34.2809 -34.2805 -34.2804 -34.2802 -34.2793
   -34.2789 -34.2787 -34.2787 -34.2777 -34.2776 -34.2765 -34.2738 -34.2731
     4.0782   4.8016   5.1199   5.3948   5.6202   5.6374   5.6500   5.6849
     5.7391   5.7491   5.7767   5.8108   5.8195   5.8239   5.8463   5.8513
     5.8527   5.9581   5.9696   5.9864   5.9969   6.0059   6.0913   6.1230
     6.1640   6.1735   6.1771   6.1999   6.2605   6.2777   6.2808   6.2897
     6.2985   6.2989   6.3191   6.3300   6.3432   6.3512   6.3582   6.3943
     6.4522   6.4552   6.4702   6.5086   6.5140   6.5215   6.5320   6.5634
     6.5988   6.6014   6.6182   6.6193   6.6310   6.6313   6.6442   6.6486
     6.6820   6.7028   6.7366   6.7402   6.7647   6.7778   6.7787   6.8026
     6.8095   6.8142   6.8163   6.8173   6.8246   6.8422   6.8497   6.8545
     6.8880   6.8898   6.8956   6.9055   6.9257   6.9372   6.9461   6.9466
     6.9503   6.9538   6.9547   6.9662   6.9690   7.0113   7.0480   7.0509
     7.0655   7.0840   7.0973   7.1352   7.1392   7.1476   7.1917   7.2000
     7.2365   7.2421   7.2439   7.2798   7.2806   7.3096   7.3161   7.3503
     7.3652   7.3813   7.3830   7.4032   7.4243   7.4253   7.4349   7.4779
     7.4907   7.5059   7.5270   7.5342   7.5507   7.5667   7.5682   7.5866
     7.5989   7.6188   7.6434   7.6443   7.6467   7.6505   7.6571   7.6577
     7.6651   7.6853   7.6984   7.7025   7.7297   7.7473   7.7556   7.7590
     7.7838   7.7846   7.8038   7.8044   7.8064   7.8173   7.8179   7.8472
     7.8619   7.8735   7.8818   7.9311   7.9385   7.9487   7.9857   7.9984
     8.0284   8.0432   8.0437   8.0457   8.0620   8.0720   8.0944   8.0947
     8.1091   8.1104   8.1229   8.1636   8.1651   8.1675   8.1693   8.2633
     8.4304   8.5410   8.6157   8.6510   8.8757   8.9183   8.9360   9.4737
     9.5118   9.5461   9.7112

          k = 0.0427 0.1282 0.2991 ( 66251 PWs)   bands (ev):

   -64.3454 -64.3448 -64.3438 -64.3434 -64.3433 -64.3430 -64.3429 -64.3427
   -64.3426 -64.3425 -64.3424 -64.3423 -64.3423 -64.3422 -64.3419 -64.3419
   -64.3419 -64.3419 -64.3418 -64.3415 -64.3414 -64.3413 -64.3413 -64.3412
   -64.3411 -64.3411 -64.3411 -64.3410 -64.3409 -64.3409 -64.3409 -64.3409
   -34.3218 -34.3214 -34.3200 -34.3192 -34.3192 -34.3189 -34.3178 -34.3177
   -34.3173 -34.3159 -34.3157 -34.3154 -34.3139 -34.3130 -34.3128 -34.3122
   -34.3121 -34.3121 -34.3120 -34.3116 -34.3102 -34.3098 -34.3089 -34.3077
   -34.3067 -34.3066 -34.3054 -34.3052 -34.3042 -34.3039 -34.3027 -34.3017
   -34.3012 -34.3010 -34.3009 -34.3005 -34.2993 -34.2990 -34.2987 -34.2970
   -34.2964 -34.2955 -34.2925 -34.2924 -34.2921 -34.2920 -34.2918 -34.2917
   -34.2910 -34.2909 -34.2904 -34.2895 -34.2891 -34.2891 -34.2889 -34.2888
   -34.2884 -34.2880 -34.2877 -34.2873 -34.2863 -34.2861 -34.2859 -34.2857
   -34.2856 -34.2856 -34.2855 -34.2854 -34.2852 -34.2850 -34.2849 -34.2837
   -34.2835 -34.2833 -34.2825 -34.2824 -34.2822 -34.2821 -34.2820 -34.2820
   -34.2819 -34.2817 -34.2808 -34.2807 -34.2806 -34.2800 -34.2799 -34.2794
   -34.2790 -34.2788 -34.2780 -34.2774 -34.2771 -34.2762 -34.2746 -34.2738
     4.2046   4.5708   5.2180   5.4771   5.4896   5.6685   5.6929   5.6938
     5.7292   5.7786   5.8043   5.8232   5.8432   5.8586   5.8634   5.8683
     5.8773   5.9126   5.9127   5.9827   6.0136   6.0242   6.0512   6.0636
     6.0690   6.0736   6.0858   6.1322   6.2129   6.2289   6.2748   6.2919
     6.3226   6.3353   6.3389   6.3512   6.3693   6.4020   6.4121   6.4352
     6.4414   6.4675   6.4775   6.4839   6.4876   6.5037   6.5274   6.5448
     6.5498   6.5574   6.5598   6.5870   6.5881   6.5973   6.6134   6.6739
     6.7077   6.7291   6.7393   6.7506   6.7599   6.7751   6.7881   6.7901
     6.7983   6.8053   6.8069   6.8322   6.8420   6.8476   6.8509   6.8531
     6.8833   6.8943   6.9078   6.9603   6.9694   6.9719   6.9872   6.9876
     6.9900   6.9935   7.0084   7.0158   7.0213   7.0325   7.0471   7.0555
     7.0970   7.0990   7.1119   7.1177   7.1454   7.1498   7.1864   7.1901
     7.2621   7.2653   7.2801   7.2877   7.2932   7.2989   7.3380   7.3692
     7.3816   7.3867   7.4219   7.4408   7.4430   7.4644   7.4746   7.4929
     7.4968   7.5023   7.5049   7.5196   7.5295   7.5473   7.5475   7.5605
     7.5699   7.5779   7.5907   7.5949   7.5995   7.6241   7.6564   7.6568
     7.6712   7.6724   7.6927   7.7254   7.7303   7.7421   7.7469   7.7528
     7.8081   7.8257   7.8480   7.8568   7.8633   7.8771   7.8829   7.8870
     7.8891   7.8903   7.8913   7.9186   7.9248   7.9498   7.9544   7.9770
     7.9899   8.0077   8.0088   8.0340   8.0341   8.0354   8.0372   8.0663
     8.0800   8.1095   8.1637   8.1656   8.1658   8.1667   8.2507   8.2619
     8.3464   8.4443   8.5369   8.5917   8.6861   8.8734   8.8914   9.2109
     9.5030   9.5566   9.8260

          k = 0.0427 0.1282-0.3846 ( 66238 PWs)   bands (ev):

   -64.3451 -64.3451 -64.3436 -64.3436 -64.3432 -64.3432 -64.3428 -64.3428
   -64.3425 -64.3425 -64.3424 -64.3424 -64.3422 -64.3422 -64.3419 -64.3419
   -64.3418 -64.3418 -64.3416 -64.3416 -64.3413 -64.3413 -64.3413 -64.3413
   -64.3412 -64.3412 -64.3411 -64.3411 -64.3409 -64.3409 -64.3409 -64.3409
   -34.3200 -34.3200 -34.3195 -34.3195 -34.3178 -34.3178 -34.3177 -34.3177
   -34.3176 -34.3176 -34.3165 -34.3165 -34.3151 -34.3151 -34.3127 -34.3127
   -34.3123 -34.3123 -34.3122 -34.3122 -34.3097 -34.3097 -34.3077 -34.3077
   -34.3066 -34.3066 -34.3060 -34.3060 -34.3031 -34.3031 -34.3026 -34.3026
   -34.3011 -34.3011 -34.3003 -34.3003 -34.2988 -34.2988 -34.2986 -34.2986
   -34.2971 -34.2971 -34.2925 -34.2925 -34.2920 -34.2920 -34.2906 -34.2906
   -34.2898 -34.2898 -34.2891 -34.2891 -34.2889 -34.2889 -34.2879 -34.2878
   -34.2876 -34.2876 -34.2875 -34.2875 -34.2872 -34.2872 -34.2871 -34.2871
   -34.2865 -34.2865 -34.2852 -34.2852 -34.2845 -34.2845 -34.2838 -34.2838
   -34.2834 -34.2834 -34.2830 -34.2830 -34.2822 -34.2822 -34.2819 -34.2819
   -34.2816 -34.2815 -34.2812 -34.2812 -34.2807 -34.2807 -34.2797 -34.2797
   -34.2794 -34.2794 -34.2776 -34.2776 -34.2758 -34.2758 -34.2749 -34.2749
     4.3700   4.3700   5.3431   5.3431   5.5789   5.5789   5.7163   5.7163
     5.7823   5.7823   5.7909   5.7909   5.8626   5.8626   5.8861   5.8861
     5.9122   5.9122   5.9593   5.9593   5.9876   5.9876   5.9945   5.9945
     6.0731   6.0731   6.1233   6.1233   6.1389   6.1389   6.2849   6.2849
     6.3603   6.3603   6.3830   6.3830   6.3918   6.3918   6.4139   6.4139
     6.4738   6.4738   6.4889   6.4889   6.4900   6.4900   6.5062   6.5062
     6.5297   6.5297   6.5470   6.5470   6.5697   6.5697   6.6721   6.6721
     6.7401   6.7401   6.7413   6.7413   6.7473   6.7473   6.7582   6.7582
     6.8126   6.8126   6.8259   6.8259   6.8724   6.8724   6.8766   6.8766
     6.8968   6.8968   6.9019   6.9019   6.9417   6.9417   6.9946   6.9946
     7.0081   7.0081   7.0378   7.0378   7.0424   7.0424   7.0437   7.0437
     7.0747   7.0747   7.0844   7.0844   7.2831   7.2831   7.2835   7.2835
     7.2952   7.2952   7.3202   7.3202   7.3230   7.3230   7.3399   7.3399
     7.3613   7.3613   7.4153   7.4153   7.4175   7.4175   7.4671   7.4671
     7.4698   7.4698   7.4897   7.4897   7.4945   7.4945   7.5167   7.5167
     7.5618   7.5618   7.5839   7.5839   7.5999   7.5999   7.6206   7.6206
     7.6869   7.6869   7.7077   7.7077   7.7424   7.7424   7.8143   7.8143
     7.8394   7.8394   7.8401   7.8401   7.9026   7.9026   7.9146   7.9146
     7.9459   7.9459   7.9531   7.9531   7.9553   7.9553   7.9570   7.9570
     7.9636   7.9636   7.9647   7.9647   7.9749   7.9749   8.0103   8.0103
     8.0896   8.0896   8.1643   8.1643   8.1661   8.1661   8.2542   8.2542
     8.4677   8.4677   8.5627   8.5627   8.7423   8.7423   8.8757   8.8757
     9.5346   9.5346   9.8515

          k = 0.0427 0.2137 0.2137 ( 66295 PWs)   bands (ev):

   -64.3455 -64.3443 -64.3443 -64.3434 -64.3434 -64.3430 -64.3428 -64.3427
   -64.3425 -64.3425 -64.3424 -64.3422 -64.3422 -64.3422 -64.3419 -64.3419
   -64.3419 -64.3419 -64.3417 -64.3417 -64.3416 -64.3416 -64.3413 -64.3411
   -64.3411 -64.3411 -64.3411 -64.3410 -64.3410 -64.3409 -64.3409 -64.3409
   -34.3224 -34.3224 -34.3203 -34.3197 -34.3192 -34.3191 -34.3191 -34.3155
   -34.3154 -34.3152 -34.3152 -34.3138 -34.3138 -34.3128 -34.3128 -34.3124
   -34.3124 -34.3114 -34.3114 -34.3113 -34.3113 -34.3102 -34.3094 -34.3094
   -34.3090 -34.3090 -34.3055 -34.3040 -34.3039 -34.3039 -34.3028 -34.3028
   -34.3010 -34.3007 -34.3005 -34.3005 -34.2969 -34.2964 -34.2964 -34.2950
   -34.2950 -34.2947 -34.2947 -34.2936 -34.2936 -34.2918 -34.2918 -34.2917
   -34.2913 -34.2913 -34.2907 -34.2907 -34.2905 -34.2905 -34.2894 -34.2894
   -34.2883 -34.2883 -34.2879 -34.2879 -34.2863 -34.2863 -34.2861 -34.2861
   -34.2856 -34.2856 -34.2854 -34.2850 -34.2840 -34.2840 -34.2838 -34.2838
   -34.2836 -34.2835 -34.2835 -34.2832 -34.2822 -34.2822 -34.2819 -34.2815
   -34.2815 -34.2813 -34.2807 -34.2805 -34.2805 -34.2804 -34.2794 -34.2794
   -34.2791 -34.2791 -34.2784 -34.2771 -34.2770 -34.2768 -34.2744 -34.2732
     4.1622   4.8735   4.8735   5.4418   5.4582   5.6353   5.6586   5.6973
     5.7640   5.7641   5.8039   5.8039   5.8669   5.8669   5.8798   5.8798
     5.8873   5.8986   5.8986   6.0217   6.0217   6.0484   6.1667   6.1667
     6.1708   6.1708   6.1791   6.1791   6.2079   6.2079   6.2274   6.2274
     6.2572   6.2765   6.2765   6.3351   6.3351   6.3668   6.3668   6.3720
     6.3720   6.4336   6.4661   6.4661   6.4731   6.4731   6.5041   6.6078
     6.6078   6.6086   6.6195   6.6286   6.6286   6.6385   6.6385   6.7038
     6.7038   6.7727   6.7727   6.7752   6.7752   6.7765   6.7765   6.7936
     6.7936   6.8229   6.8229   6.8260   6.8521   6.8906   6.8917   6.9011
     6.9011   6.9214   6.9214   6.9489   6.9613   6.9737   6.9760   6.9807
     6.9807   6.9922   6.9952   6.9952   7.0064   7.0118   7.0118   7.0140
     7.0803   7.0803   7.0949   7.0949   7.1639   7.1639   7.1918   7.1919
     7.2226   7.2226   7.2518   7.2518   7.2530   7.2670   7.2936   7.2936
     7.3062   7.3062   7.3430   7.3437   7.3874   7.3875   7.4649   7.4947
     7.5073   7.5073   7.5325   7.5325   7.5369   7.5553   7.5553   7.5707
     7.6218   7.6291   7.6291   7.6568   7.6568   7.6759   7.6759   7.6952
     7.6952   7.7210   7.7241   7.7241   7.7476   7.7476   7.7522   7.7522
     7.7718   7.7801   7.7801   7.8468   7.8474   7.8559   7.8559   7.8742
     7.8742   7.8782   7.8782   7.9067   7.9076   7.9076   7.9795   7.9795
     8.0134   8.0478   8.0478   8.0524   8.0675   8.0675   8.1101   8.1101
     8.1116   8.1116   8.1121   8.1201   8.1201   8.1436   8.2775   8.2775
     8.3737   8.4101   8.4101   8.6446   8.6446   8.7738   9.2411   9.2411
     9.8654   9.8654   9.9133

          k = 0.0427 0.2137 0.2991 ( 66314 PWs)   bands (ev):

   -64.3453 -64.3447 -64.3442 -64.3437 -64.3433 -64.3429 -64.3429 -64.3427
   -64.3426 -64.3425 -64.3424 -64.3423 -64.3422 -64.3420 -64.3419 -64.3418
   -64.3418 -64.3417 -64.3416 -64.3416 -64.3415 -64.3414 -64.3413 -64.3412
   -64.3412 -64.3412 -64.3411 -64.3410 -64.3410 -64.3410 -64.3409 -64.3409
   -34.3214 -34.3211 -34.3184 -34.3184 -34.3181 -34.3178 -34.3174 -34.3172
   -34.3170 -34.3155 -34.3151 -34.3151 -34.3149 -34.3138 -34.3137 -34.3136
   -34.3136 -34.3124 -34.3122 -34.3120 -34.3118 -34.3108 -34.3099 -34.3097
   -34.3096 -34.3073 -34.3068 -34.3058 -34.3053 -34.3028 -34.3020 -34.3013
   -34.3008 -34.2994 -34.2985 -34.2983 -34.2983 -34.2981 -34.2969 -34.2965
   -34.2948 -34.2934 -34.2929 -34.2927 -34.2926 -34.2923 -34.2918 -34.2915
   -34.2912 -34.2909 -34.2908 -34.2899 -34.2898 -34.2894 -34.2892 -34.2882
   -34.2882 -34.2880 -34.2877 -34.2874 -34.2870 -34.2865 -34.2865 -34.2860
   -34.2860 -34.2857 -34.2852 -34.2851 -34.2846 -34.2845 -34.2843 -34.2842
   -34.2835 -34.2833 -34.2832 -34.2828 -34.2827 -34.2826 -34.2824 -34.2823
   -34.2814 -34.2812 -34.2809 -34.2809 -34.2807 -34.2805 -34.2804 -34.2800
   -34.2793 -34.2792 -34.2778 -34.2765 -34.2763 -34.2756 -34.2753 -34.2736
     4.2867   4.6469   4.9791   5.2770   5.5077   5.6488   5.6747   5.7109
     5.7164   5.7262   5.8294   5.8358   5.8743   5.8826   5.8922   5.9171
     5.9347   5.9379   5.9599   6.0577   6.0582   6.0741   6.0746   6.0820
     6.1100   6.1128   6.1623   6.1691   6.1822   6.2242   6.2323   6.2378
     6.2408   6.2488   6.2685   6.2757   6.3095   6.3549   6.3592   6.3723
     6.3916   6.4189   6.4330   6.4506   6.4615   6.4935   6.5489   6.5553
     6.5682   6.5687   6.6182   6.6275   6.6557   6.6676   6.6718   6.6784
     6.7021   6.7323   6.7342   6.7398   6.7912   6.8121   6.8248   6.8289
     6.8465   6.8474   6.8513   6.8737   6.8887   6.8915   6.9065   6.9076
     6.9414   6.9463   6.9516   6.9581   6.9733   6.9779   6.9815   6.9957
     7.0067   7.0122   7.0151   7.0526   7.0593   7.0671   7.0681   7.0695
     7.0785   7.0898   7.1002   7.1138   7.1170   7.1492   7.1829   7.1840
     7.1958   7.2178   7.2276   7.2307   7.2322   7.2466   7.2631   7.3026
     7.3501   7.3539   7.3550   7.3699   7.3897   7.3916   7.3960   7.3996
     7.3996   7.4103   7.4636   7.4667   7.4743   7.5149   7.5852   7.5920
     7.6011   7.6159   7.6179   7.6223   7.6715   7.6745   7.6764   7.6831
     7.6851   7.7061   7.7493   7.7585   7.7626   7.7643   7.7810   7.7900
     7.7988   7.8202   7.8500   7.8523   7.8582   7.8737   7.9037   7.9205
     7.9254   7.9323   7.9360   7.9361   7.9393   7.9397   7.9491   7.9625
     7.9811   8.0221   8.0287   8.0308   8.0310   8.0315   8.0373   8.0422
     8.0590   8.0702   8.1125   8.1130   8.1172   8.1268   8.2288   8.3296
     8.3814   8.4369   8.5043   8.5798   8.6400   8.6829   8.9850   9.4322
     9.6273   9.9203   9.9909

          k = 0.0427 0.2137-0.3846 ( 66288 PWs)   bands (ev):

   -64.3450 -64.3450 -64.3440 -64.3440 -64.3431 -64.3431 -64.3428 -64.3428
   -64.3426 -64.3426 -64.3424 -64.3424 -64.3421 -64.3421 -64.3417 -64.3417
   -64.3417 -64.3417 -64.3416 -64.3415 -64.3414 -64.3414 -64.3413 -64.3413
   -64.3413 -64.3413 -64.3411 -64.3411 -64.3410 -64.3410 -64.3409 -64.3409
   -34.3198 -34.3198 -34.3195 -34.3195 -34.3169 -34.3169 -34.3168 -34.3168
   -34.3162 -34.3162 -34.3150 -34.3150 -34.3146 -34.3146 -34.3146 -34.3146
   -34.3145 -34.3145 -34.3131 -34.3131 -34.3106 -34.3106 -34.3103 -34.3103
   -34.3077 -34.3077 -34.3065 -34.3065 -34.3051 -34.3051 -34.3001 -34.3001
   -34.2997 -34.2997 -34.2988 -34.2988 -34.2981 -34.2981 -34.2964 -34.2964
   -34.2956 -34.2956 -34.2916 -34.2916 -34.2914 -34.2914 -34.2909 -34.2909
   -34.2909 -34.2909 -34.2904 -34.2904 -34.2896 -34.2896 -34.2896 -34.2896
   -34.2880 -34.2880 -34.2878 -34.2878 -34.2867 -34.2867 -34.2867 -34.2867
   -34.2853 -34.2853 -34.2851 -34.2851 -34.2843 -34.2843 -34.2837 -34.2837
   -34.2833 -34.2833 -34.2831 -34.2831 -34.2830 -34.2830 -34.2827 -34.2827
   -34.2817 -34.2817 -34.2815 -34.2815 -34.2810 -34.2810 -34.2797 -34.2797
   -34.2797 -34.2797 -34.2764 -34.2764 -34.2762 -34.2762 -34.2744 -34.2744
     4.4494   4.4494   5.1152   5.1152   5.5874   5.5874   5.6765   5.6765
     5.7708   5.7708   5.7718   5.7718   5.9137   5.9137   5.9594   5.9594
     5.9736   5.9736   6.0033   6.0033   6.0187   6.0187   6.0591   6.0591
     6.1054   6.1054   6.1450   6.1450   6.1876   6.1876   6.1996   6.1996
     6.2895   6.2895   6.2985   6.2985   6.3122   6.3122   6.3233   6.3233
     6.3922   6.3922   6.4820   6.4820   6.5017   6.5017   6.5085   6.5085
     6.5740   6.5740   6.6228   6.6228   6.6261   6.6261   6.6926   6.6926
     6.7025   6.7025   6.7407   6.7407   6.8120   6.8120   6.8386   6.8386
     6.8566   6.8566   6.8885   6.8885   6.8968   6.8968   6.8973   6.8973
     6.9353   6.9353   6.9423   6.9423   7.0122   7.0122   7.0224   7.0224
     7.0339   7.0339   7.0435   7.0435   7.0477   7.0477   7.0520   7.0520
     7.1258   7.1258   7.1361   7.1362   7.1698   7.1698   7.1937   7.1937
     7.2061   7.2061   7.2071   7.2071   7.2502   7.2502   7.2632   7.2632
     7.2722   7.2722   7.3776   7.3776   7.3819   7.3819   7.4145   7.4145
     7.4232   7.4232   7.4276   7.4276   7.4472   7.4472   7.5461   7.5461
     7.5624   7.5624   7.6269   7.6269   7.6585   7.6585   7.6594   7.6594
     7.7213   7.7213   7.7836   7.7836   7.7838   7.7838   7.8330   7.8330
     7.8468   7.8468   7.8692   7.8692   7.8693   7.8693   7.8878   7.8878
     7.9481   7.9481   7.9526   7.9526   7.9705   7.9705   7.9871   7.9871
     7.9880   7.9880   7.9913   7.9913   7.9937   7.9937   7.9960   7.9960
     8.0664   8.0664   8.1148   8.1149   8.1175   8.1175   8.2466   8.2466
     8.3491   8.3491   8.6467   8.6467   8.7401   8.7401   8.9721   8.9721
     9.9736   9.9736  10.0740

          k = 0.0427 0.2991 0.2991 ( 66261 PWs)   bands (ev):

   -64.3451 -64.3445 -64.3445 -64.3440 -64.3432 -64.3429 -64.3429 -64.3428
   -64.3427 -64.3426 -64.3426 -64.3424 -64.3418 -64.3418 -64.3417 -64.3417
   -64.3417 -64.3417 -64.3415 -64.3415 -64.3415 -64.3415 -64.3413 -64.3413
   -64.3412 -64.3412 -64.3412 -64.3412 -64.3411 -64.3409 -64.3409 -64.3409
   -34.3204 -34.3204 -34.3173 -34.3173 -34.3172 -34.3171 -34.3171 -34.3166
   -34.3166 -34.3165 -34.3152 -34.3152 -34.3148 -34.3148 -34.3148 -34.3138
   -34.3138 -34.3125 -34.3125 -34.3123 -34.3123 -34.3119 -34.3119 -34.3109
   -34.3098 -34.3098 -34.3078 -34.3064 -34.3050 -34.3036 -34.3036 -34.3001
   -34.2988 -34.2988 -34.2973 -34.2973 -34.2954 -34.2951 -34.2951 -34.2944
   -34.2944 -34.2943 -34.2943 -34.2938 -34.2938 -34.2911 -34.2911 -34.2907
   -34.2907 -34.2904 -34.2901 -34.2901 -34.2896 -34.2895 -34.2895 -34.2895
   -34.2895 -34.2894 -34.2876 -34.2876 -34.2872 -34.2872 -34.2872 -34.2865
   -34.2865 -34.2849 -34.2849 -34.2848 -34.2848 -34.2847 -34.2847 -34.2835
   -34.2835 -34.2834 -34.2833 -34.2831 -34.2831 -34.2828 -34.2824 -34.2819
   -34.2815 -34.2813 -34.2812 -34.2812 -34.2810 -34.2808 -34.2805 -34.2796
   -34.2796 -34.2788 -34.2788 -34.2761 -34.2755 -34.2752 -34.2752 -34.2737
     4.4082   4.7590   4.7590   5.0791   5.5501   5.6412   5.6569   5.6569
     5.7343   5.7368   5.7943   5.7943   5.9552   5.9552   5.9624   5.9624
     5.9772   5.9941   5.9941   6.0998   6.0998   6.1092   6.1092   6.1358
     6.1359   6.1412   6.1412   6.1478   6.1478   6.1700   6.1750   6.1983
     6.1983   6.2075   6.2075   6.2611   6.2611   6.2931   6.2931   6.3380
     6.3380   6.3434   6.3434   6.4843   6.4891   6.4891   6.5794   6.5984
     6.5984   6.6030   6.6030   6.6325   6.6569   6.6802   6.6802   6.6894
     6.6894   6.7700   6.8086   6.8086   6.8461   6.8461   6.8479   6.8662
     6.8662   6.8761   6.8761   6.8969   6.9068   6.9068   6.9072   6.9072
     6.9233   6.9505   7.0139   7.0195   7.0195   7.0195   7.0256   7.0393
     7.0497   7.0557   7.0557   7.0590   7.0627   7.0627   7.0833   7.0833
     7.1156   7.1156   7.1222   7.1222   7.1301   7.1301   7.1680   7.1680
     7.1778   7.1807   7.1818   7.2118   7.2118   7.2146   7.2146   7.2207
     7.2423   7.2786   7.2786   7.2828   7.2828   7.2893   7.2893   7.3529
     7.3925   7.3925   7.4143   7.4143   7.4465   7.4744   7.4744   7.5123
     7.5687   7.6126   7.6698   7.6698   7.6876   7.6876   7.7113   7.7113
     7.7596   7.7596   7.7804   7.7804   7.8015   7.8028   7.8028   7.8578
     7.8578   7.8714   7.8836   7.8939   7.9015   7.9015   7.9018   7.9018
     7.9026   7.9026   7.9419   7.9565   7.9793   7.9795   7.9795   7.9817
     7.9817   8.0237   8.0237   8.0301   8.0315   8.0315   8.0402   8.0402
     8.0505   8.0505   8.0515   8.0515   8.0920   8.1122   8.1994   8.1994
     8.1995   8.4355   8.4355   8.5371   8.8282   8.8282   9.3520   9.3520
     9.6941   9.6941  10.2713

          k = 0.0427 0.2991-0.3846 ( 66300 PWs)   bands (ev):

   -64.3448 -64.3448 -64.3443 -64.3443 -64.3430 -64.3430 -64.3428 -64.3428
   -64.3427 -64.3427 -64.3425 -64.3425 -64.3418 -64.3418 -64.3416 -64.3416
   -64.3416 -64.3416 -64.3415 -64.3415 -64.3414 -64.3414 -64.3414 -64.3414
   -64.3413 -64.3413 -64.3412 -64.3412 -64.3410 -64.3410 -64.3409 -64.3409
   -34.3191 -34.3191 -34.3189 -34.3189 -34.3164 -34.3164 -34.3164 -34.3164
   -34.3158 -34.3158 -34.3156 -34.3156 -34.3147 -34.3147 -34.3143 -34.3143
   -34.3138 -34.3138 -34.3125 -34.3125 -34.3124 -34.3124 -34.3124 -34.3124
   -34.3099 -34.3099 -34.3074 -34.3074 -34.3052 -34.3052 -34.3018 -34.3018
   -34.2969 -34.2969 -34.2964 -34.2964 -34.2960 -34.2960 -34.2954 -34.2954
   -34.2926 -34.2926 -34.2926 -34.2926 -34.2924 -34.2924 -34.2922 -34.2922
   -34.2918 -34.2918 -34.2904 -34.2904 -34.2899 -34.2899 -34.2892 -34.2892
   -34.2884 -34.2884 -34.2882 -34.2882 -34.2870 -34.2870 -34.2864 -34.2864
   -34.2860 -34.2860 -34.2860 -34.2860 -34.2842 -34.2842 -34.2841 -34.2841
   -34.2839 -34.2839 -34.2834 -34.2834 -34.2820 -34.2820 -34.2820 -34.2820
   -34.2817 -34.2817 -34.2816 -34.2816 -34.2802 -34.2802 -34.2801 -34.2801
   -34.2800 -34.2800 -34.2773 -34.2773 -34.2752 -34.2752 -34.2743 -34.2743
     4.5668   4.5668   4.9044   4.9044   5.6007   5.6007   5.6445   5.6445
     5.7601   5.7601   5.7625   5.7625   5.9871   5.9871   6.0312   6.0312
     6.0400   6.0400   6.0451   6.0451   6.0496   6.0496   6.0901   6.0901
     6.1288   6.1288   6.1539   6.1539   6.1770   6.1770   6.1818   6.1818
     6.2145   6.2145   6.2156   6.2156   6.2533   6.2533   6.2679   6.2679
     6.2988   6.2988   6.4101   6.4101   6.5410   6.5410   6.5412   6.5412
     6.6407   6.6407   6.6445   6.6445   6.6742   6.6742   6.6884   6.6884
     6.7321   6.7321   6.7330   6.7330   6.8459   6.8459   6.8918   6.8918
     6.9012   6.9012   6.9258   6.9258   6.9647   6.9647   6.9755   6.9755
     6.9843   6.9843   7.0004   7.0004   7.0194   7.0194   7.0366   7.0366
     7.0470   7.0470   7.0513   7.0513   7.0623   7.0623   7.0654   7.0654
     7.1041   7.1041   7.1424   7.1424   7.1428   7.1428   7.1436   7.1436
     7.1461   7.1461   7.1702   7.1702   7.1987   7.1987   7.2018   7.2018
     7.2157   7.2157   7.2744   7.2744   7.3466   7.3466   7.3467   7.3467
     7.3530   7.3530   7.3717   7.3717   7.3751   7.3751   7.4169   7.4169
     7.6228   7.6228   7.6541   7.6542   7.7360   7.7360   7.7393   7.7393
     7.7444   7.7444   7.7799   7.7799   7.8377   7.8377   7.8478   7.8478
     7.8569   7.8569   7.8744   7.8744   7.9143   7.9143   7.9427   7.9427
     7.9530   7.9530   7.9764   7.9764   7.9894   7.9894   7.9921   7.9921
     8.0073   8.0073   8.0086   8.0086   8.0131   8.0131   8.0150   8.0150
     8.0365   8.0365   8.0443   8.0443   8.0672   8.0672   8.1737   8.1737
     8.2551   8.2551   8.4592   8.4592   9.0860   9.0860   9.2301   9.2301
     9.7841   9.7841   9.9768

          k = 0.0427-0.3846-0.3846 ( 66272 PWs)   bands (ev):

   -64.3446 -64.3446 -64.3446 -64.3446 -64.3429 -64.3429 -64.3429 -64.3429
   -64.3426 -64.3426 -64.3426 -64.3426 -64.3415 -64.3415 -64.3415 -64.3415
   -64.3415 -64.3415 -64.3415 -64.3415 -64.3415 -64.3415 -64.3415 -64.3415
   -64.3415 -64.3415 -64.3414 -64.3414 -64.3410 -64.3410 -64.3409 -64.3409
   -34.3180 -34.3180 -34.3179 -34.3179 -34.3179 -34.3179 -34.3179 -34.3179
   -34.3143 -34.3143 -34.3143 -34.3143 -34.3143 -34.3143 -34.3143 -34.3143
   -34.3141 -34.3141 -34.3141 -34.3141 -34.3121 -34.3121 -34.3121 -34.3121
   -34.3100 -34.3099 -34.3099 -34.3099 -34.3035 -34.3035 -34.3035 -34.3035
   -34.2942 -34.2942 -34.2942 -34.2942 -34.2942 -34.2942 -34.2942 -34.2942
   -34.2942 -34.2942 -34.2942 -34.2941 -34.2941 -34.2941 -34.2941 -34.2941
   -34.2893 -34.2893 -34.2893 -34.2893 -34.2890 -34.2890 -34.2890 -34.2890
   -34.2888 -34.2888 -34.2888 -34.2888 -34.2888 -34.2888 -34.2888 -34.2888
   -34.2852 -34.2852 -34.2852 -34.2852 -34.2852 -34.2852 -34.2852 -34.2852
   -34.2829 -34.2829 -34.2829 -34.2829 -34.2824 -34.2824 -34.2823 -34.2823
   -34.2811 -34.2811 -34.2811 -34.2811 -34.2807 -34.2807 -34.2807 -34.2807
   -34.2786 -34.2786 -34.2786 -34.2786 -34.2745 -34.2745 -34.2745 -34.2745
     4.7197   4.7197   4.7197   4.7197   5.6195   5.6195   5.6195   5.6195
     5.7578   5.7578   5.7578   5.7578   6.0728   6.0728   6.0728   6.0728
     6.0785   6.0785   6.0785   6.0785   6.0785   6.0785   6.0785   6.0785
     6.1261   6.1261   6.1261   6.1261   6.1261   6.1261   6.1261   6.1261
     6.2185   6.2185   6.2185   6.2185   6.2185   6.2185   6.2185   6.2185
     6.3301   6.3301   6.3301   6.3301   6.5888   6.5888   6.5888   6.5888
     6.5888   6.5888   6.5888   6.5888   6.7103   6.7103   6.7104   6.7104
     6.8103   6.8103   6.8103   6.8103   6.8715   6.8715   6.8715   6.8715
     6.8996   6.8996   6.8996   6.8996   6.9139   6.9139   6.9139   6.9140
     7.0518   7.0518   7.0518   7.0518   7.0700   7.0700   7.0700   7.0700
     7.0700   7.0700   7.0700   7.0700   7.0933   7.0933   7.0933   7.0933
     7.0935   7.0935   7.0935   7.0935   7.1415   7.1415   7.1415   7.1415
     7.1548   7.1548   7.1548   7.1548   7.1548   7.1548   7.1548   7.1548
     7.2691   7.2691   7.2691   7.2691   7.2754   7.2754   7.2754   7.2754
     7.2754   7.2754   7.2754   7.2754   7.3957   7.3957   7.3957   7.3957
     7.6843   7.6843   7.6843   7.6844   7.7068   7.7068   7.7068   7.7068
     7.8050   7.8050   7.8050   7.8050   7.8050   7.8050   7.8050   7.8050
     7.9389   7.9389   7.9389   7.9389   7.9618   7.9618   7.9618   7.9618
     7.9618   7.9618   7.9618   7.9618   7.9979   7.9979   7.9979   7.9979
     8.0183   8.0183   8.0183   8.0184   8.0184   8.0184   8.0184   8.0184
     8.0241   8.0241   8.0242   8.0242   8.0430   8.0430   8.0430   8.0430
     8.3209   8.3209   8.3209   8.3209   9.5024   9.5024   9.5024   9.5024
     9.5024   9.5024   9.5024

          k = 0.1282 0.1282 0.1282 ( 66287 PWs)   bands (ev):

   -64.3458 -64.3440 -64.3440 -64.3439 -64.3429 -64.3429 -64.3428 -64.3427
   -64.3427 -64.3427 -64.3424 -64.3420 -64.3420 -64.3420 -64.3420 -64.3420
   -64.3420 -64.3420 -64.3420 -64.3420 -64.3416 -64.3416 -64.3415 -64.3409
   -64.3409 -64.3409 -64.3409 -64.3409 -64.3409 -64.3409 -64.3409 -64.3409
   -34.3232 -34.3232 -34.3232 -34.3212 -34.3207 -34.3207 -34.3207 -34.3131
   -34.3131 -34.3131 -34.3120 -34.3120 -34.3120 -34.3120 -34.3120 -34.3120
   -34.3117 -34.3117 -34.3117 -34.3117 -34.3117 -34.3117 -34.3071 -34.3071
   -34.3071 -34.3052 -34.3052 -34.3052 -34.3039 -34.3039 -34.3039 -34.3039
   -34.3039 -34.3039 -34.2993 -34.2993 -34.2993 -34.2941 -34.2941 -34.2941
   -34.2936 -34.2936 -34.2936 -34.2936 -34.2936 -34.2936 -34.2935 -34.2935
   -34.2935 -34.2922 -34.2922 -34.2922 -34.2916 -34.2916 -34.2916 -34.2915
   -34.2915 -34.2915 -34.2877 -34.2877 -34.2876 -34.2856 -34.2856 -34.2856
   -34.2851 -34.2851 -34.2851 -34.2834 -34.2834 -34.2834 -34.2828 -34.2828
   -34.2828 -34.2820 -34.2820 -34.2820 -34.2820 -34.2820 -34.2820 -34.2815
   -34.2815 -34.2815 -34.2801 -34.2801 -34.2800 -34.2800 -34.2800 -34.2797
   -34.2797 -34.2797 -34.2783 -34.2783 -34.2783 -34.2759 -34.2731 -34.2731
     4.0356   5.0850   5.0850   5.0850   5.6055   5.7095   5.7095   5.7095
     5.7448   5.7448   5.7448   5.7839   5.7839   5.7839   5.8217   5.8217
     5.8217   5.9801   5.9801   5.9801   6.1619   6.1619   6.1619   6.1620
     6.1620   6.1620   6.2456   6.2456   6.2456   6.2616   6.2616   6.2616
     6.2617   6.2617   6.2617   6.2896   6.2896   6.2896   6.4440   6.4440
     6.4440   6.4440   6.4440   6.4440   6.5279   6.5279   6.5279   6.6536
     6.6537   6.6537   6.6813   6.6813   6.6813   6.6875   6.6875   6.6875
     6.6875   6.6875   6.6875   6.7277   6.7277   6.7277   6.7277   6.7277
     6.7277   6.8308   6.8308   6.8308   6.8627   6.8863   6.8863   6.8863
     6.8863   6.8863   6.8863   6.8900   6.8900   6.8900   6.9045   6.9045
     6.9308   6.9308   6.9308   6.9336   6.9336   6.9477   6.9477   6.9477
     7.1156   7.1156   7.1156   7.1976   7.1976   7.1976   7.2053   7.2053
     7.2053   7.2534   7.2534   7.2534   7.3327   7.3327   7.3327   7.3491
     7.3491   7.3491   7.3491   7.3491   7.3491   7.4523   7.4523   7.4523
     7.5000   7.5000   7.5000   7.5307   7.5307   7.5307   7.5411   7.5411
     7.5804   7.5805   7.5805   7.5805   7.5805   7.5805   7.7145   7.7145
     7.7145   7.7230   7.7230   7.7230   7.7230   7.7230   7.7230   7.7511
     7.7511   7.7511   7.7886   7.7886   7.7886   7.8967   7.8967   7.8967
     7.9102   7.9102   7.9102   7.9704   7.9704   7.9704   7.9788   7.9788
     7.9788   7.9975   7.9975   8.0702   8.0702   8.0702   8.1403   8.1403
     8.1403   8.1403   8.1403   8.1403   8.1635   8.1635   8.1635   8.3101
     8.4264   8.4264   8.4264   9.1761   9.1761   9.1761   9.1761   9.1761
     9.1761   9.4330   9.4330

          k = 0.1282 0.1282 0.2137 ( 66276 PWs)   bands (ev):

   -64.3456 -64.3444 -64.3439 -64.3439 -64.3431 -64.3431 -64.3428 -64.3426
   -64.3426 -64.3425 -64.3423 -64.3422 -64.3422 -64.3420 -64.3420 -64.3420
   -64.3420 -64.3419 -64.3418 -64.3418 -64.3416 -64.3414 -64.3414 -64.3411
   -64.3410 -64.3410 -64.3410 -64.3410 -64.3409 -64.3409 -64.3409 -64.3409
   -34.3227 -34.3221 -34.3221 -34.3199 -34.3199 -34.3194 -34.3194 -34.3156
   -34.3140 -34.3140 -34.3137 -34.3137 -34.3130 -34.3130 -34.3128 -34.3128
   -34.3124 -34.3124 -34.3118 -34.3118 -34.3110 -34.3110 -34.3094 -34.3088
   -34.3061 -34.3061 -34.3049 -34.3049 -34.3042 -34.3042 -34.3026 -34.3026
   -34.3019 -34.3019 -34.3010 -34.3010 -34.2963 -34.2955 -34.2955 -34.2953
   -34.2953 -34.2952 -34.2952 -34.2934 -34.2919 -34.2919 -34.2917 -34.2917
   -34.2916 -34.2916 -34.2916 -34.2915 -34.2915 -34.2905 -34.2905 -34.2903
   -34.2903 -34.2897 -34.2876 -34.2868 -34.2862 -34.2862 -34.2859 -34.2858
   -34.2858 -34.2848 -34.2846 -34.2846 -34.2845 -34.2845 -34.2837 -34.2837
   -34.2837 -34.2837 -34.2833 -34.2821 -34.2821 -34.2820 -34.2819 -34.2819
   -34.2818 -34.2818 -34.2805 -34.2805 -34.2804 -34.2797 -34.2790 -34.2790
   -34.2784 -34.2784 -34.2778 -34.2777 -34.2777 -34.2777 -34.2736 -34.2733
     4.1201   4.8367   5.1486   5.1486   5.6036   5.6369   5.6369   5.7363
     5.7456   5.7456   5.7757   5.7938   5.7938   5.8414   5.8483   5.8637
     5.8637   6.0055   6.0186   6.0186   6.0549   6.0549   6.1007   6.1007
     6.1521   6.1772   6.1772   6.2165   6.2509   6.2509   6.2561   6.2561
     6.2711   6.2711   6.2909   6.2910   6.3204   6.3204   6.3390   6.3390
     6.4500   6.4500   6.4545   6.4545   6.5460   6.5460   6.6059   6.6084
     6.6084   6.6214   6.6214   6.6366   6.6366   6.6567   6.6620   6.6620
     6.6938   6.6938   6.7271   6.7271   6.7481   6.7481   6.7934   6.8014
     6.8145   6.8145   6.8394   6.8418   6.8418   6.8602   6.8602   6.8922
     6.8923   6.8979   6.8979   6.9132   6.9201   6.9534   6.9534   6.9546
     6.9583   6.9602   6.9814   6.9814   6.9906   7.0223   7.0615   7.0615
     7.0695   7.0695   7.1040   7.1040   7.1194   7.1208   7.1738   7.1975
     7.1975   7.2359   7.2359   7.2618   7.2653   7.2653   7.3448   7.3797
     7.3797   7.3870   7.3870   7.3922   7.4224   7.4224   7.4770   7.4770
     7.4951   7.4951   7.5050   7.5050   7.5120   7.5586   7.5605   7.5605
     7.5779   7.5779   7.5803   7.5803   7.5841   7.5959   7.6273   7.6508
     7.6508   7.7020   7.7405   7.7405   7.7804   7.7804   7.8115   7.8115
     7.8141   7.8141   7.8288   7.8288   7.8398   7.8439   7.8439   7.8534
     7.8830   7.8830   7.9094   7.9328   7.9367   7.9367   7.9390   7.9626
     8.0571   8.0640   8.0640   8.0770   8.0770   8.0958   8.0958   8.0968
     8.0968   8.1370   8.1415   8.1415   8.1416   8.1571   8.1571   8.2143
     8.2502   8.2502   8.4027   8.9249   8.9249   9.1928   9.1928   9.3705
     9.3705   9.5317   9.5317

          k = 0.1282 0.1282 0.2991 ( 66264 PWs)   bands (ev):

   -64.3454 -64.3448 -64.3437 -64.3437 -64.3433 -64.3433 -64.3427 -64.3426
   -64.3425 -64.3425 -64.3423 -64.3423 -64.3420 -64.3420 -64.3420 -64.3420
   -64.3419 -64.3418 -64.3416 -64.3415 -64.3415 -64.3413 -64.3413 -64.3413
   -64.3411 -64.3411 -64.3411 -64.3410 -64.3409 -64.3409 -64.3409 -64.3409
   -34.3216 -34.3206 -34.3205 -34.3188 -34.3188 -34.3180 -34.3175 -34.3172
   -34.3164 -34.3164 -34.3156 -34.3156 -34.3132 -34.3132 -34.3129 -34.3129
   -34.3127 -34.3126 -34.3122 -34.3120 -34.3119 -34.3119 -34.3099 -34.3099
   -34.3073 -34.3073 -34.3041 -34.3041 -34.3025 -34.3025 -34.3025 -34.3025
   -34.3010 -34.3010 -34.2999 -34.2999 -34.2976 -34.2976 -34.2975 -34.2975
   -34.2965 -34.2965 -34.2931 -34.2923 -34.2918 -34.2918 -34.2916 -34.2916
   -34.2907 -34.2900 -34.2900 -34.2894 -34.2892 -34.2891 -34.2891 -34.2891
   -34.2888 -34.2888 -34.2883 -34.2872 -34.2872 -34.2872 -34.2862 -34.2858
   -34.2858 -34.2856 -34.2856 -34.2851 -34.2851 -34.2842 -34.2841 -34.2841
   -34.2839 -34.2839 -34.2830 -34.2825 -34.2825 -34.2824 -34.2819 -34.2819
   -34.2819 -34.2819 -34.2815 -34.2815 -34.2812 -34.2801 -34.2793 -34.2786
   -34.2782 -34.2782 -34.2775 -34.2775 -34.2769 -34.2762 -34.2745 -34.2739
     4.2454   4.6083   5.2407   5.2407   5.4917   5.4917   5.6176   5.6875
     5.7992   5.7992   5.8559   5.8617   5.8617   5.8654   5.8869   5.9239
     5.9239   5.9555   5.9555   6.0246   6.0247   6.0430   6.0488   6.0760
     6.0760   6.0855   6.0855   6.1499   6.2402   6.2402   6.2653   6.2653
     6.2757   6.2757   6.3125   6.3125   6.3240   6.3240   6.3675   6.3675
     6.4628   6.4628   6.4803   6.4803   6.5136   6.5136   6.5571   6.5571
     6.5714   6.5714   6.5738   6.5738   6.6339   6.6339   6.6788   6.6797
     6.7082   6.7082   6.7481   6.7481   6.7532   6.7894   6.7894   6.7938
     6.7938   6.7986   6.8113   6.8113   6.8840   6.8980   6.8980   6.9010
     6.9010   6.9143   6.9504   6.9687   6.9687   6.9920   6.9951   6.9957
     6.9957   7.0225   7.0225   7.0253   7.0253   7.0279   7.0279   7.0460
     7.0522   7.0779   7.0900   7.1035   7.1629   7.1854   7.1947   7.1947
     7.2067   7.2067   7.2247   7.2247   7.2511   7.2511   7.3917   7.4145
     7.4145   7.4208   7.4208   7.4342   7.4342   7.4469   7.4711   7.4711
     7.4721   7.4841   7.4841   7.4882   7.4882   7.5133   7.5205   7.5206
     7.5290   7.5290   7.5578   7.5684   7.5684   7.5843   7.6454   7.6454
     7.6570   7.6917   7.7202   7.7331   7.7331   7.7724   7.7724   7.8071
     7.8501   7.8501   7.8523   7.8523   7.8666   7.8769   7.8834   7.8834
     7.8940   7.8940   7.9016   7.9016   7.9071   7.9071   7.9201   8.0127
     8.0262   8.0323   8.0323   8.0378   8.0378   8.0381   8.0382   8.0962
     8.0962   8.1014   8.1435   8.1435   8.1512   8.1512   8.2639   8.2697
     8.2697   8.3671   8.4621   8.6926   8.6926   9.2194   9.2194   9.3088
     9.3088   9.3286   9.9463

          k = 0.1282 0.1282-0.3846 ( 66216 PWs)   bands (ev):

   -64.3451 -64.3451 -64.3436 -64.3436 -64.3436 -64.3435 -64.3427 -64.3427
   -64.3424 -64.3424 -64.3424 -64.3424 -64.3420 -64.3420 -64.3420 -64.3420
   -64.3417 -64.3417 -64.3416 -64.3416 -64.3413 -64.3413 -64.3413 -64.3413
   -64.3411 -64.3411 -64.3411 -64.3411 -64.3409 -64.3409 -64.3409 -64.3409
   -34.3200 -34.3200 -34.3186 -34.3186 -34.3186 -34.3186 -34.3173 -34.3173
   -34.3173 -34.3173 -34.3151 -34.3151 -34.3147 -34.3147 -34.3132 -34.3132
   -34.3132 -34.3132 -34.3123 -34.3122 -34.3122 -34.3122 -34.3086 -34.3086
   -34.3086 -34.3086 -34.3035 -34.3035 -34.3035 -34.3035 -34.3000 -34.3000
   -34.3000 -34.3000 -34.2993 -34.2993 -34.2993 -34.2993 -34.2981 -34.2981
   -34.2981 -34.2981 -34.2917 -34.2917 -34.2917 -34.2917 -34.2910 -34.2910
   -34.2900 -34.2900 -34.2896 -34.2896 -34.2884 -34.2884 -34.2884 -34.2884
   -34.2874 -34.2874 -34.2874 -34.2874 -34.2872 -34.2872 -34.2872 -34.2872
   -34.2869 -34.2869 -34.2869 -34.2869 -34.2832 -34.2831 -34.2831 -34.2831
   -34.2829 -34.2829 -34.2827 -34.2827 -34.2827 -34.2827 -34.2827 -34.2827
   -34.2825 -34.2825 -34.2819 -34.2819 -34.2819 -34.2819 -34.2789 -34.2789
   -34.2778 -34.2778 -34.2778 -34.2778 -34.2756 -34.2756 -34.2749 -34.2749
     4.4093   4.4093   5.3570   5.3570   5.3570   5.3570   5.6464   5.6464
     5.8695   5.8695   5.8696   5.8696   5.8853   5.8853   5.9417   5.9417
     5.9417   5.9417   5.9481   5.9481   5.9991   5.9991   5.9991   5.9991
     6.0915   6.0915   6.1509   6.1509   6.1509   6.1509   6.2728   6.2728
     6.2728   6.2728   6.3379   6.3379   6.3379   6.3379   6.4320   6.4320
     6.4320   6.4320   6.4955   6.4955   6.4955   6.4955   6.5227   6.5227
     6.5227   6.5227   6.6020   6.6020   6.6020   6.6020   6.7139   6.7139
     6.7413   6.7413   6.7413   6.7413   6.7440   6.7440   6.7710   6.7710
     6.7710   6.7710   6.8956   6.8956   6.8956   6.8956   6.9012   6.9012
     6.9012   6.9012   6.9072   6.9072   6.9912   6.9912   6.9912   6.9912
     6.9949   6.9949   7.0405   7.0405   7.0437   7.0437   7.0778   7.0778
     7.0778   7.0778   7.1119   7.1119   7.2156   7.2156   7.2156   7.2157
     7.2473   7.2473   7.2473   7.2473   7.2946   7.2946   7.3056   7.3056
     7.4275   7.4275   7.4480   7.4480   7.4480   7.4480   7.4485   7.4485
     7.4485   7.4485   7.4859   7.4859   7.4859   7.4859   7.5059   7.5059
     7.5059   7.5059   7.5382   7.5382   7.5382   7.5382   7.6174   7.6174
     7.6735   7.6735   7.7831   7.7831   7.8048   7.8048   7.8114   7.8114
     7.8114   7.8114   7.8137   7.8137   7.8137   7.8137   7.9620   7.9620
     7.9620   7.9620   7.9696   7.9696   7.9696   7.9696   7.9732   7.9732
     7.9732   7.9732   7.9765   7.9765   7.9765   7.9765   7.9794   7.9794
     8.0594   8.0594   8.1467   8.1467   8.1467   8.1467   8.3200   8.3200
     8.4749   8.4749   8.4749   8.4749   8.8633   8.8633   9.2577   9.2577
     9.2577   9.2577  10.2021

          k = 0.1282 0.2137 0.2137 ( 66302 PWs)   bands (ev):

   -64.3455 -64.3443 -64.3443 -64.3438 -64.3434 -64.3431 -64.3430 -64.3426
   -64.3426 -64.3422 -64.3422 -64.3422 -64.3422 -64.3421 -64.3419 -64.3419
   -64.3419 -64.3419 -64.3418 -64.3418 -64.3415 -64.3415 -64.3413 -64.3411
   -64.3411 -64.3411 -64.3410 -64.3410 -64.3410 -64.3410 -64.3410 -64.3409
   -34.3218 -34.3218 -34.3209 -34.3192 -34.3188 -34.3188 -34.3175 -34.3155
   -34.3155 -34.3147 -34.3147 -34.3139 -34.3139 -34.3134 -34.3134 -34.3130
   -34.3130 -34.3129 -34.3129 -34.3128 -34.3123 -34.3123 -34.3094 -34.3094
   -34.3072 -34.3072 -34.3072 -34.3028 -34.3028 -34.3024 -34.3023 -34.3021
   -34.3021 -34.3007 -34.3007 -34.2978 -34.2978 -34.2972 -34.2965 -34.2943
   -34.2943 -34.2937 -34.2937 -34.2935 -34.2935 -34.2917 -34.2917 -34.2914
   -34.2913 -34.2913 -34.2907 -34.2907 -34.2904 -34.2903 -34.2899 -34.2899
   -34.2895 -34.2895 -34.2882 -34.2882 -34.2864 -34.2864 -34.2859 -34.2857
   -34.2857 -34.2853 -34.2848 -34.2843 -34.2843 -34.2843 -34.2843 -34.2840
   -34.2840 -34.2840 -34.2838 -34.2836 -34.2836 -34.2825 -34.2825 -34.2822
   -34.2822 -34.2822 -34.2799 -34.2799 -34.2797 -34.2795 -34.2792 -34.2788
   -34.2788 -34.2779 -34.2779 -34.2773 -34.2773 -34.2769 -34.2741 -34.2734
     4.2033   4.9060   4.9060   5.2044   5.4598   5.5835   5.6165   5.6165
     5.7686   5.8186   5.8186   5.8257   5.8838   5.8838   5.8951   5.8951
     5.8978   6.0129   6.0129   6.0437   6.0437   6.0613   6.1402   6.1402
     6.1790   6.1790   6.1809   6.1809   6.1918   6.1918   6.2006   6.2006
     6.2310   6.2502   6.2503   6.2856   6.2856   6.3579   6.3579   6.3639
     6.3765   6.3765   6.4573   6.4573   6.5633   6.5633   6.5739   6.5984
     6.6191   6.6191   6.6206   6.6206   6.6564   6.6564   6.6679   6.7279
     6.7279   6.7282   6.7282   6.7697   6.7697   6.7736   6.7736   6.7839
     6.7839   6.8065   6.8254   6.8401   6.8401   6.8710   6.8710   6.9211
     6.9376   6.9386   6.9623   6.9623   6.9690   6.9768   6.9933   6.9983
     6.9983   7.0045   7.0045   7.0123   7.0293   7.0293   7.0427   7.0450
     7.0523   7.0523   7.0854   7.0854   7.1221   7.1221   7.1637   7.1637
     7.1733   7.1975   7.2147   7.2147   7.2926   7.2926   7.3102   7.3102
     7.3356   7.3356   7.4203   7.4261   7.4351   7.4351   7.4356   7.4462
     7.4660   7.4660   7.4673   7.4673   7.5075   7.5441   7.5441   7.5573
     7.5773   7.5773   7.5824   7.5893   7.5893   7.6223   7.6224   7.6506
     7.6506   7.6811   7.7207   7.7207   7.7335   7.7504   7.7504   7.7848
     7.8313   7.8313   7.8438   7.8438   7.8794   7.8840   7.8897   7.8897
     7.9010   7.9010   7.9025   7.9025   7.9585   7.9621   7.9621   7.9650
     8.0372   8.0638   8.0638   8.0717   8.0717   8.0742   8.0985   8.0993
     8.0994   8.1006   8.1006   8.1350   8.1350   8.1424   8.1435   8.2241
     8.2241   8.3231   8.3231   8.9403   8.9403   9.2177   9.2609   9.2609
     9.5711   9.5711   9.8262

          k = 0.1282 0.2137 0.2991 ( 66263 PWs)   bands (ev):

   -64.3452 -64.3446 -64.3441 -64.3437 -64.3436 -64.3433 -64.3430 -64.3428
   -64.3425 -64.3423 -64.3422 -64.3421 -64.3421 -64.3420 -64.3419 -64.3418
   -64.3418 -64.3417 -64.3416 -64.3415 -64.3415 -64.3413 -64.3413 -64.3412
   -64.3412 -64.3412 -64.3411 -64.3411 -64.3410 -64.3410 -64.3410 -64.3409
   -34.3210 -34.3205 -34.3193 -34.3181 -34.3179 -34.3178 -34.3171 -34.3169
   -34.3154 -34.3152 -34.3151 -34.3151 -34.3151 -34.3149 -34.3141 -34.3139
   -34.3138 -34.3132 -34.3130 -34.3127 -34.3124 -34.3117 -34.3116 -34.3101
   -34.3098 -34.3086 -34.3047 -34.3035 -34.3034 -34.3014 -34.3011 -34.2999
   -34.2996 -34.2996 -34.2992 -34.2992 -34.2989 -34.2979 -34.2957 -34.2956
   -34.2956 -34.2945 -34.2942 -34.2932 -34.2920 -34.2912 -34.2912 -34.2909
   -34.2908 -34.2905 -34.2905 -34.2900 -34.2893 -34.2891 -34.2889 -34.2885
   -34.2884 -34.2883 -34.2883 -34.2882 -34.2880 -34.2880 -34.2871 -34.2864
   -34.2863 -34.2859 -34.2858 -34.2855 -34.2853 -34.2847 -34.2844 -34.2842
   -34.2840 -34.2834 -34.2831 -34.2829 -34.2828 -34.2827 -34.2827 -34.2824
   -34.2824 -34.2822 -34.2821 -34.2805 -34.2803 -34.2798 -34.2791 -34.2787
   -34.2782 -34.2778 -34.2773 -34.2767 -34.2764 -34.2758 -34.2749 -34.2738
     4.3264   4.6824   5.0072   5.2844   5.2901   5.4968   5.5766   5.5960
     5.8077   5.8683   5.8773   5.9022   5.9083   5.9315   5.9319   5.9443
     5.9477   5.9600   5.9661   6.0393   6.0807   6.0892   6.0902   6.1007
     6.1067   6.1168   6.1233   6.1841   6.1857   6.2096   6.2106   6.2111
     6.2268   6.2370   6.2632   6.2676   6.2878   6.2884   6.3021   6.3896
     6.4281   6.4300   6.4619   6.4752   6.4836   6.4985   6.5495   6.5747
     6.5826   6.6148   6.6224   6.6358   6.6426   6.6644   6.6816   6.6868
     6.7232   6.7237   6.7412   6.7616   6.7658   6.7937   6.7943   6.8234
     6.8271   6.8324   6.8500   6.8942   6.9060   6.9193   6.9264   6.9283
     6.9644   6.9672   6.9700   6.9755   6.9766   6.9919   6.9991   7.0059
     7.0064   7.0113   7.0136   7.0360   7.0537   7.0557   7.0620   7.0739
     7.0741   7.0805   7.0888   7.0999   7.1188   7.1349   7.1593   7.1635
     7.1707   7.1769   7.2086   7.2272   7.2333   7.2522   7.2882   7.3198
     7.3272   7.3513   7.3611   7.3695   7.3805   7.4044   7.4190   7.4281
     7.4295   7.4522   7.4735   7.4780   7.4933   7.5072   7.5130   7.5410
     7.5627   7.5644   7.5807   7.5817   7.5824   7.5886   7.6208   7.6356
     7.6433   7.6669   7.6783   7.6822   7.6953   7.7284   7.7717   7.8268
     7.8335   7.8451   7.8601   7.8626   7.8761   7.8838   7.9117   7.9339
     7.9353   7.9375   7.9509   7.9514   7.9587   7.9589   7.9609   7.9681
     8.0199   8.0379   8.0396   8.0446   8.0461   8.0463   8.0512   8.0585
     8.0701   8.0734   8.1047   8.1055   8.1066   8.1255   8.1275   8.1851
     8.3041   8.5369   8.6548   8.7101   8.9695   9.0067   9.1006   9.5272
     9.6287   9.6606   9.7742

          k = 0.1282 0.2137-0.3846 ( 66274 PWs)   bands (ev):

   -64.3450 -64.3450 -64.3439 -64.3439 -64.3435 -64.3435 -64.3429 -64.3429
   -64.3424 -64.3424 -64.3421 -64.3421 -64.3421 -64.3421 -64.3418 -64.3418
   -64.3416 -64.3416 -64.3415 -64.3415 -64.3414 -64.3414 -64.3413 -64.3413
   -64.3412 -64.3412 -64.3411 -64.3411 -64.3411 -64.3410 -64.3409 -64.3409
   -34.3197 -34.3197 -34.3188 -34.3188 -34.3173 -34.3173 -34.3167 -34.3167
   -34.3167 -34.3167 -34.3150 -34.3150 -34.3147 -34.3147 -34.3145 -34.3145
   -34.3137 -34.3137 -34.3127 -34.3127 -34.3125 -34.3125 -34.3109 -34.3109
   -34.3101 -34.3101 -34.3038 -34.3038 -34.3021 -34.3021 -34.3004 -34.3004
   -34.2994 -34.2994 -34.2977 -34.2977 -34.2975 -34.2975 -34.2971 -34.2971
   -34.2969 -34.2969 -34.2918 -34.2918 -34.2912 -34.2912 -34.2910 -34.2910
   -34.2907 -34.2907 -34.2904 -34.2904 -34.2893 -34.2893 -34.2890 -34.2890
   -34.2877 -34.2877 -34.2875 -34.2875 -34.2874 -34.2874 -34.2869 -34.2869
   -34.2868 -34.2868 -34.2862 -34.2862 -34.2851 -34.2851 -34.2851 -34.2851
   -34.2835 -34.2835 -34.2834 -34.2834 -34.2832 -34.2832 -34.2823 -34.2823
   -34.2816 -34.2816 -34.2813 -34.2813 -34.2810 -34.2810 -34.2786 -34.2786
   -34.2781 -34.2781 -34.2764 -34.2764 -34.2760 -34.2760 -34.2746 -34.2746
     4.4873   4.4873   5.1369   5.1369   5.3838   5.3838   5.5815   5.5815
     5.8624   5.8624   5.9166   5.9166   5.9290   5.9290   5.9512   5.9512
     5.9938   5.9938   6.0123   6.0123   6.0197   6.0197   6.0365   6.0365
     6.1285   6.1285   6.1752   6.1752   6.1939   6.1939   6.2010   6.2010
     6.2406   6.2406   6.2437   6.2437   6.2626   6.2626   6.3730   6.3730
     6.4369   6.4369   6.4885   6.4885   6.5176   6.5176   6.5186   6.5186
     6.5258   6.5258   6.6525   6.6525   6.6667   6.6667   6.6791   6.6791
     6.7109   6.7109   6.7462   6.7462   6.7791   6.7791   6.8359   6.8359
     6.8367   6.8367   6.8938   6.8938   6.9279   6.9279   6.9411   6.9411
     6.9419   6.9419   6.9842   6.9842   7.0015   7.0015   7.0107   7.0107
     7.0304   7.0304   7.0405   7.0405   7.0450   7.0450   7.0714   7.0714
     7.1107   7.1107   7.1510   7.1510   7.1578   7.1578   7.1593   7.1593
     7.1606   7.1606   7.1905   7.1905   7.2115   7.2115   7.2352   7.2352
     7.3477   7.3477   7.3677   7.3677   7.4075   7.4075   7.4329   7.4329
     7.4419   7.4419   7.4434   7.4434   7.4655   7.4655   7.5108   7.5108
     7.5293   7.5293   7.5389   7.5389   7.5991   7.5991   7.6115   7.6115
     7.6199   7.6199   7.7659   7.7659   7.7694   7.7694   7.7780   7.7780
     7.8009   7.8009   7.8573   7.8573   7.8996   7.8996   7.9251   7.9251
     7.9370   7.9370   7.9827   7.9827   7.9894   7.9894   7.9974   7.9974
     8.0002   8.0002   8.0085   8.0085   8.0117   8.0117   8.0162   8.0162
     8.0666   8.0666   8.1149   8.1149   8.1151   8.1151   8.1340   8.1340
     8.4980   8.4980   8.7657   8.7657   9.0200   9.0200   9.0614   9.0614
     9.7001   9.7001  10.1191

          k = 0.1282 0.2991 0.2991 ( 66305 PWs)   bands (ev):

   -64.3450 -64.3445 -64.3445 -64.3440 -64.3435 -64.3432 -64.3432 -64.3429
   -64.3424 -64.3423 -64.3423 -64.3422 -64.3418 -64.3418 -64.3417 -64.3417
[...]
   -34.2881 -34.2881 -34.2881 -34.2881 -34.2858 -34.2858 -34.2858 -34.2858
   -34.2858 -34.2858 -34.2858 -34.2858 -34.2849 -34.2849 -34.2848 -34.2848
   -34.2786 -34.2786 -34.2786 -34.2786 -34.2777 -34.2777 -34.2777 -34.2777
   -34.2773 -34.2773 -34.2773 -34.2773 -34.2752 -34.2752 -34.2752 -34.2752
     4.8155   4.8155   4.8155   4.8155   5.3128   5.3128   5.3128   5.3128
     5.9642   5.9642   5.9642   5.9642   6.0555   6.0555   6.0555   6.0555
     6.0555   6.0555   6.0555   6.0555   6.0782   6.0782   6.0782   6.0782
     6.0942   6.0942   6.0942   6.0942   6.0942   6.0942   6.0942   6.0942
     6.3224   6.3224   6.3224   6.3224   6.3224   6.3224   6.3224   6.3224
     6.3731   6.3731   6.3731   6.3731   6.5866   6.5866   6.5866   6.5866
     6.5866   6.5866   6.5866   6.5866   6.6356   6.6356   6.6356   6.6356
     6.7542   6.7542   6.7542   6.7542   6.8846   6.8846   6.8846   6.8846
     6.9500   6.9500   6.9501   6.9501   7.0014   7.0014   7.0014   7.0014
     7.0211   7.0211   7.0211   7.0211   7.0211   7.0211   7.0211   7.0211
     7.0337   7.0337   7.0337   7.0337   7.0409   7.0409   7.0409   7.0409
     7.0545   7.0545   7.0545   7.0545   7.1325   7.1325   7.1325   7.1325
     7.1325   7.1325   7.1325   7.1325   7.1972   7.1972   7.1972   7.1972
     7.2685   7.2685   7.2685   7.2685   7.3315   7.3315   7.3315   7.3315
     7.3315   7.3315   7.3315   7.3315   7.4871   7.4871   7.4871   7.4871
     7.5811   7.5811   7.5811   7.5811   7.5967   7.5967   7.5967   7.5967
     7.5967   7.5967   7.5967   7.5967   7.6763   7.6763   7.6763   7.6763
     7.7031   7.7031   7.7031   7.7031   7.7952   7.7952   7.7952   7.7952
     8.0601   8.0601   8.0601   8.0601   8.0601   8.0601   8.0601   8.0601
     8.0705   8.0705   8.0705   8.0705   8.0769   8.0769   8.0769   8.0769
     8.0769   8.0769   8.0769   8.0769   8.0790   8.0790   8.0790   8.0790
     9.0628   9.0628   9.0628   9.0628   9.6695   9.6695   9.6695   9.6695
     9.6695   9.6695   9.6695

          k = 0.2991 0.2991 0.2991 ( 66368 PWs)   bands (ev):

   -64.3447 -64.3442 -64.3442 -64.3442 -64.3438 -64.3438 -64.3437 -64.3434
   -64.3418 -64.3418 -64.3418 -64.3417 -64.3417 -64.3417 -64.3417 -64.3417
   -64.3417 -64.3417 -64.3417 -64.3417 -64.3413 -64.3413 -64.3413 -64.3413
   -64.3413 -64.3413 -64.3412 -64.3412 -64.3412 -64.3412 -64.3412 -64.3412
   -34.3182 -34.3182 -34.3182 -34.3166 -34.3166 -34.3166 -34.3162 -34.3162
   -34.3162 -34.3157 -34.3157 -34.3157 -34.3157 -34.3157 -34.3157 -34.3156
   -34.3156 -34.3156 -34.3156 -34.3156 -34.3156 -34.3140 -34.3140 -34.3140
   -34.3075 -34.3017 -34.3017 -34.3017 -34.2976 -34.2976 -34.2976 -34.2976
   -34.2976 -34.2976 -34.2970 -34.2970 -34.2970 -34.2961 -34.2960 -34.2960
   -34.2958 -34.2958 -34.2958 -34.2920 -34.2920 -34.2920 -34.2920 -34.2920
   -34.2920 -34.2911 -34.2911 -34.2911 -34.2905 -34.2904 -34.2904 -34.2897
   -34.2890 -34.2890 -34.2890 -34.2880 -34.2880 -34.2880 -34.2880 -34.2880
   -34.2880 -34.2869 -34.2869 -34.2869 -34.2862 -34.2862 -34.2862 -34.2858
   -34.2858 -34.2858 -34.2858 -34.2858 -34.2858 -34.2848 -34.2848 -34.2848
   -34.2788 -34.2788 -34.2788 -34.2780 -34.2780 -34.2772 -34.2772 -34.2772
   -34.2765 -34.2765 -34.2765 -34.2762 -34.2762 -34.2762 -34.2752 -34.2752
     4.6322   4.9472   4.9472   4.9472   5.2016   5.2016   5.2016   5.3591
     5.9956   5.9956   5.9956   6.0124   6.0124   6.0124   6.0137   6.0137
     6.0137   6.0598   6.0598   6.0598   6.0598   6.0598   6.0598   6.1074
     6.1074   6.1074   6.1074   6.1074   6.1074   6.1123   6.1123   6.1123
     6.2592   6.2592   6.2592   6.3795   6.3795   6.3795   6.4220   6.4220
     6.4220   6.4220   6.4220   6.4220   6.5479   6.5479   6.5479   6.5541
     6.5541   6.5541   6.5541   6.5541   6.5541   6.6580   6.6580   6.6580
     6.7562   6.7562   6.7562   6.7877   6.8292   6.8292   6.8292   6.9489
     6.9489   6.9489   6.9489   6.9489   6.9489   6.9886   6.9886   7.0226
     7.0226   7.0226   7.0239   7.0239   7.0392   7.0392   7.0392   7.0399
     7.0399   7.0399   7.0550   7.0550   7.0550   7.0565   7.0566   7.0566
     7.0743   7.0758   7.0758   7.0758   7.0758   7.0758   7.0758   7.0777
     7.0777   7.0777   7.0904   7.0904   7.0904   7.2270   7.2270   7.2270
     7.3155   7.3155   7.3155   7.3800   7.3800   7.3800   7.3800   7.3800
     7.3800   7.3823   7.3823   7.3823   7.4705   7.4705   7.4705   7.5317
     7.5317   7.5318   7.5318   7.5318   7.5318   7.5454   7.5454   7.5454
     7.5559   7.5559   7.5817   7.5817   7.5817   7.6339   7.6339   7.6339
     7.6848   7.6848   7.6848   7.7586   7.7586   7.8052   7.8052   7.8052
     8.0481   8.0481   8.0481   8.0625   8.0625   8.0625   8.0625   8.0625
     8.0625   8.0796   8.0796   8.0796   8.0796   8.0796   8.0796   8.0888
     8.0888   8.0888   8.0894   8.0895   8.0895   8.1174   8.1174   8.1174
     9.1509   9.1509   9.1509   9.5730   9.5730   9.5730   9.5731   9.5731
     9.5731   9.8889   9.8889

          k = 0.2991 0.2991-0.3846 ( 66362 PWs)   bands (ev):

   -64.3445 -64.3445 -64.3440 -64.3440 -64.3440 -64.3440 -64.3436 -64.3436
   -64.3417 -64.3417 -64.3417 -64.3417 -64.3417 -64.3417 -64.3417 -64.3417
   -64.3415 -64.3415 -64.3415 -64.3415 -64.3415 -64.3415 -64.3414 -64.3414
   -64.3413 -64.3413 -64.3413 -64.3413 -64.3413 -64.3413 -64.3413 -64.3413
   -34.3177 -34.3177 -34.3170 -34.3170 -34.3170 -34.3170 -34.3161 -34.3161
   -34.3161 -34.3161 -34.3159 -34.3159 -34.3159 -34.3159 -34.3159 -34.3158
   -34.3158 -34.3158 -34.3153 -34.3153 -34.3148 -34.3148 -34.3148 -34.3148
   -34.3046 -34.3046 -34.2987 -34.2987 -34.2987 -34.2987 -34.2974 -34.2974
   -34.2974 -34.2974 -34.2969 -34.2969 -34.2969 -34.2969 -34.2948 -34.2948
   -34.2948 -34.2948 -34.2937 -34.2937 -34.2937 -34.2936 -34.2926 -34.2926
   -34.2915 -34.2915 -34.2915 -34.2915 -34.2911 -34.2911 -34.2911 -34.2911
   -34.2884 -34.2884 -34.2884 -34.2884 -34.2880 -34.2880 -34.2871 -34.2871
   -34.2871 -34.2870 -34.2870 -34.2870 -34.2870 -34.2870 -34.2864 -34.2864
   -34.2864 -34.2864 -34.2856 -34.2856 -34.2854 -34.2854 -34.2854 -34.2854
   -34.2782 -34.2782 -34.2778 -34.2778 -34.2778 -34.2778 -34.2772 -34.2772
   -34.2763 -34.2763 -34.2763 -34.2763 -34.2761 -34.2761 -34.2755 -34.2755
     4.7756   4.7756   5.0645   5.0645   5.0645   5.0645   5.2751   5.2751
     6.0218   6.0218   6.0237   6.0237   6.0237   6.0237   6.0329   6.0329
     6.0329   6.0329   6.0545   6.0545   6.0545   6.0545   6.0618   6.0618
     6.0937   6.0937   6.0937   6.0937   6.1063   6.1063   6.1063   6.1063
     6.3144   6.3144   6.3404   6.3404   6.3404   6.3404   6.4692   6.4692
     6.4692   6.4692   6.4811   6.4811   6.4811   6.4811   6.4896   6.4896
     6.4896   6.4896   6.5973   6.5973   6.6162   6.6162   6.6162   6.6162
     6.7792   6.7792   6.7959   6.7959   6.7959   6.7959   6.9408   6.9408
     7.0051   7.0051   7.0051   7.0051   7.0079   7.0079   7.0094   7.0094
     7.0094   7.0094   7.0113   7.0113   7.0141   7.0141   7.0141   7.0141
     7.0291   7.0291   7.0291   7.0291   7.0331   7.0331   7.0358   7.0358
     7.0444   7.0444   7.0444   7.0444   7.0619   7.0619   7.0660   7.0660
     7.0660   7.0660   7.1976   7.1976   7.1976   7.1976   7.2045   7.2045
     7.2936   7.2936   7.2936   7.2936   7.3030   7.3030   7.4177   7.4177
     7.4177   7.4177   7.4491   7.4491   7.4491   7.4491   7.4579   7.4579
     7.4579   7.4579   7.5380   7.5380   7.5533   7.5533   7.5716   7.5716
     7.5716   7.5716   7.5784   7.5784   7.5784   7.5784   7.6172   7.6172
     7.6711   7.6711   7.7243   7.7243   7.7243   7.7243   7.7738   7.7738
     8.0698   8.0698   8.0698   8.0698   8.0756   8.0756   8.0780   8.0780
     8.0780   8.0780   8.0855   8.0855   8.0855   8.0855   8.0875   8.0875
     8.0875   8.0875   8.1029   8.1029   8.1029   8.1029   8.1099   8.1099
     9.3475   9.3475   9.3475   9.3475   9.6096   9.6096   9.7168   9.7168
     9.7168   9.7168  10.0665

          k = 0.2991-0.3846-0.3846 ( 66356 PWs)   bands (ev):

   -64.3443 -64.3443 -64.3443 -64.3443 -64.3438 -64.3438 -64.3438 -64.3438
   -64.3417 -64.3417 -64.3417 -64.3417 -64.3415 -64.3415 -64.3415 -64.3415
   -64.3415 -64.3415 -64.3415 -64.3415 -64.3415 -64.3415 -64.3415 -64.3415
   -64.3415 -64.3415 -64.3415 -64.3414 -64.3413 -64.3413 -64.3413 -64.3413
   -34.3168 -34.3168 -34.3168 -34.3168 -34.3168 -34.3168 -34.3168 -34.3168
   -34.3160 -34.3160 -34.3160 -34.3160 -34.3160 -34.3160 -34.3160 -34.3160
   -34.3156 -34.3156 -34.3156 -34.3156 -34.3156 -34.3156 -34.3156 -34.3156
   -34.3016 -34.3016 -34.3016 -34.3016 -34.2972 -34.2972 -34.2972 -34.2972
   -34.2956 -34.2956 -34.2956 -34.2956 -34.2943 -34.2943 -34.2942 -34.2942
   -34.2942 -34.2942 -34.2942 -34.2942 -34.2942 -34.2942 -34.2942 -34.2942
   -34.2942 -34.2942 -34.2942 -34.2942 -34.2912 -34.2912 -34.2912 -34.2912
   -34.2877 -34.2877 -34.2877 -34.2877 -34.2875 -34.2875 -34.2875 -34.2875
   -34.2875 -34.2875 -34.2875 -34.2875 -34.2863 -34.2863 -34.2863 -34.2863
   -34.2863 -34.2863 -34.2863 -34.2863 -34.2859 -34.2859 -34.2859 -34.2859
   -34.2776 -34.2776 -34.2776 -34.2776 -34.2769 -34.2769 -34.2769 -34.2769
   -34.2767 -34.2767 -34.2767 -34.2767 -34.2758 -34.2758 -34.2758 -34.2758
     4.9078   4.9078   4.9078   4.9078   5.1624   5.1624   5.1624   5.1624
     6.0249   6.0249   6.0249   6.0249   6.0531   6.0531   6.0531   6.0531
     6.0531   6.0531   6.0531   6.0531   6.0746   6.0746   6.0746   6.0746
     6.0746   6.0746   6.0746   6.0746   6.0753   6.0753   6.0753   6.0753
     6.3988   6.3988   6.3988   6.3988   6.3988   6.3988   6.3988   6.3988
     6.4179   6.4179   6.4179   6.4179   6.5464   6.5464   6.5464   6.5464
     6.5464   6.5464   6.5464   6.5464   6.5519   6.5519   6.5519   6.5519
     6.7938   6.7938   6.7938   6.7938   6.8701   6.8701   6.8701   6.8701
     7.0025   7.0025   7.0025   7.0025   7.0159   7.0159   7.0159   7.0159
     7.0225   7.0225   7.0225   7.0225   7.0318   7.0318   7.0318   7.0318
     7.0318   7.0318   7.0318   7.0318   7.0319   7.0319   7.0319   7.0319
     7.0349   7.0349   7.0349   7.0349   7.1052   7.1052   7.1052   7.1052
     7.1052   7.1052   7.1052   7.1052   7.1354   7.1354   7.1354   7.1354
     7.3440   7.3440   7.3440   7.3440   7.3708   7.3708   7.3708   7.3708
     7.3708   7.3708   7.3708   7.3708   7.4992   7.4992   7.4992   7.4992
     7.4992   7.4992   7.4992   7.4992   7.5047   7.5047   7.5047   7.5047
     7.5579   7.5579   7.5579   7.5579   7.6435   7.6435   7.6435   7.6436
     7.6528   7.6528   7.6528   7.6528   7.7159   7.7159   7.7159   7.7159
     8.0858   8.0858   8.0858   8.0858   8.0858   8.0858   8.0858   8.0858
     8.0919   8.0919   8.0919   8.0919   8.0981   8.0981   8.0981   8.0981
     8.1011   8.1011   8.1011   8.1011   8.1011   8.1011   8.1011   8.1011
     9.5161   9.5161   9.5161   9.5161   9.8247   9.8247   9.8247   9.8247
     9.8247   9.8247   9.8247

          k =-0.3846-0.3846-0.3846 ( 66232 PWs)   bands (ev):

   -64.3441 -64.3441 -64.3441 -64.3441 -64.3441 -64.3441 -64.3440 -64.3440
   -64.3415 -64.3415 -64.3415 -64.3415 -64.3415 -64.3415 -64.3415 -64.3415
   -64.3415 -64.3415 -64.3415 -64.3415 -64.3415 -64.3415 -64.3415 -64.3415
   -64.3415 -64.3415 -64.3415 -64.3415 -64.3415 -64.3415 -64.3415 -64.3414
   -34.3162 -34.3162 -34.3162 -34.3162 -34.3162 -34.3162 -34.3162 -34.3162
   -34.3162 -34.3162 -34.3162 -34.3162 -34.3162 -34.3162 -34.3162 -34.3162
   -34.3162 -34.3162 -34.3162 -34.3162 -34.3162 -34.3161 -34.3161 -34.3161
   -34.2986 -34.2986 -34.2986 -34.2986 -34.2986 -34.2986 -34.2986 -34.2986
   -34.2943 -34.2943 -34.2942 -34.2942 -34.2942 -34.2942 -34.2942 -34.2942
   -34.2942 -34.2942 -34.2942 -34.2942 -34.2942 -34.2942 -34.2942 -34.2942
   -34.2942 -34.2942 -34.2942 -34.2942 -34.2942 -34.2942 -34.2942 -34.2942
   -34.2869 -34.2869 -34.2869 -34.2869 -34.2869 -34.2869 -34.2869 -34.2869
   -34.2869 -34.2869 -34.2869 -34.2869 -34.2869 -34.2869 -34.2869 -34.2869
   -34.2869 -34.2869 -34.2869 -34.2869 -34.2869 -34.2869 -34.2869 -34.2869
   -34.2766 -34.2766 -34.2766 -34.2766 -34.2766 -34.2766 -34.2766 -34.2766
   -34.2766 -34.2766 -34.2766 -34.2766 -34.2766 -34.2766 -34.2766 -34.2766
     5.0252   5.0252   5.0252   5.0252   5.0252   5.0252   5.0252   5.0252
     6.0599   6.0599   6.0599   6.0599   6.0599   6.0599   6.0599   6.0599
     6.0599   6.0599   6.0599   6.0599   6.0599   6.0599   6.0599   6.0599
     6.0599   6.0599   6.0599   6.0599   6.0599   6.0599   6.0599   6.0599
     6.4781   6.4781   6.4781   6.4781   6.4781   6.4781   6.4781   6.4781
     6.4781   6.4781   6.4781   6.4781   6.4781   6.4781   6.4781   6.4781
     6.4781   6.4781   6.4781   6.4781   6.4781   6.4781   6.4781   6.4781
     6.8366   6.8366   6.8366   6.8366   6.8366   6.8366   6.8366   6.8366
     7.0233   7.0233   7.0233   7.0234   7.0234   7.0234   7.0234   7.0234
     7.0234   7.0234   7.0234   7.0234   7.0234   7.0234   7.0234   7.0234
     7.0673   7.0673   7.0673   7.0673   7.0673   7.0673   7.0673   7.0673
     7.0673   7.0673   7.0673   7.0673   7.0673   7.0673   7.0673   7.0673
     7.0673   7.0673   7.0673   7.0673   7.0673   7.0673   7.0673   7.0673
     7.4239   7.4239   7.4239   7.4239   7.4239   7.4239   7.4239   7.4239
     7.4239   7.4239   7.4239   7.4239   7.4239   7.4239   7.4239   7.4239
     7.4239   7.4239   7.4239   7.4239   7.4239   7.4239   7.4239   7.4239
     7.6356   7.6356   7.6356   7.6356   7.6356   7.6356   7.6356   7.6356
     7.6356   7.6356   7.6356   7.6356   7.6356   7.6356   7.6356   7.6356
     8.1021   8.1021   8.1021   8.1021   8.1021   8.1021   8.1021   8.1021
     8.1021   8.1021   8.1021   8.1021   8.1021   8.1021   8.1021   8.1021
     8.1021   8.1021   8.1021   8.1021   8.1021   8.1021   8.1021   8.1021
    10.0164  10.0164  10.0164  10.0164  10.0164  10.0164  10.0164  10.0164
    10.0164  10.0164  10.0164

     the Fermi energy is     7.6586 ev

!    total energy              =  -13804.40242258 Ry

     total all-electron energy =   -289980.792762 Ry
     estimated scf accuracy    <       0.00000025 Ry
     smearing contrib. (-TS)   =       0.05229321 Ry
     internal energy E=F+TS    =  -13804.45471579 Ry

     The total energy is F=E-TS. E is the sum of the following terms:
     one-electron contribution =   -2868.08013120 Ry
     hartree contribution      =    1579.03693870 Ry
     xc contribution           =    -913.74062022 Ry
     ewald contribution        =   -4012.73398623 Ry
     one-center paw contrib.   =   -7588.93691683 Ry

     convergence has been achieved in  15 iterations

     Forces acting on atoms (cartesian axes, Ry/au):

     atom    1 type  1   force =     0.00000000    0.00000000    0.00000000
     atom    2 type  1   force =     0.00002013    0.00002013    0.00000000
     atom    3 type  1   force =     0.00002013   -0.00000000    0.00002013
     atom    4 type  1   force =     0.00000000    0.00002013    0.00002013
     atom    5 type  1   force =     0.00000000    0.00000000    0.00000000
     atom    6 type  1   force =    -0.00001371   -0.00001371    0.00000000
     atom    7 type  1   force =     0.00002013   -0.00000000   -0.00002013
     atom    8 type  1   force =    -0.00000000    0.00002013   -0.00002013
     atom    9 type  1   force =     0.00000000    0.00000000    0.00000000
     atom   10 type  1   force =     0.00002013   -0.00002013    0.00000000
     atom   11 type  1   force =    -0.00001371    0.00000000   -0.00001371
     atom   12 type  1   force =     0.00000000   -0.00002013    0.00002013
     atom   13 type  1   force =     0.00000000    0.00000000    0.00000000
     atom   14 type  1   force =    -0.00001371    0.00001371    0.00000000
     atom   15 type  1   force =    -0.00001371   -0.00000000    0.00001371
     atom   16 type  1   force =     0.00000000   -0.00002013   -0.00002013
     atom   17 type  1   force =     0.00000000    0.00000000    0.00000000
     atom   18 type  1   force =    -0.00002013    0.00002013    0.00000000
     atom   19 type  1   force =    -0.00002013    0.00000000    0.00002013
     atom   20 type  1   force =     0.00000000   -0.00001371   -0.00001371
     atom   21 type  1   force =     0.00000000    0.00000000    0.00000000
     atom   22 type  1   force =     0.00001371   -0.00001371   -0.00000000
     atom   23 type  1   force =    -0.00002013    0.00000000   -0.00002013
     atom   24 type  1   force =    -0.00000000   -0.00001371    0.00001371
     atom   25 type  1   force =     0.00000000    0.00000000    0.00000000
     atom   26 type  1   force =    -0.00002013   -0.00002013   -0.00000000
     atom   27 type  1   force =     0.00001371    0.00000000   -0.00001371
     atom   28 type  1   force =     0.00000000    0.00001371   -0.00001371
     atom   29 type  1   force =     0.00000000    0.00000000    0.00000000
     atom   30 type  1   force =     0.00001371    0.00001371   -0.00000000
     atom   31 type  1   force =     0.00001371    0.00000000    0.00001371
     atom   32 type  1   force =     0.00000000    0.00001371    0.00001371

     Total force =     0.000119     Total SCF correction =     0.000794
     SCF correction compared to forces is large: reduce conv_thr to get better values


     Computing stress (Cartesian axis) and pressure

          total   stress  (Ry/bohr**3)                   (kbar)     P=     -313.70
  -0.00213248   0.00000000   0.00000000         -313.70        0.00        0.00
   0.00000000  -0.00213248   0.00000000            0.00     -313.70        0.00
   0.00000000   0.00000000  -0.00213248            0.00        0.00     -313.70


     Writing output data file /scratch/BCfjEDaCQbgLeCeS.save/
 
     init_run     :     25.32s CPU     25.81s WALL (       1 calls)
     electrons    :    927.19s CPU    940.51s WALL (       1 calls)
     forces       :      7.82s CPU      7.92s WALL (       1 calls)
     stress       :     84.12s CPU     84.68s WALL (       1 calls)

     Called by init_run:
     wfcinit      :     23.72s CPU     24.10s WALL (       1 calls)
     potinit      :      0.20s CPU      0.21s WALL (       1 calls)
     hinit0       :      0.54s CPU      0.55s WALL (       1 calls)

     Called by electrons:
     c_bands      :    823.02s CPU    834.26s WALL (      16 calls)
     sum_band     :    101.30s CPU    102.91s WALL (      16 calls)
     v_of_rho     :      0.41s CPU      0.45s WALL (      16 calls)
     newd         :      0.78s CPU      1.08s WALL (      16 calls)
     PAW_pot      :      1.32s CPU      1.42s WALL (      16 calls)
     mix_rho      :      0.17s CPU      0.18s WALL (      16 calls)

     Called by c_bands:
     init_us_2    :      5.25s CPU      5.31s WALL (    1225 calls)
     cegterg      :    804.22s CPU    815.05s WALL (     560 calls)

     Called by *egterg:
     cdiaghg      :     71.71s CPU     72.66s WALL (    2259 calls)
     h_psi        :    421.68s CPU    427.22s WALL (    2329 calls)
     s_psi        :     38.29s CPU     38.54s WALL (    2329 calls)
     g_psi        :      1.23s CPU      1.24s WALL (    1734 calls)

     Called by h_psi:
     h_psi:calbec :     59.26s CPU     59.70s WALL (    2329 calls)
     vloc_psi     :    321.46s CPU    326.05s WALL (    2329 calls)
     add_vuspsi   :     38.02s CPU     38.42s WALL (    2329 calls)

     General routines
     calbec       :     99.37s CPU    100.02s WALL (    3064 calls)
     fft          :      0.55s CPU      0.58s WALL (     232 calls)
     ffts         :      0.04s CPU      0.04s WALL (      32 calls)
     fftw         :    375.32s CPU    380.51s WALL (  972394 calls)
     interpolate  :      0.05s CPU      0.07s WALL (      16 calls)
 
     Parallel routines
     fft_scatt_xy :     28.87s CPU     29.27s WALL (  972658 calls)
     fft_scatt_yz :    292.43s CPU    296.59s WALL (  972658 calls)
 
     PWSCF        :  17m38.29s CPU  17m56.58s WALL

 
   This run was terminated on:  16: 3:46  25Nov2021            

=------------------------------------------------------------------------------=
   JOB DONE.
=------------------------------------------------------------------------------=
