
     Program PWSCF v.6.7MaX starts on 25Nov2021 at 15:21:11 

     This program is part of the open-source Quantum ESPRESSO suite
     for quantum simulation of materials; please cite
         "P. Giannozzi et al., J. Phys.:Condens. Matter 21 395502 (2009);
         "P. Giannozzi et al., J. Phys.:Condens. Matter 29 465901 (2017);
          URL http://www.quantum-espresso.org", 
     in publications or presentations arising from this work. More details at
     http://www.quantum-espresso.org/quote

     Parallel version (MPI & OpenMP), running on      72 processor cores
     Number of MPI processes:                72
     Threads/MPI process:                     1

     MPI processes distributed on     1 nodes
     R & G space division:  proc/nbgrp/npool/nimage =      72
     Reading input from fcc_2.in
Warning: card &CELL ignored
Warning: card CELL_DYNAMICS = 'BFGS', ignored
Warning: card CELL_FACTOR = 2.0, ignored
Warning: card PRESS = 0.0, ignored
Warning: card / ignored

     Current dimensions of program PWSCF are:
     Max number of different atomic species (ntypx) = 10
     Max number of k-points (npk) =  40000
     Max angular momentum in pseudopotentials (lmaxx) =  3
     file Ru.pbe-spn-kjpaw_psl.1.0.0.UPF: wavefunction(s)  4D renormalized

     Subspace diagonalization in iterative solution of the eigenvalue problem:
     one sub-group per band group will be used
     ELPA distributed-memory algorithm (size of sub-group:  8*  8 procs)

     Found symmetry operation: I + (  0.2500  0.2500  0.0000)
     This is a supercell, fractional translations are disabled
     Message from routine setup:
     using ibrav=0 with symmetry is DISCOURAGED, use correct ibrav instead
 
     Parallelization info
     --------------------
     sticks:   dense  smooth     PW     G-vecs:    dense   smooth      PW
     Min         119      78     21                 8309     4452     625
     Max         120      79     23                 8314     4459     629
     Sum        8585    5673   1541               598441   320797   45145
 


     bravais-lattice index     =            0
     lattice parameter (alat)  =      14.4000  a.u.
     unit-cell volume          =    3974.3447 (a.u.)^3
     number of atoms/cell      =           32
     number of atomic types    =            1
     number of electrons       =       512.00
     number of Kohn-Sham states=          307
     kinetic-energy cutoff     =      71.0000  Ry
     charge density cutoff     =     430.0000  Ry
     scf convergence threshold =      1.0E-06
     mixing beta               =       0.1000
     number of iterations used =           10  TF        mixing
     Exchange-correlation= SLA  PW   PBX  PBC
                           (   1   4   3   4   0   0   0)

     celldm(1)=  14.400000  celldm(2)=   0.000000  celldm(3)=   0.000000
     celldm(4)=   0.000000  celldm(5)=   0.000000  celldm(6)=   0.000000

     crystal axes: (cart. coord. in units of alat)
               a(1) = (   1.100000   0.000000   0.000000 )  
               a(2) = (   0.000000   1.100000   0.000000 )  
               a(3) = (   0.000000   0.000000   1.100000 )  

     reciprocal axes: (cart. coord. in units 2 pi/alat)
               b(1) = (  0.909091  0.000000  0.000000 )  
               b(2) = (  0.000000  0.909091  0.000000 )  
               b(3) = (  0.000000  0.000000  0.909091 )  


     PseudoPot. # 1 for Ru read from file:
     /rds/homes/b/bxp912/pp/Ru.pbe-spn-kjpaw_psl.1.0.0.UPF
     MD5 check sum: 0ae1f594dea09af7be8575c3a481d1ae
     Pseudo is Projector augmented-wave + core cor, Zval = 16.0
     Generated using "atomic" code by A. Dal Corso  v.5.1
     Shape of augmentation charge: PSQ
     Using radial grid of 1233 points,  6 beta functions with: 
                l(1) =   0
                l(2) =   0
                l(3) =   1
                l(4) =   1
                l(5) =   2
                l(6) =   2
     Q(r) pseudized with 0 coefficients 


     atomic species   valence    mass     pseudopotential
        Ru            16.00   101.07000     Ru( 1.00)

     48 Sym. Ops., with inversion, found



   Cartesian axes

     site n.     atom                  positions (alat units)
         1           Ru  tau(   1) = (   0.0000000   0.0000000   0.0000000  )
         2           Ru  tau(   2) = (   0.2750000   0.2750000   0.0000000  )
         3           Ru  tau(   3) = (   0.2750000   0.0000000   0.2750000  )
         4           Ru  tau(   4) = (   0.0000000   0.2750000   0.2750000  )
         5           Ru  tau(   5) = (   0.0000000   0.0000000   0.5500000  )
         6           Ru  tau(   6) = (   0.2750000   0.2750000   0.5500000  )
         7           Ru  tau(   7) = (   0.2750000   0.0000000   0.8250000  )
         8           Ru  tau(   8) = (   0.0000000   0.2750000   0.8250000  )
         9           Ru  tau(   9) = (   0.0000000   0.5500000   0.0000000  )
        10           Ru  tau(  10) = (   0.2750000   0.8250000   0.0000000  )
        11           Ru  tau(  11) = (   0.2750000   0.5500000   0.2750000  )
        12           Ru  tau(  12) = (   0.0000000   0.8250000   0.2750000  )
        13           Ru  tau(  13) = (   0.0000000   0.5500000   0.5500000  )
        14           Ru  tau(  14) = (   0.2750000   0.8250000   0.5500000  )
        15           Ru  tau(  15) = (   0.2750000   0.5500000   0.8250000  )
        16           Ru  tau(  16) = (   0.0000000   0.8250000   0.8250000  )
        17           Ru  tau(  17) = (   0.5500000   0.0000000   0.0000000  )
        18           Ru  tau(  18) = (   0.8250000   0.2750000   0.0000000  )
        19           Ru  tau(  19) = (   0.8250000   0.0000000   0.2750000  )
        20           Ru  tau(  20) = (   0.5500000   0.2750000   0.2750000  )
        21           Ru  tau(  21) = (   0.5500000   0.0000000   0.5500000  )
        22           Ru  tau(  22) = (   0.8250000   0.2750000   0.5500000  )
        23           Ru  tau(  23) = (   0.8250000   0.0000000   0.8250000  )
        24           Ru  tau(  24) = (   0.5500000   0.2750000   0.8250000  )
        25           Ru  tau(  25) = (   0.5500000   0.5500000   0.0000000  )
        26           Ru  tau(  26) = (   0.8250000   0.8250000   0.0000000  )
        27           Ru  tau(  27) = (   0.8250000   0.5500000   0.2750000  )
        28           Ru  tau(  28) = (   0.5500000   0.8250000   0.2750000  )
        29           Ru  tau(  29) = (   0.5500000   0.5500000   0.5500000  )
        30           Ru  tau(  30) = (   0.8250000   0.8250000   0.5500000  )
        31           Ru  tau(  31) = (   0.8250000   0.5500000   0.8250000  )
        32           Ru  tau(  32) = (   0.5500000   0.8250000   0.8250000  )

     number of k points=    35  Marzari-Vanderbilt smearing, width (Ry)=  0.0400
                       cart. coord. in units 2pi/alat
        k(    1) = (   0.0505051   0.0505051   0.0505051), wk =   0.0219479
        k(    2) = (   0.0505051   0.0505051   0.1515152), wk =   0.0658436
        k(    3) = (   0.0505051   0.0505051   0.2525253), wk =   0.0658436
        k(    4) = (   0.0505051   0.0505051   0.3535354), wk =   0.0658436
        k(    5) = (   0.0505051   0.0505051  -0.4545455), wk =   0.0329218
        k(    6) = (   0.0505051   0.1515152   0.1515152), wk =   0.0658436
        k(    7) = (   0.0505051   0.1515152   0.2525253), wk =   0.1316872
        k(    8) = (   0.0505051   0.1515152   0.3535354), wk =   0.1316872
        k(    9) = (   0.0505051   0.1515152  -0.4545455), wk =   0.0658436
        k(   10) = (   0.0505051   0.2525253   0.2525253), wk =   0.0658436
        k(   11) = (   0.0505051   0.2525253   0.3535354), wk =   0.1316872
        k(   12) = (   0.0505051   0.2525253  -0.4545455), wk =   0.0658436
        k(   13) = (   0.0505051   0.3535354   0.3535354), wk =   0.0658436
        k(   14) = (   0.0505051   0.3535354  -0.4545455), wk =   0.0658436
        k(   15) = (   0.0505051  -0.4545455  -0.4545455), wk =   0.0164609
        k(   16) = (   0.1515152   0.1515152   0.1515152), wk =   0.0219479
        k(   17) = (   0.1515152   0.1515152   0.2525253), wk =   0.0658436
        k(   18) = (   0.1515152   0.1515152   0.3535354), wk =   0.0658436
        k(   19) = (   0.1515152   0.1515152  -0.4545455), wk =   0.0329218
        k(   20) = (   0.1515152   0.2525253   0.2525253), wk =   0.0658436
        k(   21) = (   0.1515152   0.2525253   0.3535354), wk =   0.1316872
        k(   22) = (   0.1515152   0.2525253  -0.4545455), wk =   0.0658436
        k(   23) = (   0.1515152   0.3535354   0.3535354), wk =   0.0658436
        k(   24) = (   0.1515152   0.3535354  -0.4545455), wk =   0.0658436
        k(   25) = (   0.1515152  -0.4545455  -0.4545455), wk =   0.0164609
        k(   26) = (   0.2525253   0.2525253   0.2525253), wk =   0.0219479
        k(   27) = (   0.2525253   0.2525253   0.3535354), wk =   0.0658436
        k(   28) = (   0.2525253   0.2525253  -0.4545455), wk =   0.0329218
        k(   29) = (   0.2525253   0.3535354   0.3535354), wk =   0.0658436
        k(   30) = (   0.2525253   0.3535354  -0.4545455), wk =   0.0658436
        k(   31) = (   0.2525253  -0.4545455  -0.4545455), wk =   0.0164609
        k(   32) = (   0.3535354   0.3535354   0.3535354), wk =   0.0219479
        k(   33) = (   0.3535354   0.3535354  -0.4545455), wk =   0.0329218
        k(   34) = (   0.3535354  -0.4545455  -0.4545455), wk =   0.0164609
        k(   35) = (  -0.4545455  -0.4545455  -0.4545455), wk =   0.0027435

     Dense  grid:   598441 G-vectors     FFT dimensions: ( 108, 108, 108)

     Smooth grid:   320797 G-vectors     FFT dimensions: (  90,  90,  90)

     Estimated max dynamical RAM per process >     141.72 MB

     Estimated total dynamical RAM >       9.96 GB

     Check: negative core charge=   -0.000002

     Initial potential from superposition of free atoms

     starting charge  511.97959, renormalised to  512.00000
     Starting wfcs are  320 randomized atomic wfcs
     Checking if some PAW data can be deallocated... 

     total cpu time spent up to now is       20.2 secs

     Self-consistent Calculation

     iteration #  1     ecut=    71.00 Ry     beta= 0.10
     Davidson diagonalization with overlap
     ethr =  1.00E-02,  avg # of iterations =  3.4

     Threshold (ethr) on eigenvalues was too large:
     Diagonalizing with lowered threshold

     Davidson diagonalization with overlap
     ethr =  1.97E-05,  avg # of iterations =  6.3

     total cpu time spent up to now is      143.2 secs

     total energy              =  -13811.44061026 Ry
     estimated scf accuracy    <       0.30838161 Ry

     iteration #  2     ecut=    71.00 Ry     beta= 0.10
     Davidson diagonalization with overlap
     ethr =  6.02E-05,  avg # of iterations =  1.0

     total cpu time spent up to now is      178.1 secs

     total energy              =  -13811.32913364 Ry
     estimated scf accuracy    <       0.23300635 Ry

     iteration #  3     ecut=    71.00 Ry     beta= 0.10
     Davidson diagonalization with overlap
     ethr =  4.55E-05,  avg # of iterations =  2.6

     total cpu time spent up to now is      228.7 secs

     total energy              =  -13811.38307592 Ry
     estimated scf accuracy    <       0.00721666 Ry

     iteration #  4     ecut=    71.00 Ry     beta= 0.10
     Davidson diagonalization with overlap
     ethr =  1.41E-06,  avg # of iterations =  2.2

     total cpu time spent up to now is      283.8 secs

     total energy              =  -13811.38505059 Ry
     estimated scf accuracy    <       0.00442027 Ry

     iteration #  5     ecut=    71.00 Ry     beta= 0.10
     Davidson diagonalization with overlap
     ethr =  8.63E-07,  avg # of iterations =  2.5

     total cpu time spent up to now is      327.6 secs

     total energy              =  -13811.38501843 Ry
     estimated scf accuracy    <       0.00287644 Ry

     iteration #  6     ecut=    71.00 Ry     beta= 0.10
     Davidson diagonalization with overlap
     ethr =  5.62E-07,  avg # of iterations =  2.1

     total cpu time spent up to now is      372.3 secs

     total energy              =  -13811.38546993 Ry
     estimated scf accuracy    <       0.00008664 Ry

     iteration #  7     ecut=    71.00 Ry     beta= 0.10
     Davidson diagonalization with overlap
     ethr =  1.69E-08,  avg # of iterations =  4.2

     total cpu time spent up to now is      424.2 secs

     total energy              =  -13811.38539052 Ry
     estimated scf accuracy    <       0.00008290 Ry

     iteration #  8     ecut=    71.00 Ry     beta= 0.10
     Davidson diagonalization with overlap
     ethr =  1.62E-08,  avg # of iterations =  5.0

     total cpu time spent up to now is      489.4 secs

     total energy              =  -13811.38536038 Ry
     estimated scf accuracy    <       0.00079808 Ry

     iteration #  9     ecut=    71.00 Ry     beta= 0.10
     Davidson diagonalization with overlap
     ethr =  1.62E-08,  avg # of iterations =  3.7

     total cpu time spent up to now is      544.5 secs

     total energy              =  -13811.38542487 Ry
     estimated scf accuracy    <       0.00008808 Ry

     iteration # 10     ecut=    71.00 Ry     beta= 0.10
     Davidson diagonalization with overlap
     ethr =  1.62E-08,  avg # of iterations =  1.0

     total cpu time spent up to now is      577.5 secs

     total energy              =  -13811.38538156 Ry
     estimated scf accuracy    <       0.00007441 Ry

     iteration # 11     ecut=    71.00 Ry     beta= 0.10
     Davidson diagonalization with overlap
     ethr =  1.45E-08,  avg # of iterations =  3.2

     total cpu time spent up to now is      626.2 secs

     total energy              =  -13811.38540685 Ry
     estimated scf accuracy    <       0.00000569 Ry

     iteration # 12     ecut=    71.00 Ry     beta= 0.10
     Davidson diagonalization with overlap
     ethr =  1.11E-09,  avg # of iterations =  2.1

     total cpu time spent up to now is      667.5 secs

     total energy              =  -13811.38540626 Ry
     estimated scf accuracy    <       0.00000261 Ry

     iteration # 13     ecut=    71.00 Ry     beta= 0.10
     Davidson diagonalization with overlap
     ethr =  5.10E-10,  avg # of iterations =  2.3

     total cpu time spent up to now is      713.2 secs

     End of self-consistent calculation

          k = 0.0505 0.0505 0.0505 ( 40126 PWs)   bands (ev):

   -56.5675 -56.5393 -56.5393 -56.5393 -56.5339 -56.5339 -56.5338 -56.5238
   -56.5238 -56.5238 -56.5212 -56.5208 -56.5208 -56.5208 -56.5208 -56.5208
   -56.5208 -56.5207 -56.5207 -56.5207 -56.5183 -56.5183 -56.5183 -56.5055
   -56.5055 -56.5054 -56.5054 -56.5054 -56.5054 -56.5054 -56.5054 -56.5053
   -26.6610 -26.6610 -26.6610 -26.6594 -26.6408 -26.6408 -26.6408 -26.5642
   -26.5642 -26.5642 -26.5598 -26.5598 -26.5598 -26.5598 -26.5598 -26.5598
   -26.5522 -26.5522 -26.5521 -26.5466 -26.5466 -26.5466 -26.5466 -26.5466
   -26.5466 -26.5281 -26.5281 -26.5281 -26.5281 -26.5281 -26.5281 -26.4881
   -26.4881 -26.4881 -26.4637 -26.4637 -26.4637 -26.4580 -26.4580 -26.4580
   -26.4484 -26.4484 -26.4484 -26.4484 -26.4484 -26.4484 -26.4336 -26.4336
   -26.4336 -26.4321 -26.4321 -26.4321 -26.4320 -26.4320 -26.4320 -26.4318
   -26.4318 -26.4318 -26.4302 -26.4302 -26.4302 -26.3680 -26.3680 -26.3680
   -26.3679 -26.3679 -26.3679 -26.3559 -26.3559 -26.3559 -26.3558 -26.3558
   -26.3558 -26.3519 -26.3519 -26.3519 -26.3473 -26.3473 -26.3473 -26.3468
   -26.3468 -26.3468 -26.3468 -26.3468 -26.3468 -26.3462 -26.3462 -26.3462
   -26.3451 -26.3451 -26.3399 -26.3398 -26.3398 -26.2952 -26.2928 -26.2928
     9.8917  11.8044  11.8044  11.8044  11.9176  11.9213  11.9213  11.9213
    11.9331  11.9331  11.9331  12.0578  12.0578  12.0578  12.2581  12.2581
    12.2581  12.8970  12.8970  12.8970  12.8970  12.8970  12.8970  12.9492
    12.9492  12.9492  13.0881  13.0881  13.0881  13.0881  13.0881  13.0881
    13.1193  13.1193  13.1193  13.1540  13.1540  13.1540  13.3016  13.3016
    13.3016  13.6147  13.6147  13.6147  13.6147  13.6147  13.6147  13.7191
    13.7191  13.7191  13.7442  13.7442  13.7442  13.7442  13.7442  13.7442
    13.8042  13.8042  13.8042  13.9456  13.9456  13.9456  13.9456  13.9456
    13.9456  13.9479  13.9479  13.9479  13.9967  13.9967  13.9967  13.9967
    13.9967  13.9967  14.1251  14.1251  14.1251  14.3084  14.3084  14.3084
    14.3302  14.3302  14.3402  14.3402  14.3402  14.3735  14.3934  14.3934
    15.0159  15.0159  15.0159  15.0929  15.0929  15.0929  15.2014  15.2014
    15.2014  15.2644  15.2644  15.2644  15.2644  15.2644  15.2644  15.2754
    15.2754  15.2754  15.4409  15.4409  15.4409  15.5141  15.5141  15.5141
    15.6793  15.6793  15.6793  15.7529  15.7529  15.7529  15.7608  15.7608
    15.7608  15.7608  15.7608  15.7608  15.7624  15.7624  15.7624  15.8915
    15.8915  15.8986  15.8986  15.8986  15.8987  15.8987  15.8987  16.0084
    16.0084  16.0084  16.3880  16.3880  16.3880  16.4888  16.4889  16.4889
    16.6321  16.6321  16.6321  16.9300  16.9942  16.9942  16.9942  17.0306
    17.0306  17.0513  17.0513  17.0513  17.2570  17.2570  17.2570  17.3426
    17.3426  17.3426  17.3426  17.3426  17.3426  17.3458  17.3458  17.3458
    17.4548  17.4548  17.4548  18.3923  18.3923  18.3923  18.7933  18.7933
    18.7933  18.7933  18.7933

          k = 0.0505 0.0505 0.1515 ( 40121 PWs)   bands (ev):

   -56.5666 -56.5447 -56.5388 -56.5388 -56.5334 -56.5334 -56.5285 -56.5267
   -56.5267 -56.5237 -56.5233 -56.5233 -56.5216 -56.5208 -56.5208 -56.5207
   -56.5207 -56.5202 -56.5184 -56.5179 -56.5179 -56.5159 -56.5158 -56.5064
   -56.5059 -56.5059 -56.5058 -56.5058 -56.5055 -56.5055 -56.5054 -56.5054
   -26.6583 -26.6567 -26.6567 -26.6537 -26.6377 -26.6377 -26.6359 -26.5756
   -26.5705 -26.5705 -26.5660 -26.5660 -26.5650 -26.5650 -26.5645 -26.5645
   -26.5625 -26.5532 -26.5532 -26.5503 -26.5502 -26.5454 -26.5454 -26.5421
   -26.5421 -26.5310 -26.5309 -26.5248 -26.5248 -26.5175 -26.5102 -26.5102
   -26.4928 -26.4928 -26.4787 -26.4787 -26.4641 -26.4641 -26.4630 -26.4630
   -26.4517 -26.4378 -26.4378 -26.4356 -26.4356 -26.4333 -26.4333 -26.4319
   -26.4318 -26.4299 -26.4298 -26.4297 -26.4282 -26.4281 -26.4268 -26.4268
   -26.4263 -26.4263 -26.4238 -26.4189 -26.4189 -26.3802 -26.3797 -26.3707
   -26.3707 -26.3650 -26.3650 -26.3593 -26.3592 -26.3584 -26.3584 -26.3560
   -26.3560 -26.3536 -26.3524 -26.3524 -26.3517 -26.3511 -26.3511 -26.3473
   -26.3472 -26.3468 -26.3468 -26.3465 -26.3465 -26.3441 -26.3441 -26.3441
   -26.3440 -26.3437 -26.3400 -26.3353 -26.3353 -26.3015 -26.2948 -26.2941
     9.9573  11.4860  11.8519  11.8519  11.9401  11.9500  11.9657  11.9657
    11.9711  11.9711  11.9863  12.1057  12.1057  12.2098  12.2847  12.2969
    12.2969  12.7853  12.7901  12.7901  12.8137  12.8137  12.9041  12.9041
    12.9324  12.9324  12.9369  12.9369  12.9458  12.9769  12.9855  12.9855
    13.1423  13.1423  13.1970  13.1970  13.2122  13.2122  13.3197  13.3197
    13.3206  13.3206  13.4877  13.5927  13.5927  13.6171  13.6171  13.6530
    13.6530  13.6743  13.6743  13.7438  13.7438  13.7815  13.7815  13.8369
    13.8369  13.8558  13.9070  13.9070  13.9083  13.9083  13.9181  13.9189
    13.9189  13.9503  13.9503  14.0349  14.0349  14.0905  14.0905  14.1409
    14.1690  14.2066  14.2066  14.2648  14.2841  14.2841  14.3082  14.3082
    14.3294  14.3364  14.3526  14.3749  14.3749  14.3823  14.4217  14.4241
    14.8769  14.8769  14.9300  14.9300  15.0316  15.0686  15.1384  15.1384
    15.1602  15.2199  15.2199  15.2200  15.3110  15.3134  15.3306  15.3306
    15.3586  15.3586  15.3852  15.3852  15.4258  15.4258  15.6379  15.6379
    15.6485  15.6485  15.6576  15.6576  15.7605  15.7605  15.7695  15.7695
    15.8266  15.8266  15.8499  15.8603  15.8603  15.8918  15.8918  15.9051
    15.9074  15.9298  16.0389  16.0404  16.0405  16.0795  16.0795  16.1343
    16.1547  16.1547  16.2629  16.2908  16.3064  16.3064  16.4290  16.4290
    16.4818  16.5495  16.5495  16.5907  16.9169  16.9169  16.9621  16.9665
    16.9665  16.9705  17.0216  17.0216  17.0232  17.1786  17.2678  17.2678
    17.2686  17.2686  17.2807  17.3165  17.3420  17.3420  17.3424  17.3424
    17.7125  17.7125  17.9043  18.0200  18.0200  18.3596  18.4012  18.4012
    18.7648  18.7648  18.8009

          k = 0.0505 0.0505 0.2525 ( 40159 PWs)   bands (ev):

   -56.5647 -56.5498 -56.5378 -56.5377 -56.5326 -56.5325 -56.5295 -56.5295
   -56.5256 -56.5256 -56.5235 -56.5234 -56.5221 -56.5208 -56.5208 -56.5207
   -56.5207 -56.5198 -56.5185 -56.5151 -56.5151 -56.5135 -56.5135 -56.5083
   -56.5069 -56.5069 -56.5067 -56.5067 -56.5055 -56.5055 -56.5054 -56.5054
   -26.6514 -26.6486 -26.6486 -26.6441 -26.6316 -26.6316 -26.6261 -26.5924
   -26.5869 -26.5868 -26.5815 -26.5815 -26.5788 -26.5674 -26.5674 -26.5653
   -26.5653 -26.5556 -26.5555 -26.5462 -26.5462 -26.5453 -26.5445 -26.5445
   -26.5319 -26.5319 -26.5301 -26.5301 -26.5190 -26.5190 -26.5011 -26.5011
   -26.4930 -26.4930 -26.4930 -26.4930 -26.4770 -26.4770 -26.4747 -26.4747
   -26.4421 -26.4421 -26.4335 -26.4317 -26.4317 -26.4301 -26.4300 -26.4256
   -26.4241 -26.4213 -26.4213 -26.4189 -26.4189 -26.4174 -26.4174 -26.4164
   -26.4164 -26.4087 -26.4049 -26.4049 -26.3994 -26.3917 -26.3910 -26.3760
   -26.3760 -26.3686 -26.3686 -26.3670 -26.3670 -26.3639 -26.3635 -26.3635
   -26.3600 -26.3600 -26.3594 -26.3593 -26.3534 -26.3513 -26.3482 -26.3469
   -26.3469 -26.3468 -26.3468 -26.3466 -26.3466 -26.3438 -26.3438 -26.3431
   -26.3404 -26.3333 -26.3333 -26.3327 -26.3321 -26.3127 -26.2990 -26.2980
    10.0871  11.1463  11.9444  11.9444  12.0001  12.0043  12.0464  12.0464
    12.0523  12.0523  12.0762  12.1988  12.1988  12.2568  12.3374  12.3743
    12.3743  12.5834  12.6117  12.6117  12.6711  12.6711  12.6864  12.6864
    12.7581  12.7854  12.8421  12.8421  12.9998  12.9998  13.0154  13.0154
    13.0592  13.0592  13.1875  13.1875  13.2257  13.2257  13.3279  13.3279
    13.3574  13.3574  13.5459  13.5459  13.5562  13.5562  13.6135  13.6135
    13.6170  13.6170  13.6254  13.6254  13.6678  13.6678  13.6718  13.7660
    13.7660  13.8452  13.8452  13.9089  13.9376  13.9376  13.9570  13.9570
    13.9938  13.9938  14.0910  14.0948  14.0948  14.2032  14.2419  14.2419
    14.2592  14.2641  14.2641  14.3078  14.3543  14.3636  14.3636  14.4070
    14.4391  14.4399  14.4399  14.4556  14.4832  14.4853  14.7023  14.7023
    14.7086  14.7086  14.7206  14.7206  14.9035  14.9747  14.9747  14.9877
    15.0004  15.0205  15.2617  15.2964  15.2964  15.4182  15.4182  15.4396
    15.4396  15.4759  15.4759  15.5220  15.5220  15.5917  15.5917  15.6454
    15.6454  15.6712  15.7223  15.7223  15.7532  15.7532  15.7695  15.7765
    15.7765  15.7931  15.7931  15.8850  15.9093  15.9093  15.9387  15.9593
    15.9593  16.0030  16.0336  16.0336  16.1075  16.1850  16.1997  16.2349
    16.2349  16.2862  16.2862  16.3136  16.3323  16.3323  16.3463  16.5049
    16.5049  16.5447  16.5447  16.6915  16.7165  16.7165  16.8256  16.8256
    16.8496  16.9195  16.9317  16.9317  16.9482  17.0258  17.1300  17.1300
    17.1308  17.1308  17.1617  17.3415  17.3415  17.3422  17.3422  17.6023
    17.6685  17.6685  18.0048  18.0048  18.0243  18.0243  18.2924  18.3017
    18.3124  18.7044  18.7044

          k = 0.0505 0.0505 0.3535 ( 40177 PWs)   bands (ev):

   -56.5621 -56.5544 -56.5363 -56.5362 -56.5321 -56.5321 -56.5313 -56.5313
   -56.5278 -56.5278 -56.5233 -56.5225 -56.5208 -56.5208 -56.5207 -56.5207
   -56.5194 -56.5188 -56.5187 -56.5125 -56.5125 -56.5114 -56.5114 -56.5110
   -56.5084 -56.5084 -56.5079 -56.5079 -56.5055 -56.5054 -56.5054 -56.5054
   -26.6408 -26.6368 -26.6368 -26.6310 -26.6226 -26.6226 -26.6116 -26.6103
   -26.6048 -26.6048 -26.5972 -26.5972 -26.5972 -26.5707 -26.5674 -26.5674
   -26.5624 -26.5624 -26.5608 -26.5608 -26.5514 -26.5514 -26.5343 -26.5343
   -26.5265 -26.5265 -26.5166 -26.5166 -26.5116 -26.5116 -26.5111 -26.5111
   -26.5061 -26.5061 -26.4899 -26.4899 -26.4879 -26.4879 -26.4772 -26.4772
   -26.4513 -26.4513 -26.4313 -26.4313 -26.4303 -26.4303 -26.4195 -26.4182
   -26.4137 -26.4056 -26.4056 -26.4055 -26.4055 -26.4045 -26.4045 -26.4034
   -26.4034 -26.4023 -26.4013 -26.3922 -26.3920 -26.3920 -26.3837 -26.3837
   -26.3797 -26.3797 -26.3794 -26.3794 -26.3779 -26.3727 -26.3712 -26.3712
   -26.3710 -26.3710 -26.3634 -26.3545 -26.3544 -26.3507 -26.3492 -26.3468
   -26.3467 -26.3466 -26.3466 -26.3457 -26.3457 -26.3423 -26.3413 -26.3413
   -26.3408 -26.3339 -26.3339 -26.3287 -26.3222 -26.3214 -26.3051 -26.3041
    10.2780  10.8187  12.0767  12.0767  12.0775  12.0970  12.1581  12.1581
    12.1763  12.1763  12.2014  12.2274  12.3313  12.3313  12.3930  12.4155
    12.4236  12.4236  12.4821  12.4821  12.4901  12.4901  12.5010  12.5010
    12.5474  12.6416  12.6707  12.6707  12.8336  12.8336  13.0906  13.0906
    13.1294  13.1294  13.2304  13.2304  13.2536  13.2536  13.4096  13.4096
    13.4290  13.4290  13.4375  13.4375  13.4534  13.4534  13.5188  13.5188
    13.5439  13.5439  13.5555  13.5555  13.5982  13.5982  13.7543  13.7543
    13.7825  13.7825  13.8476  13.9547  13.9547  13.9621  13.9621  13.9748
    14.0571  14.0571  14.1292  14.1480  14.1644  14.1858  14.1858  14.1957
    14.1957  14.2698  14.3311  14.3311  14.4921  14.5170  14.5170  14.5343
    14.5343  14.5537  14.5537  14.5581  14.5750  14.5764  14.6955  14.6955
    14.7001  14.7450  14.7769  14.8299  14.8299  14.8370  14.8398  14.8454
    15.1250  15.1250  15.3702  15.3702  15.3751  15.4114  15.4114  15.5024
    15.5024  15.5070  15.5407  15.5429  15.5429  15.5888  15.5888  15.5968
    15.5968  15.6306  15.6306  15.6411  15.6411  15.6560  15.7208  15.7208
    15.7282  15.7282  15.7662  15.7662  15.8048  15.8048  15.9347  15.9347
    15.9849  16.0369  16.0369  16.1010  16.1170  16.2451  16.2451  16.3178
    16.4342  16.4378  16.4378  16.5023  16.5079  16.5079  16.5323  16.5323
    16.6622  16.6622  16.6992  16.7086  16.7522  16.7522  16.7907  16.7976
    16.7976  16.8012  16.8254  16.8311  16.9459  16.9459  16.9481  16.9481
    16.9853  16.9853  17.0174  17.3354  17.3354  17.3415  17.3415  17.3420
    17.3420  17.6593  17.6593  17.7362  17.8442  18.1869  18.2592  18.2592
    18.6053  18.6053  18.6250

          k = 0.0505 0.0505-0.4545 ( 40168 PWs)   bands (ev):

   -56.5586 -56.5586 -56.5344 -56.5343 -56.5343 -56.5343 -56.5297 -56.5297
   -56.5297 -56.5297 -56.5229 -56.5229 -56.5208 -56.5208 -56.5207 -56.5207
   -56.5190 -56.5190 -56.5145 -56.5145 -56.5103 -56.5103 -56.5103 -56.5103
   -56.5095 -56.5095 -56.5095 -56.5095 -56.5055 -56.5055 -56.5054 -56.5054
   -26.6268 -26.6268 -26.6219 -26.6219 -26.6218 -26.6218 -26.6150 -26.6150
   -26.6110 -26.6110 -26.6110 -26.6110 -26.5929 -26.5929 -26.5650 -26.5650
   -26.5650 -26.5650 -26.5575 -26.5575 -26.5575 -26.5575 -26.5230 -26.5230
   -26.5230 -26.5230 -26.5175 -26.5175 -26.5175 -26.5175 -26.5023 -26.5022
   -26.5022 -26.5022 -26.5014 -26.5013 -26.5013 -26.5013 -26.4632 -26.4632
   -26.4632 -26.4632 -26.4308 -26.4308 -26.4308 -26.4308 -26.4116 -26.4116
   -26.4104 -26.4104 -26.3947 -26.3947 -26.3937 -26.3937 -26.3937 -26.3936
   -26.3926 -26.3926 -26.3926 -26.3926 -26.3919 -26.3919 -26.3919 -26.3919
   -26.3862 -26.3862 -26.3862 -26.3862 -26.3806 -26.3806 -26.3806 -26.3806
   -26.3766 -26.3766 -26.3500 -26.3500 -26.3494 -26.3494 -26.3494 -26.3494
   -26.3489 -26.3489 -26.3467 -26.3467 -26.3467 -26.3467 -26.3415 -26.3415
   -26.3367 -26.3367 -26.3367 -26.3367 -26.3129 -26.3129 -26.3120 -26.3120
    10.5247  10.5247  12.1582  12.1582  12.2289  12.2289  12.2404  12.2404
    12.2404  12.2404  12.3043  12.3043  12.3043  12.3043  12.3299  12.3299
    12.3300  12.3300  12.3597  12.3597  12.4936  12.4936  12.4936  12.4936
    12.5175  12.5175  12.6435  12.6435  12.6435  12.6435  13.1819  13.1819
    13.1819  13.1819  13.2744  13.2744  13.2744  13.2744  13.3380  13.3380
    13.3380  13.3380  13.4736  13.4736  13.4736  13.4736  13.5052  13.5052
    13.5052  13.5052  13.5359  13.5359  13.5359  13.5359  13.7535  13.7535
    13.7535  13.7535  13.9623  13.9623  13.9623  13.9623  14.0086  14.0086
    14.0505  14.0505  14.1220  14.1220  14.1220  14.1220  14.2206  14.2206
    14.3386  14.3386  14.3386  14.3386  14.4263  14.4263  14.4263  14.4263
    14.6059  14.6059  14.6542  14.6542  14.6542  14.6542  14.6868  14.6868
    14.6953  14.6953  14.6969  14.6969  15.1036  15.1036  15.1058  15.1058
    15.1058  15.1058  15.1357  15.1357  15.4013  15.4013  15.4013  15.4013
    15.5192  15.5192  15.5722  15.5722  15.5722  15.5722  15.6037  15.6037
    15.6037  15.6037  15.6599  15.6599  15.6599  15.6600  15.6750  15.6750
    15.6750  15.6750  15.7237  15.7237  15.7237  15.7237  15.8646  15.8646
    15.8646  15.8646  16.0448  16.0448  16.4629  16.4629  16.4629  16.4629
    16.4967  16.4967  16.5188  16.5188  16.6295  16.6295  16.6295  16.6295
    16.6589  16.6589  16.6792  16.6792  16.7326  16.7326  16.7326  16.7326
    16.7427  16.7427  16.7427  16.7427  16.8931  16.8931  17.0252  17.0252
    17.0252  17.0252  17.1737  17.1737  17.3091  17.3091  17.3091  17.3091
    17.3417  17.3417  17.3417  17.3417  18.0387  18.0387  18.4592  18.4592
    18.4592  18.4592  18.8646

          k = 0.0505 0.1515 0.1515 ( 40137 PWs)   bands (ev):

   -56.5657 -56.5441 -56.5440 -56.5383 -56.5330 -56.5301 -56.5282 -56.5281
   -56.5265 -56.5265 -56.5232 -56.5232 -56.5226 -56.5212 -56.5199 -56.5199
   -56.5198 -56.5197 -56.5180 -56.5180 -56.5160 -56.5160 -56.5139 -56.5064
   -56.5064 -56.5063 -56.5063 -56.5060 -56.5060 -56.5057 -56.5057 -56.5055
   -26.6556 -26.6556 -26.6512 -26.6466 -26.6347 -26.6330 -26.6330 -26.5782
   -26.5781 -26.5757 -26.5757 -26.5662 -26.5662 -26.5648 -26.5630 -26.5630
   -26.5621 -26.5621 -26.5618 -26.5617 -26.5537 -26.5537 -26.5521 -26.5521
   -26.5288 -26.5222 -26.5222 -26.5208 -26.5208 -26.5155 -26.5155 -26.5073
   -26.5073 -26.4979 -26.4941 -26.4705 -26.4654 -26.4654 -26.4517 -26.4517
   -26.4475 -26.4475 -26.4415 -26.4356 -26.4355 -26.4334 -26.4334 -26.4278
   -26.4278 -26.4272 -26.4272 -26.4272 -26.4256 -26.4256 -26.4240 -26.4240
   -26.4219 -26.4218 -26.4102 -26.4102 -26.4047 -26.3828 -26.3828 -26.3774
   -26.3774 -26.3681 -26.3667 -26.3648 -26.3589 -26.3588 -26.3587 -26.3587
   -26.3558 -26.3558 -26.3551 -26.3549 -26.3549 -26.3544 -26.3505 -26.3494
   -26.3494 -26.3482 -26.3464 -26.3464 -26.3451 -26.3443 -26.3443 -26.3442
   -26.3400 -26.3400 -26.3357 -26.3357 -26.3289 -26.3094 -26.2968 -26.2939
    10.0222  11.5350  11.5350  11.8931  11.9454  11.9925  11.9947  11.9947
    12.0068  12.0378  12.0378  12.1457  12.2589  12.2589  12.3230  12.3230
    12.3375  12.5789  12.6564  12.6564  12.8160  12.8160  12.8391  12.8391
    12.8530  12.8530  12.9716  12.9716  12.9724  12.9724  13.0166  13.0166
    13.0413  13.0413  13.1512  13.1563  13.1563  13.1715  13.3273  13.3273
    13.3309  13.3309  13.3452  13.5023  13.5023  13.5669  13.5669  13.6239
    13.6239  13.6812  13.7530  13.7616  13.7616  13.8053  13.8053  13.8480
    13.8481  13.8674  13.8674  13.8729  13.8729  13.9458  13.9458  14.0144
    14.0351  14.0351  14.0575  14.0575  14.1530  14.1530  14.2176  14.2176
    14.2269  14.2269  14.2480  14.2480  14.2747  14.3022  14.3022  14.3146
    14.3352  14.3380  14.3768  14.4072  14.4294  14.4294  14.4365  14.4516
    14.7940  14.8285  14.8952  14.8952  15.0688  15.0688  15.1032  15.1032
    15.1788  15.1807  15.1807  15.2108  15.2108  15.2479  15.2479  15.2611
    15.2611  15.3427  15.4090  15.4440  15.4440  15.4803  15.4803  15.5118
    15.5496  15.7590  15.7590  15.7957  15.8244  15.8244  15.8381  15.8507
    15.8507  15.8758  15.8758  15.8967  15.9014  15.9014  15.9987  15.9987
    16.0206  16.0206  16.0350  16.0350  16.0864  16.0878  16.1845  16.1845
    16.2130  16.2130  16.2633  16.2703  16.2703  16.2892  16.3166  16.3166
    16.4487  16.5713  16.6821  16.6821  16.7403  16.8126  16.8126  16.8758
    16.9578  16.9578  16.9870  17.0361  17.0361  17.0476  17.1436  17.2070
    17.2070  17.2672  17.2672  17.2694  17.2694  17.2795  17.2795  17.3050
    17.6709  17.6715  17.9862  17.9862  18.1873  18.1873  18.3718  18.3718
    18.8271  18.8271  19.1604

          k = 0.0505 0.1515 0.2525 ( 40170 PWs)   bands (ev):

   -56.5639 -56.5491 -56.5429 -56.5373 -56.5333 -56.5322 -56.5292 -56.5274
   -56.5262 -56.5254 -56.5235 -56.5231 -56.5230 -56.5218 -56.5216 -56.5193
   -56.5189 -56.5181 -56.5167 -56.5163 -56.5153 -56.5138 -56.5120 -56.5082
   -56.5073 -56.5071 -56.5071 -56.5064 -56.5064 -56.5061 -56.5057 -56.5055
   -26.6503 -26.6490 -26.6419 -26.6357 -26.6285 -26.6274 -26.6237 -26.5953
   -26.5919 -26.5817 -26.5788 -26.5787 -26.5782 -26.5782 -26.5688 -26.5681
   -26.5676 -26.5623 -26.5616 -26.5595 -26.5576 -26.5566 -26.5535 -26.5471
   -26.5395 -26.5266 -26.5235 -26.5173 -26.5138 -26.5123 -26.5085 -26.5068
   -26.5019 -26.4998 -26.4904 -26.4816 -26.4784 -26.4652 -26.4610 -26.4495
   -26.4481 -26.4458 -26.4398 -26.4344 -26.4326 -26.4291 -26.4277 -26.4276
   -26.4255 -26.4252 -26.4236 -26.4186 -26.4156 -26.4137 -26.4131 -26.4109
   -26.4096 -26.4079 -26.3973 -26.3966 -26.3944 -26.3912 -26.3892 -26.3882
   -26.3731 -26.3723 -26.3723 -26.3706 -26.3680 -26.3680 -26.3672 -26.3665
   -26.3619 -26.3594 -26.3581 -26.3559 -26.3559 -26.3553 -26.3518 -26.3513
   -26.3513 -26.3489 -26.3489 -26.3478 -26.3447 -26.3441 -26.3424 -26.3364
   -26.3349 -26.3344 -26.3339 -26.3282 -26.3251 -26.3220 -26.3009 -26.2962
    10.1506  11.1982  11.6309  11.9726  11.9870  12.0496  12.0502  12.0819
    12.0869  12.1250  12.1392  12.2223  12.3061  12.3544  12.3600  12.3749
    12.3996  12.4181  12.4828  12.5159  12.6156  12.6871  12.7077  12.7087
    12.7935  12.8151  12.8341  12.8848  12.9297  13.0227  13.0251  13.0372
    13.0487  13.0753  13.0905  13.1000  13.1025  13.1262  13.2301  13.2774
    13.3479  13.3525  13.3940  13.4736  13.4957  13.5142  13.5298  13.5771
    13.6362  13.6437  13.6692  13.6706  13.6819  13.7089  13.7361  13.7756
    13.7991  13.8562  13.9432  13.9523  13.9959  14.0057  14.0645  14.1019
    14.1083  14.1272  14.1355  14.1406  14.1418  14.1527  14.2086  14.2483
    14.2492  14.2735  14.2887  14.2974  14.3318  14.3345  14.4155  14.4239
    14.4372  14.4680  14.4890  14.5075  14.5079  14.5136  14.6261  14.6671
    14.6686  14.6852  14.7541  14.8366  14.8919  14.8997  15.0060  15.0159
    15.0892  15.0943  15.1142  15.2013  15.2075  15.2520  15.2880  15.3624
    15.3703  15.3913  15.4028  15.4323  15.4797  15.5086  15.5397  15.6093
    15.6337  15.7042  15.7081  15.7328  15.7364  15.7472  15.7704  15.8056
    15.8274  15.8677  15.8849  15.8921  15.9187  15.9221  16.0096  16.0150
    16.0195  16.0421  16.0522  16.1504  16.2098  16.2129  16.2171  16.2206
    16.2623  16.3789  16.3898  16.3952  16.3975  16.4025  16.4049  16.4330
    16.4372  16.4920  16.5329  16.6392  16.6939  16.7680  16.8312  16.8522
    16.8619  16.9027  16.9275  16.9847  16.9933  16.9960  17.0945  17.0950
    17.1307  17.1326  17.1673  17.2670  17.2704  17.2768  17.2835  17.3003
    17.3482  17.6352  17.7767  17.9179  17.9953  18.3117  18.4275  18.4885
    18.6462  18.6874  19.1692

          k = 0.0505 0.1515 0.3535 ( 40155 PWs)   bands (ev):

   -56.5612 -56.5537 -56.5411 -56.5363 -56.5358 -56.5317 -56.5309 -56.5275
   -56.5264 -56.5257 -56.5243 -56.5236 -56.5227 -56.5220 -56.5189 -56.5185
   -56.5183 -56.5181 -56.5168 -56.5137 -56.5128 -56.5117 -56.5109 -56.5103
   -56.5088 -56.5087 -56.5083 -56.5074 -56.5063 -56.5062 -56.5056 -56.5055
   -26.6411 -26.6387 -26.6291 -26.6215 -26.6196 -26.6192 -26.6127 -26.6100
   -26.6091 -26.5963 -26.5960 -26.5944 -26.5865 -26.5778 -26.5759 -26.5713
   -26.5710 -26.5709 -26.5695 -26.5659 -26.5567 -26.5526 -26.5499 -26.5424
   -26.5341 -26.5304 -26.5255 -26.5211 -26.5181 -26.5101 -26.5017 -26.4974
   -26.4954 -26.4943 -26.4904 -26.4848 -26.4781 -26.4747 -26.4736 -26.4635
   -26.4594 -26.4490 -26.4277 -26.4277 -26.4247 -26.4247 -26.4246 -26.4228
   -26.4188 -26.4174 -26.4154 -26.4072 -26.4051 -26.4040 -26.4031 -26.4022
   -26.3999 -26.3989 -26.3962 -26.3936 -26.3860 -26.3854 -26.3820 -26.3819
   -26.3816 -26.3810 -26.3806 -26.3792 -26.3788 -26.3787 -26.3784 -26.3680
   -26.3662 -26.3656 -26.3587 -26.3585 -26.3570 -26.3569 -26.3559 -26.3546
   -26.3538 -26.3526 -26.3468 -26.3464 -26.3452 -26.3429 -26.3405 -26.3386
   -26.3375 -26.3347 -26.3291 -26.3243 -26.3240 -26.3176 -26.3071 -26.3011
    10.3393  10.8739  11.7692  12.0641  12.0845  12.1237  12.1435  12.1441
    12.2026  12.2069  12.2467  12.2733  12.2760  12.3169  12.3284  12.3674
    12.4299  12.4517  12.4913  12.5140  12.5145  12.5350  12.5374  12.5847
    12.5848  12.6269  12.6739  12.8454  12.8532  12.8785  12.9413  13.0394
    13.0498  13.1032  13.1206  13.1576  13.1599  13.2332  13.2832  13.3183
    13.3301  13.3830  13.3904  13.4306  13.4375  13.4658  13.4708  13.4794
    13.5052  13.5620  13.5666  13.5789  13.6441  13.6656  13.7374  13.8531
    13.8665  13.9214  13.9485  13.9822  14.0045  14.0440  14.0444  14.0769
    14.1168  14.1187  14.1193  14.1435  14.1740  14.2052  14.2116  14.2410
    14.2651  14.3169  14.3348  14.4744  14.4957  14.4982  14.5359  14.5381
    14.5551  14.5707  14.5724  14.5772  14.5897  14.6140  14.6256  14.6347
    14.6462  14.7403  14.7537  14.8076  14.8437  14.8542  14.9262  14.9362
    15.0358  15.0935  15.1668  15.2085  15.2228  15.2485  15.3217  15.3467
    15.3647  15.3873  15.4169  15.4191  15.4288  15.4388  15.4958  15.5362
    15.5559  15.6191  15.6644  15.6829  15.7119  15.7331  15.7420  15.7621
    15.7839  15.8398  15.8620  15.8888  15.9281  15.9431  15.9564  15.9719
    16.0367  16.0627  16.1195  16.1692  16.2021  16.2175  16.2631  16.2659
    16.3942  16.3970  16.4408  16.4976  16.5521  16.5748  16.5869  16.5931
    16.6069  16.6116  16.6148  16.6721  16.6835  16.7243  16.7370  16.7918
    16.8409  16.9000  16.9020  16.9468  16.9471  16.9474  16.9550  16.9552
    17.0319  17.0484  17.1473  17.2675  17.2680  17.2714  17.2738  17.2744
    17.3030  17.4995  17.6309  17.8140  17.9386  18.0326  18.1376  18.2190
    18.7517  19.0341  19.0862

          k = 0.0505 0.1515-0.4545 ( 40174 PWs)   bands (ev):

   -56.5578 -56.5578 -56.5389 -56.5389 -56.5340 -56.5340 -56.5294 -56.5294
   -56.5251 -56.5251 -56.5251 -56.5251 -56.5224 -56.5224 -56.5186 -56.5186
   -56.5174 -56.5174 -56.5144 -56.5144 -56.5111 -56.5111 -56.5106 -56.5106
   -56.5099 -56.5099 -56.5087 -56.5087 -56.5062 -56.5062 -56.5056 -56.5056
   -26.6283 -26.6283 -26.6251 -26.6251 -26.6136 -26.6136 -26.6086 -26.6086
   -26.6081 -26.6081 -26.6048 -26.6048 -26.5924 -26.5924 -26.5748 -26.5748
   -26.5720 -26.5720 -26.5717 -26.5717 -26.5521 -26.5521 -26.5422 -26.5422
   -26.5304 -26.5304 -26.5300 -26.5300 -26.5105 -26.5105 -26.5011 -26.5011
   -26.4903 -26.4903 -26.4847 -26.4847 -26.4803 -26.4803 -26.4713 -26.4713
   -26.4607 -26.4607 -26.4278 -26.4278 -26.4244 -26.4244 -26.4147 -26.4147
   -26.4095 -26.4095 -26.4065 -26.4065 -26.4043 -26.4043 -26.3971 -26.3971
   -26.3942 -26.3942 -26.3924 -26.3924 -26.3909 -26.3909 -26.3904 -26.3904
   -26.3882 -26.3882 -26.3785 -26.3785 -26.3750 -26.3750 -26.3682 -26.3682
   -26.3678 -26.3678 -26.3629 -26.3629 -26.3587 -26.3587 -26.3555 -26.3555
   -26.3537 -26.3537 -26.3505 -26.3505 -26.3459 -26.3459 -26.3388 -26.3388
   -26.3379 -26.3379 -26.3254 -26.3254 -26.3150 -26.3150 -26.3084 -26.3084
    10.5832  10.5832  11.9434  11.9434  12.1751  12.1751  12.2055  12.2055
    12.2198  12.2198  12.2709  12.2709  12.3480  12.3480  12.3619  12.3619
    12.4008  12.4008  12.4373  12.4373  12.4537  12.4537  12.5520  12.5520
    12.6601  12.6601  12.6656  12.6656  12.6925  12.6925  12.9977  12.9977
    13.1708  13.1708  13.1779  13.1779  13.2054  13.2054  13.2917  13.2917
    13.3527  13.3527  13.4183  13.4183  13.4215  13.4215  13.4358  13.4358
    13.4629  13.4629  13.5583  13.5583  13.6070  13.6070  13.8601  13.8601
    13.9513  13.9513  13.9623  13.9623  13.9973  13.9973  14.0093  14.0093
    14.0859  14.0859  14.1658  14.1658  14.2279  14.2279  14.2856  14.2856
    14.3297  14.3297  14.3368  14.3368  14.4222  14.4222  14.5424  14.5424
    14.5999  14.5999  14.6582  14.6582  14.6928  14.6928  14.6975  14.6975
    14.7362  14.7362  14.7608  14.7608  14.9676  14.9676  14.9867  14.9867
    15.0306  15.0306  15.0669  15.0669  15.2108  15.2108  15.2158  15.2158
    15.3795  15.3795  15.4722  15.4722  15.5057  15.5057  15.5208  15.5208
    15.5388  15.5388  15.6036  15.6036  15.6422  15.6422  15.7145  15.7145
    15.8183  15.8183  15.8484  15.8484  15.8993  15.8993  16.0385  16.0385
    16.0917  16.0917  16.0928  16.0928  16.1368  16.1368  16.4256  16.4256
    16.4776  16.4776  16.4827  16.4827  16.6163  16.6163  16.6533  16.6533
    16.7302  16.7302  16.7594  16.7594  16.7631  16.7631  16.7713  16.7713
    16.7765  16.7765  16.7778  16.7778  16.7812  16.7812  16.8956  16.8956
    16.9939  16.9939  17.2694  17.2694  17.2727  17.2727  17.2804  17.2804
    17.6001  17.6001  17.6435  17.6435  17.6739  17.6739  18.0931  18.0931
    18.9512  18.9512  19.3183

          k = 0.0505 0.2525 0.2525 ( 40133 PWs)   bands (ev):

   -56.5621 -56.5477 -56.5477 -56.5369 -56.5363 -56.5314 -56.5288 -56.5287
   -56.5251 -56.5251 -56.5248 -56.5226 -56.5225 -56.5225 -56.5182 -56.5181
   -56.5180 -56.5180 -56.5156 -56.5156 -56.5143 -56.5142 -56.5105 -56.5082
   -56.5081 -56.5081 -56.5080 -56.5074 -56.5074 -56.5062 -56.5062 -56.5056
   -26.6453 -26.6453 -26.6316 -26.6238 -26.6225 -26.6191 -26.6191 -26.5953
   -26.5953 -26.5937 -26.5937 -26.5815 -26.5815 -26.5737 -26.5737 -26.5712
   -26.5712 -26.5683 -26.5683 -26.5662 -26.5661 -26.5566 -26.5550 -26.5550
   -26.5505 -26.5505 -26.5223 -26.5168 -26.5098 -26.5098 -26.5026 -26.5026
   -26.4958 -26.4935 -26.4852 -26.4852 -26.4591 -26.4580 -26.4579 -26.4476
   -26.4476 -26.4457 -26.4456 -26.4354 -26.4353 -26.4231 -26.4231 -26.4220
   -26.4220 -26.4213 -26.4198 -26.4198 -26.4153 -26.4152 -26.4069 -26.4068
   -26.4000 -26.4000 -26.3985 -26.3985 -26.3857 -26.3857 -26.3854 -26.3853
   -26.3803 -26.3803 -26.3781 -26.3777 -26.3692 -26.3692 -26.3676 -26.3668
   -26.3667 -26.3655 -26.3655 -26.3645 -26.3556 -26.3556 -26.3544 -26.3536
   -26.3522 -26.3510 -26.3459 -26.3450 -26.3450 -26.3443 -26.3397 -26.3397
   -26.3360 -26.3351 -26.3351 -26.3229 -26.3229 -26.3194 -26.3052 -26.2962
    10.2760  11.3001  11.3001  12.0069  12.0263  12.0874  12.1046  12.1380
    12.1380  12.1555  12.2347  12.2347  12.2664  12.3830  12.3830  12.4026
    12.4026  12.4498  12.4498  12.5040  12.5435  12.5435  12.7180  12.7180
    12.7784  12.7784  12.8742  12.8742  12.9058  12.9058  12.9172  12.9172
    12.9886  13.1071  13.1071  13.1085  13.1085  13.1086  13.1086  13.1532
    13.1532  13.3151  13.3927  13.3928  13.4013  13.4013  13.4670  13.5986
    13.6668  13.6668  13.6951  13.6951  13.6993  13.6993  13.7112  13.9045
    13.9045  14.0093  14.0093  14.0395  14.0395  14.0494  14.0494  14.0525
    14.0525  14.1379  14.1379  14.2062  14.2379  14.2573  14.2842  14.2842
    14.2911  14.2911  14.3373  14.3931  14.3931  14.4758  14.4918  14.4918
    14.5214  14.5218  14.5280  14.5523  14.5731  14.5920  14.6055  14.6055
    14.6490  14.6490  14.7889  14.7889  14.9381  14.9382  15.0162  15.0162
    15.0593  15.0593  15.0615  15.0615  15.1474  15.1804  15.2130  15.2130
    15.2340  15.2340  15.3474  15.3490  15.4339  15.4475  15.4475  15.4590
    15.4590  15.5411  15.6001  15.6874  15.6874  15.7408  15.7782  15.7782
    15.9232  15.9756  15.9756  16.0445  16.0445  16.0706  16.0706  16.1190
    16.1285  16.1295  16.1295  16.1963  16.1963  16.2561  16.2561  16.2582
    16.2582  16.2622  16.2622  16.4674  16.4700  16.4700  16.5074  16.5428
    16.5639  16.5639  16.5790  16.5791  16.6652  16.6845  16.8059  16.8059
    16.9232  17.0025  17.0025  17.0190  17.0299  17.0299  17.0560  17.1152
    17.1339  17.1339  17.1352  17.1352  17.1581  17.1581  17.2116  17.2116
    17.2212  17.5689  17.5689  17.6500  17.9379  17.9379  18.8914  18.8914
    18.9965  18.9965  19.1919

          k = 0.0505 0.2525 0.3535 ( 40143 PWs)   bands (ev):

   -56.5595 -56.5522 -56.5458 -56.5403 -56.5349 -56.5311 -56.5303 -56.5280
   -56.5271 -56.5260 -56.5246 -56.5233 -56.5218 -56.5195 -56.5181 -56.5173
   -56.5168 -56.5160 -56.5149 -56.5148 -56.5132 -56.5123 -56.5107 -56.5094
   -56.5093 -56.5092 -56.5092 -56.5080 -56.5076 -56.5070 -56.5060 -56.5057
   -26.6376 -26.6366 -26.6183 -26.6137 -26.6124 -26.6119 -26.6099 -26.6089
   -26.6069 -26.5933 -26.5925 -26.5924 -26.5888 -26.5854 -26.5810 -26.5805
   -26.5800 -26.5732 -26.5732 -26.5723 -26.5663 -26.5632 -26.5561 -26.5548
   -26.5535 -26.5403 -26.5311 -26.5293 -26.5203 -26.5084 -26.4960 -26.4922
   -26.4884 -26.4779 -26.4770 -26.4704 -26.4698 -26.4697 -26.4610 -26.4578
   -26.4444 -26.4392 -26.4362 -26.4314 -26.4289 -26.4284 -26.4225 -26.4209
   -26.4183 -26.4164 -26.4155 -26.4109 -26.4092 -26.4082 -26.4045 -26.3981
   -26.3977 -26.3974 -26.3971 -26.3963 -26.3936 -26.3883 -26.3852 -26.3847
   -26.3830 -26.3814 -26.3767 -26.3765 -26.3751 -26.3725 -26.3725 -26.3721
   -26.3661 -26.3648 -26.3639 -26.3610 -26.3593 -26.3590 -26.3588 -26.3587
   -26.3536 -26.3514 -26.3499 -26.3478 -26.3466 -26.3463 -26.3460 -26.3418
   -26.3368 -26.3364 -26.3289 -26.3184 -26.3163 -26.3129 -26.3114 -26.2992
    10.4604  10.9828  11.4485  11.8597  12.0594  12.1003  12.1574  12.2140
    12.2528  12.2565  12.2650  12.2841  12.3262  12.3614  12.3710  12.3732
    12.3892  12.4695  12.5240  12.5415  12.5448  12.5616  12.6000  12.6282
    12.7003  12.7217  12.7385  12.7626  12.8766  12.8920  12.8960  12.9104
    12.9624  12.9631  13.0083  13.0227  13.0827  13.1544  13.1561  13.1916
    13.2234  13.2451  13.3002  13.3111  13.3323  13.4418  13.4850  13.5259
    13.5297  13.5757  13.7186  13.7313  13.7378  13.7688  13.8007  13.8595
    13.8790  13.9397  13.9540  13.9868  14.1131  14.1221  14.1498  14.1520
    14.1555  14.2162  14.2260  14.2304  14.2956  14.3233  14.3278  14.3336
    14.3406  14.3464  14.3786  14.3945  14.4538  14.5011  14.5468  14.5721
    14.5868  14.5905  14.5946  14.6115  14.6166  14.6577  14.7040  14.7239
    14.7293  14.7334  14.7627  14.7882  14.8476  14.8802  14.8945  14.9887
    15.0251  15.0278  15.0436  15.0602  15.0827  15.0947  15.1027  15.1221
    15.1504  15.1821  15.1982  15.2560  15.3487  15.3492  15.3645  15.3759
    15.4666  15.4689  15.5971  15.6118  15.6606  15.7145  15.7409  15.7915
    15.9121  15.9202  15.9213  15.9468  15.9686  16.0651  16.0960  16.0964
    16.1452  16.1614  16.2019  16.2762  16.2771  16.2886  16.3330  16.3667
    16.3767  16.3979  16.4994  16.5036  16.5040  16.5247  16.6401  16.6633
    16.6746  16.6776  16.7132  16.7165  16.7244  16.7254  16.7286  16.7604
    16.7908  16.8969  16.9276  16.9431  16.9438  16.9510  16.9535  16.9569
    16.9690  17.0073  17.1386  17.1410  17.1495  17.1793  17.2010  17.2394
    17.4707  17.5764  17.5996  17.6218  17.6624  17.8547  18.4693  18.6354
    19.2987  19.4246  19.4607

          k = 0.0505 0.2525-0.4545 ( 40188 PWs)   bands (ev):

   -56.5562 -56.5562 -56.5433 -56.5433 -56.5332 -56.5332 -56.5288 -56.5288
   -56.5271 -56.5271 -56.5240 -56.5240 -56.5207 -56.5207 -56.5166 -56.5166
   -56.5158 -56.5158 -56.5141 -56.5141 -56.5118 -56.5118 -56.5111 -56.5111
   -56.5106 -56.5106 -56.5080 -56.5080 -56.5078 -56.5078 -56.5058 -56.5058
   -26.6264 -26.6264 -26.6245 -26.6245 -26.6037 -26.6037 -26.6025 -26.6025
   -26.6023 -26.6023 -26.5916 -26.5916 -26.5912 -26.5912 -26.5881 -26.5881
   -26.5873 -26.5873 -26.5779 -26.5779 -26.5593 -26.5593 -26.5581 -26.5581
   -26.5429 -26.5429 -26.5291 -26.5291 -26.5244 -26.5244 -26.4828 -26.4827
   -26.4812 -26.4812 -26.4745 -26.4745 -26.4687 -26.4687 -26.4579 -26.4579
   -26.4560 -26.4560 -26.4218 -26.4218 -26.4207 -26.4207 -26.4188 -26.4188
   -26.4164 -26.4164 -26.4152 -26.4152 -26.4099 -26.4099 -26.4077 -26.4077
   -26.3966 -26.3966 -26.3943 -26.3943 -26.3877 -26.3877 -26.3873 -26.3873
   -26.3795 -26.3795 -26.3767 -26.3767 -26.3741 -26.3741 -26.3717 -26.3717
   -26.3662 -26.3662 -26.3624 -26.3624 -26.3618 -26.3618 -26.3607 -26.3607
   -26.3555 -26.3555 -26.3526 -26.3526 -26.3479 -26.3479 -26.3403 -26.3403
   -26.3391 -26.3391 -26.3194 -26.3194 -26.3161 -26.3161 -26.3048 -26.3048
    10.6987  10.6987  11.6376  11.6376  12.1425  12.1425  12.1883  12.1883
    12.2588  12.2588  12.2981  12.2981  12.3878  12.3878  12.3957  12.3957
    12.4229  12.4229  12.5175  12.5175  12.5372  12.5372  12.6208  12.6208
    12.7095  12.7095  12.7150  12.7150  12.7844  12.7844  12.8213  12.8213
    12.9883  12.9883  13.0791  13.0791  13.1016  13.1016  13.1382  13.1382
    13.2179  13.2179  13.3600  13.3600  13.3791  13.3791  13.3969  13.3969
    13.6064  13.6064  13.7163  13.7163  13.7320  13.7320  13.8325  13.8325
    13.8576  13.8576  14.0032  14.0032  14.1448  14.1448  14.1730  14.1730
    14.1871  14.1871  14.2479  14.2479  14.3218  14.3218  14.3331  14.3331
    14.4132  14.4132  14.4281  14.4281  14.5063  14.5063  14.6233  14.6233
    14.6396  14.6396  14.6489  14.6489  14.6925  14.6925  14.7057  14.7057
    14.7779  14.7779  14.7966  14.7966  14.8129  14.8129  14.8672  14.8672
    14.9396  14.9396  14.9478  14.9478  15.0423  15.0423  15.0499  15.0499
    15.1848  15.1848  15.2988  15.2988  15.4145  15.4145  15.4276  15.4276
    15.4810  15.4810  15.5057  15.5057  15.5564  15.5564  15.6572  15.6572
    15.8235  15.8235  16.0176  16.0176  16.0319  16.0319  16.0459  16.0459
    16.1643  16.1643  16.3237  16.3237  16.3522  16.3522  16.4244  16.4244
    16.4820  16.4820  16.5300  16.5300  16.5592  16.5592  16.5751  16.5751
    16.7342  16.7342  16.7364  16.7364  16.7980  16.7980  16.8386  16.8386
    16.8391  16.8391  16.8483  16.8483  16.8584  16.8584  16.8605  16.8605
    16.9328  16.9328  17.1432  17.1432  17.1547  17.1547  17.2262  17.2262
    17.3444  17.3444  17.7539  17.7539  18.0447  18.0447  18.0862  18.0862
    19.5144  19.5144  19.8142

          k = 0.0505 0.3535 0.3535 ( 40150 PWs)   bands (ev):

   -56.5571 -56.5501 -56.5501 -56.5440 -56.5337 -56.5302 -56.5302 -56.5292
   -56.5276 -56.5264 -56.5264 -56.5245 -56.5175 -56.5175 -56.5158 -56.5158
   -56.5157 -56.5157 -56.5139 -56.5139 -56.5132 -56.5132 -56.5105 -56.5104
   -56.5104 -56.5104 -56.5098 -56.5097 -56.5082 -56.5066 -56.5066 -56.5059
   -26.6306 -26.6306 -26.6080 -26.6080 -26.6072 -26.6072 -26.6050 -26.6047
   -26.6023 -26.6023 -26.5934 -26.5920 -26.5920 -26.5890 -26.5890 -26.5808
   -26.5808 -26.5742 -26.5742 -26.5733 -26.5733 -26.5723 -26.5723 -26.5600
   -26.5579 -26.5579 -26.5432 -26.5288 -26.5243 -26.5080 -26.5080 -26.4825
   -26.4745 -26.4745 -26.4627 -26.4627 -26.4561 -26.4483 -26.4483 -26.4433
   -26.4432 -26.4425 -26.4425 -26.4378 -26.4377 -26.4194 -26.4194 -26.4153
   -26.4153 -26.4150 -26.4150 -26.4130 -26.4113 -26.4113 -26.4093 -26.4093
   -26.4061 -26.4061 -26.3940 -26.3940 -26.3912 -26.3912 -26.3906 -26.3863
   -26.3863 -26.3767 -26.3767 -26.3738 -26.3737 -26.3736 -26.3736 -26.3720
   -26.3657 -26.3649 -26.3649 -26.3640 -26.3640 -26.3615 -26.3585 -26.3545
   -26.3544 -26.3516 -26.3499 -26.3499 -26.3497 -26.3475 -26.3455 -26.3390
   -26.3390 -26.3356 -26.3356 -26.3178 -26.3113 -26.3097 -26.3097 -26.2999
    10.6384  11.1421  11.1421  11.5894  12.0820  12.1244  12.1992  12.2000
    12.2000  12.3289  12.3399  12.3439  12.3439  12.3593  12.3593  12.5000
    12.5000  12.5081  12.5081  12.5956  12.5956  12.6319  12.6319  12.6892
    12.6892  12.7557  12.7696  12.8273  12.8273  12.8322  12.8322  12.8348
    12.8348  12.8762  12.8762  12.9498  12.9498  13.0792  13.0792  13.0922
    13.0922  13.1193  13.1193  13.3540  13.3540  13.3590  13.6004  13.6005
    13.6131  13.6131  13.6142  13.7341  13.7984  13.8266  13.8266  13.8586
    13.8586  14.0424  14.0424  14.0685  14.1533  14.1533  14.2068  14.2700
    14.2700  14.2786  14.2786  14.2850  14.2850  14.3398  14.3474  14.3474
    14.3954  14.4530  14.4815  14.4815  14.5466  14.5466  14.6014  14.6194
    14.6454  14.6526  14.6544  14.6857  14.6857  14.6954  14.7222  14.7222
    14.7736  14.8202  14.8386  14.8386  14.8579  14.8579  14.8658  14.8658
    14.9243  14.9243  14.9505  14.9505  14.9703  14.9703  14.9803  14.9803
    14.9869  14.9894  15.1228  15.1818  15.1818  15.1990  15.1990  15.3773
    15.4736  15.4736  15.4798  15.4798  15.5037  15.5038  15.5489  15.6166
    15.8402  16.0091  16.0768  16.0768  16.0832  16.0832  16.2246  16.2246
    16.2615  16.2615  16.3164  16.3164  16.3603  16.3603  16.3992  16.4365
    16.5142  16.5143  16.5619  16.6011  16.6011  16.6060  16.6060  16.6100
    16.6100  16.6469  16.7323  16.7952  16.8255  16.8255  16.8279  16.8279
    16.8426  16.8431  16.9284  16.9285  16.9576  16.9576  16.9587  16.9587
    16.9620  16.9663  16.9836  16.9836  16.9937  16.9937  17.0951  17.1474
    17.1474  17.4679  17.5032  17.5032  18.0613  18.0613  18.9783  18.9783
    19.1551  19.1551  19.8481

          k = 0.0505 0.3535-0.4545 ( 40138 PWs)   bands (ev):

   -56.5539 -56.5539 -56.5473 -56.5473 -56.5321 -56.5321 -56.5290 -56.5290
   -56.5280 -56.5280 -56.5255 -56.5255 -56.5167 -56.5167 -56.5147 -56.5147
   -56.5143 -56.5143 -56.5137 -56.5137 -56.5125 -56.5125 -56.5120 -56.5120
   -56.5117 -56.5117 -56.5101 -56.5101 -56.5073 -56.5073 -56.5062 -56.5062
   -26.6210 -26.6210 -26.6202 -26.6202 -26.6012 -26.6012 -26.6012 -26.6012
   -26.5963 -26.5963 -26.5939 -26.5939 -26.5893 -26.5893 -26.5890 -26.5890
   -26.5827 -26.5827 -26.5761 -26.5761 -26.5741 -26.5741 -26.5708 -26.5708
   -26.5580 -26.5580 -26.5413 -26.5412 -26.5195 -26.5195 -26.4952 -26.4952
   -26.4611 -26.4611 -26.4579 -26.4579 -26.4538 -26.4538 -26.4492 -26.4492
   -26.4353 -26.4353 -26.4303 -26.4303 -26.4293 -26.4293 -26.4278 -26.4278
   -26.4249 -26.4249 -26.4133 -26.4133 -26.4088 -26.4088 -26.4053 -26.4053
   -26.3995 -26.3995 -26.3976 -26.3976 -26.3927 -26.3927 -26.3901 -26.3901
   -26.3830 -26.3830 -26.3828 -26.3828 -26.3698 -26.3698 -26.3698 -26.3698
   -26.3697 -26.3697 -26.3658 -26.3658 -26.3568 -26.3568 -26.3557 -26.3557
   -26.3541 -26.3541 -26.3526 -26.3526 -26.3442 -26.3442 -26.3437 -26.3437
   -26.3423 -26.3423 -26.3259 -26.3259 -26.3092 -26.3092 -26.3035 -26.3035
    10.8682  10.8682  11.3468  11.3468  12.1302  12.1302  12.1575  12.1575
    12.2673  12.2673  12.3394  12.3394  12.4316  12.4316  12.4533  12.4533
    12.5060  12.5060  12.6521  12.6521  12.6588  12.6588  12.6699  12.6699
    12.6800  12.6800  12.7236  12.7236  12.7745  12.7745  12.7893  12.7893
    12.9103  12.9103  12.9573  12.9573  12.9619  12.9619  12.9623  12.9623
    13.0260  13.0260  13.2162  13.2162  13.4677  13.4677  13.4688  13.4688
    13.7052  13.7052  13.7147  13.7147  13.8225  13.8225  13.8406  13.8406
    13.9316  13.9316  13.9784  13.9784  14.1744  14.1744  14.3304  14.3304
    14.3389  14.3389  14.3798  14.3798  14.3993  14.3993  14.4157  14.4157
    14.4705  14.4705  14.4777  14.4777  14.4810  14.4810  14.6142  14.6142
    14.6894  14.6894  14.6959  14.6959  14.7175  14.7175  14.7285  14.7285
    14.7370  14.7370  14.7646  14.7646  14.7811  14.7811  14.8088  14.8088
    14.9040  14.9040  14.9098  14.9098  15.0153  15.0153  15.0242  15.0242
    15.0271  15.0271  15.0811  15.0811  15.2387  15.2387  15.2509  15.2509
    15.3315  15.3315  15.3428  15.3428  15.4322  15.4322  15.5403  15.5403
    15.9668  15.9668  16.0990  16.0990  16.1990  16.1990  16.2225  16.2225
    16.2461  16.2461  16.3682  16.3682  16.4440  16.4440  16.4502  16.4502
    16.4950  16.4950  16.5477  16.5477  16.6269  16.6269  16.7090  16.7090
    16.7446  16.7446  16.7985  16.7985  16.8400  16.8400  16.8459  16.8459
    16.8522  16.8522  16.8916  16.8916  16.8936  16.8936  16.9112  16.9112
    16.9143  16.9143  16.9677  16.9677  17.0339  17.0339  17.0343  17.0343
    17.1612  17.1612  17.4376  17.4376  18.5228  18.5228  18.5812  18.5812
    19.5571  19.5571  19.6764

          k = 0.0505-0.4545-0.4545 ( 40152 PWs)   bands (ev):

   -56.5509 -56.5509 -56.5509 -56.5509 -56.5307 -56.5307 -56.5307 -56.5307
   -56.5268 -56.5268 -56.5268 -56.5268 -56.5132 -56.5131 -56.5131 -56.5131
   -56.5131 -56.5131 -56.5131 -56.5131 -56.5131 -56.5131 -56.5131 -56.5131
   -56.5131 -56.5131 -56.5130 -56.5130 -56.5067 -56.5067 -56.5067 -56.5067
   -26.6124 -26.6124 -26.6124 -26.6124 -26.6124 -26.6124 -26.6124 -26.6124
   -26.5865 -26.5865 -26.5865 -26.5865 -26.5865 -26.5865 -26.5864 -26.5864
   -26.5833 -26.5833 -26.5833 -26.5833 -26.5738 -26.5738 -26.5738 -26.5738
   -26.5589 -26.5589 -26.5589 -26.5589 -26.5077 -26.5077 -26.5077 -26.5077
   -26.4421 -26.4421 -26.4421 -26.4421 -26.4421 -26.4421 -26.4421 -26.4421
   -26.4405 -26.4405 -26.4405 -26.4405 -26.4405 -26.4405 -26.4405 -26.4405
   -26.4134 -26.4134 -26.4133 -26.4133 -26.4025 -26.4025 -26.4025 -26.4025
   -26.4025 -26.4025 -26.4025 -26.4025 -26.4025 -26.4025 -26.4025 -26.4025
   -26.3769 -26.3769 -26.3769 -26.3769 -26.3769 -26.3769 -26.3769 -26.3769
   -26.3625 -26.3625 -26.3625 -26.3625 -26.3580 -26.3580 -26.3580 -26.3580
   -26.3495 -26.3495 -26.3495 -26.3495 -26.3473 -26.3473 -26.3473 -26.3473
   -26.3343 -26.3343 -26.3343 -26.3343 -26.3049 -26.3049 -26.3049 -26.3049
    11.0867  11.0867  11.0867  11.0867  12.1363  12.1363  12.1363  12.1363
    12.2950  12.2950  12.2950  12.2950  12.5470  12.5470  12.5470  12.5470
    12.5988  12.5988  12.5988  12.5988  12.5988  12.5988  12.5988  12.5988
    12.8010  12.8010  12.8010  12.8010  12.8010  12.8010  12.8010  12.8010
    12.8594  12.8594  12.8594  12.8594  12.8594  12.8594  12.8594  12.8594
    13.0592  13.0592  13.0592  13.0592  13.5805  13.5805  13.5805  13.5805
    13.5805  13.5805  13.5805  13.5805  13.9246  13.9246  13.9247  13.9247
    14.0463  14.0463  14.0463  14.0463  14.1840  14.1840  14.1840  14.1840
    14.3483  14.3483  14.3483  14.3483  14.3842  14.3842  14.3842  14.3842
    14.5786  14.5787  14.5787  14.5787  14.5787  14.5787  14.5787  14.5787
    14.6998  14.6998  14.6998  14.6998  14.7958  14.7958  14.7958  14.7958
    14.8039  14.8039  14.8039  14.8039  14.8441  14.8441  14.8441  14.8441
    14.8441  14.8441  14.8441  14.8441  14.8985  14.8985  14.8985  14.8985
    15.0352  15.0352  15.0352  15.0352  15.1743  15.1743  15.1743  15.1743
    15.1743  15.1743  15.1744  15.1744  15.4868  15.4868  15.4869  15.4869
    16.1141  16.1141  16.1141  16.1141  16.2105  16.2105  16.2105  16.2105
    16.3656  16.3656  16.3656  16.3656  16.3656  16.3656  16.3656  16.3656
    16.7254  16.7254  16.7254  16.7254  16.7490  16.7490  16.7490  16.7490
    16.7642  16.7642  16.7642  16.7642  16.7642  16.7642  16.7642  16.7642
    16.8909  16.8909  16.8909  16.8909  16.9215  16.9215  16.9215  16.9215
    16.9215  16.9215  16.9216  16.9216  16.9304  16.9304  16.9304  16.9304
    17.1858  17.1858  17.1858  17.1858  19.0738  19.0738  19.0738  19.0738
    19.0738  19.0738  19.0738

          k = 0.1515 0.1515 0.1515 ( 40099 PWs)   bands (ev):

   -56.5648 -56.5435 -56.5435 -56.5434 -56.5298 -56.5298 -56.5298 -56.5278
   -56.5278 -56.5278 -56.5240 -56.5199 -56.5199 -56.5199 -56.5199 -56.5199
   -56.5198 -56.5198 -56.5198 -56.5197 -56.5141 -56.5141 -56.5141 -56.5064
   -56.5064 -56.5064 -56.5063 -56.5063 -56.5063 -56.5063 -56.5063 -56.5063
   -26.6517 -26.6517 -26.6517 -26.6380 -26.6302 -26.6302 -26.6302 -26.5785
   -26.5785 -26.5785 -26.5713 -26.5713 -26.5713 -26.5712 -26.5712 -26.5712
   -26.5660 -26.5660 -26.5660 -26.5660 -26.5660 -26.5660 -26.5387 -26.5387
   -26.5387 -26.5244 -26.5244 -26.5244 -26.5098 -26.5098 -26.5098 -26.5098
   -26.5098 -26.5098 -26.4785 -26.4785 -26.4785 -26.4431 -26.4431 -26.4431
   -26.4390 -26.4390 -26.4390 -26.4380 -26.4380 -26.4380 -26.4380 -26.4379
   -26.4379 -26.4252 -26.4252 -26.4252 -26.4218 -26.4218 -26.4218 -26.4218
   -26.4218 -26.4218 -26.3968 -26.3968 -26.3968 -26.3817 -26.3817 -26.3817
   -26.3782 -26.3782 -26.3782 -26.3642 -26.3642 -26.3642 -26.3608 -26.3608
   -26.3608 -26.3548 -26.3548 -26.3548 -26.3548 -26.3548 -26.3548 -26.3513
   -26.3512 -26.3512 -26.3436 -26.3436 -26.3436 -26.3420 -26.3420 -26.3411
   -26.3411 -26.3411 -26.3295 -26.3294 -26.3294 -26.3177 -26.2959 -26.2959
    10.0863  11.5793  11.5793  11.5793  11.9325  12.0357  12.0357  12.0357
    12.0729  12.0729  12.0729  12.2990  12.2990  12.2990  12.3634  12.3634
    12.3634  12.4821  12.4821  12.4821  12.8759  12.8759  12.8759  12.8759
    12.8759  12.8759  12.9555  12.9555  12.9555  12.9555  12.9555  12.9555
    13.0054  13.0054  13.0054  13.0415  13.0415  13.0415  13.3322  13.3322
    13.3322  13.3322  13.3322  13.3322  13.5219  13.5219  13.5219  13.7107
    13.7107  13.7107  13.8459  13.8459  13.8459  13.8613  13.8613  13.8613
    13.8613  13.8613  13.8613  13.8772  13.8772  13.8772  13.8772  13.8772
    13.8772  14.1909  14.1909  14.1909  14.2157  14.2157  14.2157  14.2546
    14.2546  14.2546  14.2546  14.2546  14.2546  14.2961  14.3496  14.3496
    14.3496  14.3784  14.3784  14.4628  14.4628  14.4690  14.4690  14.4690
    14.8255  14.8255  14.8255  14.9759  14.9759  14.9759  15.0159  15.0159
    15.0159  15.1509  15.1509  15.1509  15.3036  15.3036  15.3036  15.3289
    15.3289  15.3289  15.3289  15.3289  15.3289  15.5735  15.5735  15.5735
    15.7014  15.7014  15.7014  15.7668  15.7668  15.7668  15.8338  15.8338
    15.8338  15.8551  15.8551  15.8551  15.8551  15.8552  15.8552  15.8578
    15.8578  16.2006  16.2006  16.2006  16.2006  16.2006  16.2006  16.2340
    16.3301  16.3301  16.3301  16.3688  16.3688  16.3688  16.4347  16.4347
    16.4347  16.6479  16.6479  16.6479  16.6946  16.6946  16.6946  16.8264
    16.8264  16.8264  16.8822  16.8822  17.0609  17.0609  17.0609  17.2085
    17.2085  17.2085  17.2085  17.2085  17.2085  17.2726  17.2726  17.2726
    17.6368  17.6368  17.6368  18.2488  18.2488  18.2488  18.8072  18.8072
    18.8072  18.8072  18.8072

          k = 0.1515 0.1515 0.2525 ( 40127 PWs)   bands (ev):

   -56.5630 -56.5484 -56.5423 -56.5423 -56.5330 -56.5330 -56.5293 -56.5271
   -56.5271 -56.5253 -56.5228 -56.5217 -56.5217 -56.5199 -56.5198 -56.5198
   -56.5198 -56.5184 -56.5167 -56.5167 -56.5146 -56.5123 -56.5123 -56.5082
   -56.5075 -56.5074 -56.5070 -56.5070 -56.5064 -56.5064 -56.5063 -56.5063
   -26.6479 -26.6439 -26.6439 -26.6257 -26.6247 -26.6247 -26.6214 -26.5963
   -26.5862 -26.5862 -26.5802 -26.5802 -26.5771 -26.5770 -26.5766 -26.5766
   -26.5713 -26.5713 -26.5663 -26.5663 -26.5649 -26.5649 -26.5548 -26.5494
   -26.5310 -26.5309 -26.5234 -26.5234 -26.5123 -26.5123 -26.5006 -26.5006
   -26.4952 -26.4952 -26.4906 -26.4906 -26.4570 -26.4560 -26.4560 -26.4517
   -26.4517 -26.4467 -26.4467 -26.4341 -26.4248 -26.4248 -26.4235 -26.4234
   -26.4231 -26.4231 -26.4218 -26.4218 -26.4213 -26.4164 -26.4145 -26.4145
   -26.4128 -26.4128 -26.3949 -26.3891 -26.3856 -26.3856 -26.3844 -26.3841
   -26.3841 -26.3748 -26.3745 -26.3745 -26.3715 -26.3715 -26.3669 -26.3668
   -26.3668 -26.3667 -26.3631 -26.3561 -26.3561 -26.3547 -26.3547 -26.3542
   -26.3531 -26.3531 -26.3472 -26.3472 -26.3440 -26.3391 -26.3362 -26.3362
   -26.3326 -26.3310 -26.3305 -26.3287 -26.3258 -26.3258 -26.3000 -26.2974
    10.2130  11.2466  11.6654  11.6654  11.9540  12.0906  12.1159  12.1159
    12.1425  12.1425  12.1849  12.2991  12.2991  12.3459  12.3465  12.3757
    12.3757  12.4149  12.4436  12.4436  12.7200  12.7200  12.7420  12.7420
    12.8510  12.8586  12.8586  12.8678  12.9153  12.9153  12.9461  12.9461
    13.0307  13.0307  13.0662  13.0662  13.0722  13.0722  13.1064  13.1064
    13.3414  13.3414  13.3428  13.3428  13.5598  13.5598  13.6320  13.6320
    13.6692  13.6692  13.6721  13.6721  13.6962  13.7296  13.8035  13.8035
    13.8845  13.8846  13.9080  13.9080  13.9854  13.9854  14.0922  14.1082
    14.1452  14.1452  14.1720  14.1720  14.1722  14.1722  14.2384  14.2477
    14.2477  14.2646  14.2646  14.3864  14.3964  14.4123  14.4226  14.4226
    14.4675  14.5070  14.5154  14.5419  14.5419  14.5605  14.6169  14.6169
    14.7213  14.7213  14.7719  14.7719  14.8450  14.8477  14.9778  15.0187
    15.0187  15.1127  15.1127  15.1447  15.1447  15.1479  15.2356  15.4077
    15.4077  15.4169  15.4169  15.4550  15.4874  15.4874  15.5442  15.5442
    15.5642  15.6466  15.6467  15.6841  15.6841  15.6882  15.6882  15.7833
    15.8112  15.8112  15.8225  15.8508  15.8508  15.8968  15.9217  15.9880
    16.0202  16.0202  16.2186  16.2312  16.2312  16.2802  16.2802  16.3878
    16.3878  16.4078  16.4078  16.4115  16.4115  16.4692  16.4987  16.4987
    16.5200  16.5200  16.5233  16.7255  16.7255  16.7286  16.7383  16.8154
    16.8413  16.8991  16.8991  16.9898  17.0269  17.0423  17.0423  17.0987
    17.0987  17.1001  17.1001  17.2117  17.2117  17.2129  17.2565  17.2565
    17.3145  17.3145  17.5676  18.3583  18.3583  18.4091  18.4091  18.7655
    18.7655  18.8157  18.9659

          k = 0.1515 0.1515 0.3535 ( 40142 PWs)   bands (ev):

   -56.5604 -56.5529 -56.5406 -56.5406 -56.5359 -56.5359 -56.5286 -56.5266
   -56.5262 -56.5261 -56.5234 -56.5234 -56.5199 -56.5198 -56.5198 -56.5198
   -56.5183 -56.5173 -56.5153 -56.5138 -56.5138 -56.5108 -56.5107 -56.5106
   -56.5091 -56.5091 -56.5079 -56.5079 -56.5064 -56.5064 -56.5064 -56.5063
   -26.6401 -26.6328 -26.6328 -26.6166 -26.6166 -26.6136 -26.6103 -26.6086
   -26.6028 -26.6028 -26.5939 -26.5939 -26.5790 -26.5790 -26.5760 -26.5760
   -26.5742 -26.5742 -26.5736 -26.5721 -26.5678 -26.5678 -26.5571 -26.5571
   -26.5393 -26.5393 -26.5121 -26.5121 -26.5066 -26.5066 -26.5008 -26.5008
   -26.4897 -26.4897 -26.4809 -26.4809 -26.4719 -26.4719 -26.4650 -26.4650
   -26.4563 -26.4563 -26.4343 -26.4270 -26.4224 -26.4224 -26.4218 -26.4218
   -26.4155 -26.4125 -26.4125 -26.4070 -26.4066 -26.4065 -26.4044 -26.4044
   -26.4020 -26.4020 -26.3992 -26.3926 -26.3926 -26.3923 -26.3912 -26.3806
   -26.3806 -26.3797 -26.3796 -26.3771 -26.3771 -26.3725 -26.3725 -26.3712
   -26.3692 -26.3691 -26.3615 -26.3592 -26.3592 -26.3570 -26.3546 -26.3546
   -26.3540 -26.3540 -26.3537 -26.3537 -26.3499 -26.3480 -26.3364 -26.3320
   -26.3306 -26.3306 -26.3249 -26.3249 -26.3224 -26.3177 -26.3059 -26.3016
    10.3992  10.9266  11.7886  11.7886  12.0092  12.1155  12.1155  12.1647
    12.2111  12.2316  12.2316  12.2460  12.2460  12.3166  12.3260  12.4820
    12.4820  12.4911  12.5449  12.5449  12.5484  12.5484  12.5622  12.5622
    12.6765  12.7116  12.7375  12.7375  12.8996  12.8996  12.9583  12.9583
    13.0149  13.0149  13.0386  13.0386  13.1307  13.1307  13.1735  13.1735
    13.3565  13.3565  13.3758  13.3758  13.4780  13.4780  13.5046  13.5046
    13.5340  13.5340  13.6132  13.6132  13.7440  13.7440  13.7931  13.8620
    13.9188  13.9188  13.9619  13.9619  13.9863  14.0749  14.0749  14.0874
    14.0874  14.1395  14.1396  14.1408  14.2663  14.2663  14.2729  14.2729
    14.3197  14.3941  14.4752  14.4752  14.4779  14.4907  14.4907  14.5460
    14.5460  14.5491  14.5857  14.5939  14.6196  14.6196  14.6413  14.6413
    14.6792  14.6982  14.7364  14.7897  14.8262  14.9743  14.9743  14.9807
    15.0111  15.0111  15.0428  15.0428  15.0874  15.0875  15.2166  15.2166
    15.2889  15.3572  15.4695  15.4993  15.4993  15.5290  15.5290  15.5636
    15.6252  15.6252  15.6334  15.6334  15.6572  15.6572  15.6810  15.7278
    15.7278  15.7410  15.7410  15.8195  15.8195  15.8577  15.8577  15.9540
    16.1170  16.1454  16.2052  16.2157  16.2177  16.2177  16.2962  16.2962
    16.4636  16.4636  16.5288  16.5288  16.5623  16.5864  16.5895  16.5895
    16.6058  16.6058  16.6211  16.6211  16.6475  16.6475  16.6851  16.9306
    16.9484  16.9545  16.9545  16.9562  16.9562  16.9584  16.9584  17.0164
    17.0164  17.1326  17.1649  17.2174  17.2174  17.2396  17.2396  17.2489
    17.2489  17.3097  17.4641  18.0158  18.0158  18.4040  18.4864  18.4864
    18.6987  18.6987  19.3194

          k = 0.1515 0.1515-0.4545 ( 40176 PWs)   bands (ev):

   -56.5570 -56.5570 -56.5385 -56.5384 -56.5384 -56.5384 -56.5277 -56.5277
   -56.5249 -56.5249 -56.5249 -56.5249 -56.5198 -56.5198 -56.5198 -56.5198
   -56.5162 -56.5162 -56.5142 -56.5142 -56.5113 -56.5113 -56.5113 -56.5112
   -56.5092 -56.5092 -56.5092 -56.5092 -56.5064 -56.5064 -56.5063 -56.5063
   -26.6285 -26.6285 -26.6188 -26.6188 -26.6188 -26.6188 -26.6062 -26.6062
   -26.6062 -26.6062 -26.5926 -26.5926 -26.5920 -26.5920 -26.5788 -26.5787
   -26.5787 -26.5787 -26.5707 -26.5707 -26.5707 -26.5707 -26.5484 -26.5484
   -26.5484 -26.5483 -26.5083 -26.5083 -26.5083 -26.5082 -26.4892 -26.4892
   -26.4892 -26.4892 -26.4777 -26.4777 -26.4777 -26.4777 -26.4678 -26.4678
   -26.4678 -26.4678 -26.4220 -26.4220 -26.4220 -26.4220 -26.4179 -26.4179
   -26.4123 -26.4123 -26.4080 -26.4080 -26.4017 -26.4017 -26.4017 -26.4017
   -26.3925 -26.3925 -26.3925 -26.3925 -26.3910 -26.3910 -26.3910 -26.3910
   -26.3908 -26.3908 -26.3908 -26.3908 -26.3682 -26.3682 -26.3638 -26.3637
   -26.3637 -26.3637 -26.3623 -26.3623 -26.3623 -26.3623 -26.3595 -26.3595
   -26.3592 -26.3592 -26.3544 -26.3544 -26.3544 -26.3544 -26.3340 -26.3340
   -26.3267 -26.3267 -26.3267 -26.3267 -26.3135 -26.3135 -26.3086 -26.3086
    10.6398  10.6398  11.9418  11.9418  11.9418  11.9418  12.0962  12.0962
    12.2463  12.2463  12.3774  12.3774  12.3774  12.3774  12.3819  12.3819
    12.3819  12.3819  12.4920  12.4920  12.5907  12.5907  12.6070  12.6070
    12.6070  12.6070  12.7160  12.7160  12.7160  12.7160  12.9924  12.9924
    12.9924  12.9924  13.1199  13.1199  13.1199  13.1199  13.3097  13.3097
    13.3097  13.3097  13.3967  13.3967  13.3967  13.3967  13.4415  13.4415
    13.4415  13.4415  13.6772  13.6772  13.6772  13.6772  13.8830  13.8830
    13.9844  13.9844  13.9844  13.9844  14.0126  14.0126  14.0240  14.0240
    14.0240  14.0240  14.2745  14.2745  14.2745  14.2745  14.3299  14.3299
    14.3299  14.3299  14.3737  14.3737  14.5369  14.5369  14.5369  14.5369
    14.5739  14.5739  14.6874  14.6874  14.6978  14.6978  14.7227  14.7227
    14.7227  14.7227  14.8212  14.8212  14.9198  14.9198  14.9240  14.9240
    14.9240  14.9240  15.0119  15.0119  15.0659  15.0659  15.0659  15.0659
    15.4283  15.4283  15.4283  15.4283  15.5658  15.5658  15.5675  15.5675
    15.5675  15.5675  15.6447  15.6447  15.6447  15.6447  15.7009  15.7009
    15.7009  15.7009  15.7476  15.7476  15.7476  15.7476  15.9046  15.9046
    16.0281  16.0281  16.3618  16.3618  16.3801  16.3801  16.3801  16.3801
    16.4083  16.4083  16.4154  16.4154  16.4154  16.4154  16.7483  16.7483
    16.7483  16.7483  16.7893  16.7893  16.7893  16.7893  16.8040  16.8040
    16.8040  16.8040  16.8081  16.8081  16.8081  16.8081  16.8314  16.8314
    17.0373  17.0373  17.2264  17.2264  17.2264  17.2264  17.3282  17.3282
    17.6274  17.6274  17.6274  17.6274  17.8371  17.8371  18.6047  18.6047
    18.6047  18.6047  19.7037

          k = 0.1515 0.2525 0.2525 ( 40114 PWs)   bands (ev):

   -56.5613 -56.5471 -56.5471 -56.5412 -56.5365 -56.5323 -56.5323 -56.5271
   -56.5265 -56.5223 -56.5223 -56.5215 -56.5215 -56.5202 -56.5181 -56.5181
   -56.5181 -56.5180 -56.5169 -56.5169 -56.5130 -56.5129 -56.5109 -56.5081
   -56.5081 -56.5081 -56.5080 -56.5076 -56.5076 -56.5068 -56.5068 -56.5064
   -26.6418 -26.6418 -26.6354 -26.6193 -26.6170 -26.6170 -26.6122 -26.5952
   -26.5952 -26.5905 -26.5905 -26.5821 -26.5821 -26.5785 -26.5785 -26.5778
   -26.5778 -26.5759 -26.5759 -26.5752 -26.5736 -26.5736 -26.5534 -26.5534
   -26.5393 -26.5393 -26.5387 -26.5055 -26.5018 -26.5018 -26.5007 -26.4975
   -26.4974 -26.4870 -26.4870 -26.4695 -26.4677 -26.4676 -26.4558 -26.4412
   -26.4412 -26.4385 -26.4385 -26.4371 -26.4371 -26.4307 -26.4307 -26.4195
   -26.4194 -26.4194 -26.4153 -26.4153 -26.4128 -26.4128 -26.4123 -26.4123
   -26.4072 -26.4072 -26.3990 -26.3990 -26.3862 -26.3862 -26.3835 -26.3818
   -26.3817 -26.3769 -26.3752 -26.3731 -26.3731 -26.3717 -26.3700 -26.3700
   -26.3690 -26.3689 -26.3681 -26.3661 -26.3661 -26.3576 -26.3576 -26.3564
   -26.3564 -26.3560 -26.3452 -26.3428 -26.3409 -26.3382 -26.3381 -26.3358
   -26.3358 -26.3273 -26.3273 -26.3244 -26.3244 -26.3203 -26.3030 -26.2982
    10.3363  11.3414  11.3414  11.7321  11.9518  12.0739  12.1708  12.1708
    12.1834  12.1914  12.2074  12.2074  12.2618  12.2618  12.4161  12.4242
    12.4242  12.4943  12.4943  12.5298  12.6793  12.6793  12.7435  12.7435
    12.7811  12.7811  12.8574  12.8574  12.8993  12.8993  12.9234  12.9234
    12.9472  12.9472  12.9513  12.9674  12.9674  13.1395  13.1395  13.1654
    13.1684  13.1684  13.3374  13.3374  13.5458  13.5458  13.5802  13.6190
    13.6397  13.6397  13.7225  13.7225  13.7274  13.7274  13.8164  13.8667
    13.8667  13.9723  13.9723  14.0284  14.0284  14.0370  14.0370  14.0934
    14.0934  14.1189  14.1539  14.1539  14.2009  14.2259  14.2259  14.3413
    14.4134  14.4366  14.4366  14.4487  14.4487  14.4548  14.4967  14.4967
    14.5255  14.5379  14.5543  14.5962  14.5962  14.6100  14.6441  14.6441
    14.6499  14.6612  14.7668  14.7668  14.8527  14.8527  14.9558  14.9558
    14.9701  14.9824  14.9824  15.0292  15.2112  15.2112  15.2542  15.2542
    15.2835  15.2977  15.2977  15.3318  15.3318  15.5005  15.5300  15.5319
    15.5509  15.5509  15.5575  15.5908  15.5908  15.7693  15.7707  15.7707
    15.8497  15.8750  15.8750  15.8890  15.8961  15.8961  15.9563  15.9563
    16.0135  16.0135  16.0404  16.0991  16.0991  16.2540  16.2540  16.3992
    16.4473  16.4473  16.4716  16.4716  16.5936  16.5937  16.5937  16.5951
    16.6324  16.6324  16.6366  16.6366  16.7472  16.7657  16.7657  16.7889
    16.8189  16.8865  17.0237  17.0409  17.0409  17.0427  17.0427  17.0718
    17.1087  17.1087  17.1102  17.1102  17.2067  17.2067  17.2229  17.2257
    17.2257  17.2480  17.2480  18.2744  18.3736  18.3736  18.8905  18.8905
    18.9778  18.9778  19.2929

          k = 0.1515 0.2525 0.3535 ( 40143 PWs)   bands (ev):

   -56.5587 -56.5515 -56.5452 -56.5398 -56.5396 -56.5351 -56.5314 -56.5287
   -56.5256 -56.5231 -56.5216 -56.5213 -56.5206 -56.5194 -56.5179 -56.5177
   -56.5171 -56.5164 -56.5149 -56.5141 -56.5139 -56.5114 -56.5107 -56.5097
   -56.5096 -56.5095 -56.5089 -56.5080 -56.5078 -56.5076 -56.5067 -56.5065
   -26.6356 -26.6324 -26.6238 -26.6118 -26.6116 -26.6106 -26.6058 -26.6057
   -26.5959 -26.5942 -26.5928 -26.5920 -26.5915 -26.5902 -26.5839 -26.5832
   -26.5816 -26.5794 -26.5752 -26.5737 -26.5737 -26.5693 -26.5693 -26.5586
   -26.5581 -26.5484 -26.5222 -26.5075 -26.5074 -26.4925 -26.4899 -26.4865
   -26.4862 -26.4820 -26.4773 -26.4766 -26.4736 -26.4663 -26.4519 -26.4515
   -26.4503 -26.4481 -26.4440 -26.4334 -26.4262 -26.4209 -26.4181 -26.4165
   -26.4162 -26.4136 -26.4133 -26.4118 -26.4063 -26.4061 -26.4060 -26.4027
   -26.4025 -26.4001 -26.3992 -26.3984 -26.3980 -26.3968 -26.3920 -26.3870
   -26.3842 -26.3822 -26.3818 -26.3785 -26.3778 -26.3745 -26.3725 -26.3710
   -26.3678 -26.3648 -26.3629 -26.3629 -26.3616 -26.3615 -26.3607 -26.3604
   -26.3601 -26.3574 -26.3569 -26.3468 -26.3440 -26.3421 -26.3353 -26.3335
   -26.3294 -26.3268 -26.3255 -26.3199 -26.3174 -26.3143 -26.3088 -26.3009
    10.5175  11.0303  11.4787  11.8262  11.8543  11.9794  12.0708  12.1137
    12.2446  12.2710  12.2831  12.2865  12.3690  12.3952  12.4044  12.4719
    12.5173  12.5329  12.5692  12.5696  12.6014  12.6094  12.6116  12.6541
    12.6689  12.7353  12.7775  12.7873  12.8062  12.8588  12.8807  12.9309
    12.9427  12.9533  12.9679  12.9745  12.9857  13.0147  13.0330  13.1939
    13.2582  13.3023  13.3517  13.3557  13.3664  13.4010  13.4833  13.5364
    13.5575  13.6765  13.6995  13.7051  13.7556  13.7942  13.8106  13.8757
    13.9076  13.9301  13.9520  13.9678  14.0559  14.0790  14.1239  14.1484
    14.1777  14.1867  14.1869  14.2892  14.3199  14.3350  14.3472  14.4068
    14.4269  14.4297  14.4401  14.4732  14.4752  14.4933  14.5112  14.5600
    14.5857  14.5899  14.6014  14.6156  14.6667  14.6922  14.7008  14.7028
    14.7131  14.7516  14.7519  14.7719  14.8180  14.8659  14.8850  14.9460
    14.9519  14.9583  14.9698  14.9845  15.0246  15.0663  15.0856  15.1107
    15.1121  15.1353  15.2639  15.2794  15.3853  15.4270  15.4502  15.5310
    15.5441  15.5917  15.6210  15.6583  15.6816  15.6872  15.6925  15.6968
    15.7067  15.7538  15.8318  15.8549  15.8629  15.8908  15.9381  15.9422
    15.9731  16.1065  16.1082  16.1311  16.1329  16.1983  16.3557  16.4585
    16.4902  16.4924  16.5153  16.5216  16.5542  16.5612  16.6443  16.6887
    16.7009  16.7140  16.7464  16.7555  16.7569  16.7606  16.7698  16.7787
    16.8926  16.9268  16.9541  16.9616  16.9637  16.9760  16.9812  16.9936
    17.0065  17.0265  17.1259  17.1264  17.1366  17.1510  17.1791  17.1852
    17.2319  17.6359  17.6879  17.9878  18.2509  18.3259  18.4733  18.8185
    19.1119  19.2633  19.4469

          k = 0.1515 0.2525-0.4545 ( 40158 PWs)   bands (ev):

   -56.5554 -56.5554 -56.5428 -56.5428 -56.5375 -56.5375 -56.5302 -56.5302
   -56.5245 -56.5245 -56.5210 -56.5210 -56.5206 -56.5206 -56.5174 -56.5174
   -56.5150 -56.5150 -56.5140 -56.5140 -56.5119 -56.5119 -56.5117 -56.5117
   -56.5101 -56.5101 -56.5085 -56.5085 -56.5079 -56.5079 -56.5066 -56.5066
   -26.6254 -26.6254 -26.6201 -26.6201 -26.6098 -26.6098 -26.6024 -26.6024
   -26.6017 -26.6017 -26.5913 -26.5913 -26.5892 -26.5892 -26.5872 -26.5872
   -26.5825 -26.5825 -26.5775 -26.5775 -26.5736 -26.5736 -26.5641 -26.5641
   -26.5590 -26.5590 -26.5098 -26.5098 -26.5042 -26.5042 -26.4857 -26.4857
   -26.4779 -26.4779 -26.4671 -26.4671 -26.4665 -26.4665 -26.4647 -26.4647
   -26.4612 -26.4612 -26.4234 -26.4234 -26.4212 -26.4212 -26.4171 -26.4171
   -26.4152 -26.4152 -26.4144 -26.4144 -26.4060 -26.4060 -26.4053 -26.4053
   -26.3948 -26.3948 -26.3939 -26.3939 -26.3929 -26.3929 -26.3891 -26.3891
   -26.3881 -26.3881 -26.3852 -26.3852 -26.3835 -26.3835 -26.3770 -26.3770
   -26.3652 -26.3652 -26.3650 -26.3650 -26.3631 -26.3631 -26.3574 -26.3574
   -26.3540 -26.3540 -26.3514 -26.3514 -26.3504 -26.3504 -26.3321 -26.3321
   -26.3291 -26.3291 -26.3174 -26.3174 -26.3164 -26.3164 -26.3063 -26.3063
    10.7515  10.7515  11.6524  11.6524  11.9415  11.9415  12.0348  12.0348
    12.3257  12.3257  12.3802  12.3802  12.4130  12.4130  12.4324  12.4324
    12.5053  12.5053  12.5382  12.5382  12.5652  12.5652  12.6637  12.6637
    12.6681  12.6681  12.7634  12.7634  12.8095  12.8095  12.8228  12.8228
    12.9308  12.9308  12.9593  12.9593  13.0133  13.0133  13.1790  13.1790
    13.2789  13.2789  13.3682  13.3682  13.4234  13.4234  13.4378  13.4378
    13.4767  13.4767  13.7879  13.7879  13.7938  13.7938  13.8126  13.8126
    13.8713  13.8713  14.0123  14.0123  14.0290  14.0290  14.1590  14.1590
    14.1918  14.1918  14.3309  14.3309  14.3519  14.3519  14.4244  14.4244
    14.4266  14.4266  14.5046  14.5046  14.5251  14.5251  14.5885  14.5885
    14.6272  14.6272  14.6336  14.6336  14.6857  14.6857  14.7005  14.7005
    14.7159  14.7159  14.7497  14.7497  14.8741  14.8741  14.8884  14.8884
    14.9223  14.9223  14.9243  14.9243  14.9449  14.9449  14.9576  14.9576
    15.2647  15.2647  15.3349  15.3349  15.3484  15.3484  15.5250  15.5250
    15.5676  15.5676  15.5741  15.5741  15.5876  15.5876  15.5978  15.5978
    15.7471  15.7471  15.7665  15.7665  15.8861  15.8861  15.9311  15.9311
    16.0274  16.0274  16.3044  16.3044  16.3106  16.3106  16.3347  16.3347
    16.3746  16.3746  16.5319  16.5319  16.6006  16.6006  16.6616  16.6616
    16.6925  16.6925  16.8198  16.8198  16.8458  16.8458  16.8657  16.8657
    16.8676  16.8676  16.8951  16.8951  16.9023  16.9023  16.9126  16.9126
    17.0286  17.0286  17.0449  17.0449  17.1497  17.1497  17.1515  17.1515
    17.6063  17.6063  18.0540  18.0540  18.2322  18.2322  18.2774  18.2774
    19.2064  19.2064  20.0746

          k = 0.1515 0.3535 0.3535 ( 40187 PWs)   bands (ev):

   -56.5563 -56.5494 -56.5494 -56.5435 -56.5381 -56.5340 -56.5339 -56.5307
   -56.5249 -56.5227 -56.5226 -56.5214 -56.5174 -56.5173 -56.5158 -56.5158
   -56.5157 -56.5157 -56.5145 -56.5145 -56.5126 -56.5125 -56.5105 -56.5105
   -56.5104 -56.5104 -56.5099 -56.5099 -56.5087 -56.5073 -56.5072 -56.5067
   -26.6279 -26.6279 -26.6122 -26.6074 -26.6074 -26.6049 -26.6049 -26.6043
   -26.6018 -26.6018 -26.5926 -26.5926 -26.5902 -26.5902 -26.5852 -26.5852
   -26.5837 -26.5837 -26.5789 -26.5788 -26.5788 -26.5756 -26.5756 -26.5756
   -26.5599 -26.5408 -26.5408 -26.5091 -26.5036 -26.4988 -26.4988 -26.4773
   -26.4729 -26.4729 -26.4657 -26.4638 -26.4638 -26.4537 -26.4537 -26.4418
   -26.4418 -26.4395 -26.4395 -26.4367 -26.4367 -26.4246 -26.4246 -26.4190
   -26.4190 -26.4118 -26.4117 -26.4113 -26.4102 -26.4102 -26.4080 -26.4080
[...]
   -26.3972 -26.3972 -26.3972 -26.3972 -26.3807 -26.3807 -26.3807 -26.3807
   -26.3807 -26.3807 -26.3807 -26.3807 -26.3745 -26.3745 -26.3745 -26.3745
   -26.3330 -26.3330 -26.3330 -26.3330 -26.3263 -26.3263 -26.3263 -26.3263
   -26.3247 -26.3247 -26.3247 -26.3247 -26.3093 -26.3093 -26.3093 -26.3093
    11.2015  11.2015  11.2015  11.2015  11.7829  11.7829  11.7829  11.7829
    12.5251  12.5251  12.5251  12.5251  12.5722  12.5722  12.5722  12.5722
    12.5722  12.5722  12.5722  12.5722  12.5847  12.5847  12.5847  12.5847
    12.7103  12.7103  12.7103  12.7103  12.7103  12.7103  12.7103  12.7103
    13.0488  13.0488  13.0488  13.0488  13.0488  13.0488  13.0488  13.0488
    13.1371  13.1371  13.1371  13.1371  13.5622  13.5622  13.5622  13.5622
    13.5622  13.5622  13.5622  13.5622  13.6713  13.6713  13.6713  13.6713
    14.0103  14.0104  14.0104  14.0104  14.2453  14.2453  14.2454  14.2454
    14.4330  14.4330  14.4330  14.4330  14.5253  14.5253  14.5253  14.5253
    14.5253  14.5253  14.5253  14.5253  14.5738  14.5738  14.5738  14.5738
    14.6695  14.6695  14.6695  14.6695  14.6817  14.6817  14.6817  14.6818
    14.7191  14.7191  14.7191  14.7191  14.7931  14.7931  14.7931  14.7931
    14.7931  14.7931  14.7931  14.7931  14.8958  14.8958  14.8958  14.8958
    15.1741  15.1741  15.1741  15.1741  15.2998  15.2998  15.2998  15.2998
    15.2998  15.2998  15.2999  15.2999  15.6932  15.6932  15.6932  15.6932
    15.8743  15.8743  15.8743  15.8743  15.9003  15.9003  15.9003  15.9003
    15.9003  15.9003  15.9003  15.9003  16.1361  16.1361  16.1361  16.1361
    16.1429  16.1429  16.1429  16.1429  16.4070  16.4070  16.4070  16.4070
    17.0269  17.0269  17.0269  17.0269  17.0269  17.0269  17.0269  17.0269
    17.0505  17.0505  17.0505  17.0505  17.0647  17.0647  17.0647  17.0647
    17.0647  17.0647  17.0647  17.0647  17.0859  17.0859  17.0859  17.0859
    18.3623  18.3623  18.3623  18.3623  19.3052  19.3052  19.3052  19.3052
    19.3052  19.3052  19.3052

          k = 0.3535 0.3535 0.3535 ( 40161 PWs)   bands (ev):

   -56.5525 -56.5462 -56.5462 -56.5462 -56.5408 -56.5408 -56.5408 -56.5364
   -56.5168 -56.5168 -56.5167 -56.5158 -56.5158 -56.5158 -56.5158 -56.5158
   -56.5158 -56.5158 -56.5157 -56.5157 -56.5113 -56.5113 -56.5113 -56.5105
   -56.5105 -56.5104 -56.5104 -56.5104 -56.5104 -56.5104 -56.5104 -56.5104
   -26.6153 -26.6153 -26.6153 -26.6024 -26.6024 -26.6024 -26.5991 -26.5991
   -26.5991 -26.5964 -26.5964 -26.5964 -26.5964 -26.5964 -26.5964 -26.5955
   -26.5955 -26.5955 -26.5955 -26.5955 -26.5955 -26.5850 -26.5850 -26.5850
   -26.5424 -26.5012 -26.5012 -26.5012 -26.4654 -26.4654 -26.4654 -26.4654
   -26.4654 -26.4654 -26.4621 -26.4621 -26.4621 -26.4593 -26.4593 -26.4593
   -26.4540 -26.4540 -26.4539 -26.4264 -26.4264 -26.4264 -26.4264 -26.4264
   -26.4264 -26.4200 -26.4200 -26.4200 -26.4159 -26.4154 -26.4154 -26.4154
   -26.4030 -26.4030 -26.4030 -26.3960 -26.3960 -26.3960 -26.3959 -26.3959
   -26.3959 -26.3891 -26.3891 -26.3891 -26.3836 -26.3835 -26.3835 -26.3814
   -26.3814 -26.3814 -26.3814 -26.3814 -26.3813 -26.3738 -26.3738 -26.3738
   -26.3346 -26.3346 -26.3346 -26.3282 -26.3282 -26.3240 -26.3239 -26.3239
   -26.3184 -26.3184 -26.3184 -26.3166 -26.3166 -26.3166 -26.3100 -26.3100
    10.9471  11.3696  11.3696  11.3696  11.6705  11.6705  11.6705  11.7943
    12.4592  12.4592  12.4592  12.5422  12.5422  12.5422  12.5538  12.5538
    12.5538  12.6503  12.6503  12.6503  12.6503  12.6503  12.6503  12.6648
    12.6648  12.6648  12.6648  12.6648  12.6648  12.7161  12.7161  12.7161
    12.9191  12.9191  12.9191  13.1681  13.1681  13.1681  13.2317  13.2317
    13.2317  13.2317  13.2317  13.2317  13.4771  13.4771  13.4771  13.4981
    13.4981  13.4981  13.4981  13.4981  13.4981  13.7233  13.7233  13.7233
    14.0079  14.0079  14.0079  14.0880  14.1441  14.1441  14.1441  14.4227
    14.4227  14.4227  14.4227  14.4227  14.4227  14.5627  14.5692  14.5692
    14.5967  14.5967  14.5967  14.6274  14.6274  14.6274  14.6317  14.6317
    14.6317  14.6547  14.6547  14.6602  14.6602  14.6602  14.6603  14.6603
    14.6603  14.6740  14.6740  14.6740  14.6825  14.6825  14.6825  14.7176
    14.7176  14.7176  14.7235  14.7235  14.7235  15.0776  15.0776  15.0776
    15.1485  15.1485  15.1486  15.4110  15.4110  15.4110  15.4110  15.4110
    15.4110  15.4198  15.4198  15.4198  15.6276  15.6276  15.6276  15.7514
    15.7514  15.7514  15.7514  15.7514  15.7514  15.8131  15.8131  15.8131
    15.8633  15.8633  15.8999  15.8999  15.8999  16.0010  16.0010  16.0010
    16.1585  16.1585  16.1585  16.3134  16.3134  16.4118  16.4118  16.4118
    16.9983  16.9983  16.9983  17.0299  17.0299  17.0299  17.0299  17.0299
    17.0299  17.0724  17.0724  17.0724  17.0724  17.0724  17.0724  17.1053
    17.1053  17.1053  17.1114  17.1114  17.1114  17.1722  17.1722  17.1722
    18.5104  18.5104  18.5104  19.1796  19.1796  19.1796  19.1796  19.1796
    19.1796  19.4806  19.4806

          k = 0.3535 0.3535-0.4545 ( 40146 PWs)   bands (ev):

   -56.5496 -56.5496 -56.5438 -56.5437 -56.5437 -56.5437 -56.5388 -56.5388
   -56.5163 -56.5163 -56.5163 -56.5163 -56.5158 -56.5158 -56.5157 -56.5157
   -56.5134 -56.5133 -56.5133 -56.5133 -56.5129 -56.5129 -56.5129 -56.5128
   -56.5109 -56.5108 -56.5108 -56.5108 -56.5105 -56.5105 -56.5104 -56.5104
   -26.6108 -26.6108 -26.6062 -26.6062 -26.6062 -26.6062 -26.5990 -26.5990
   -26.5990 -26.5990 -26.5975 -26.5975 -26.5975 -26.5975 -26.5973 -26.5973
   -26.5973 -26.5973 -26.5934 -26.5934 -26.5908 -26.5908 -26.5908 -26.5908
   -26.5218 -26.5218 -26.4801 -26.4801 -26.4801 -26.4800 -26.4645 -26.4645
   -26.4645 -26.4645 -26.4600 -26.4600 -26.4600 -26.4600 -26.4459 -26.4459
   -26.4459 -26.4459 -26.4383 -26.4383 -26.4378 -26.4378 -26.4371 -26.4371
   -26.4225 -26.4225 -26.4225 -26.4225 -26.4202 -26.4202 -26.4202 -26.4202
   -26.3991 -26.3991 -26.3991 -26.3991 -26.3967 -26.3967 -26.3895 -26.3895
   -26.3895 -26.3894 -26.3894 -26.3894 -26.3894 -26.3894 -26.3854 -26.3854
   -26.3854 -26.3854 -26.3791 -26.3791 -26.3779 -26.3779 -26.3778 -26.3778
   -26.3298 -26.3298 -26.3277 -26.3277 -26.3277 -26.3277 -26.3229 -26.3229
   -26.3170 -26.3170 -26.3170 -26.3170 -26.3164 -26.3164 -26.3117 -26.3117
    11.1412  11.1412  11.5092  11.5092  11.5092  11.5092  11.7253  11.7253
    12.5100  12.5100  12.5489  12.5489  12.5489  12.5489  12.5883  12.5883
    12.5883  12.5883  12.5950  12.5950  12.5950  12.5950  12.6481  12.6481
    12.6724  12.6724  12.6724  12.6724  12.6829  12.6829  12.6829  12.6829
    13.0311  13.0311  13.0747  13.0747  13.0747  13.0747  13.3371  13.3371
    13.3371  13.3371  13.3479  13.3479  13.3479  13.3479  13.3607  13.3607
    13.3607  13.3607  13.5840  13.5840  13.6248  13.6248  13.6248  13.6248
    14.0622  14.0622  14.0824  14.0824  14.0824  14.0824  14.3491  14.3491
    14.5159  14.5159  14.5159  14.5159  14.5355  14.5355  14.5355  14.5355
    14.5620  14.5620  14.5620  14.5620  14.6044  14.6044  14.6080  14.6080
    14.6120  14.6120  14.6317  14.6317  14.6317  14.6317  14.6510  14.6510
    14.6510  14.6510  14.6707  14.6707  14.6796  14.6796  14.6952  14.6952
    14.6952  14.6952  14.9088  14.9088  14.9088  14.9088  14.9334  14.9334
    15.2233  15.2233  15.2233  15.2233  15.2442  15.2442  15.5036  15.5036
    15.5036  15.5036  15.5694  15.5694  15.5694  15.5694  15.5842  15.5842
    15.5842  15.5843  15.8120  15.8120  15.8154  15.8154  15.8664  15.8664
    15.8664  15.8664  15.8760  15.8760  15.8760  15.8760  16.0032  16.0032
    16.1078  16.1078  16.2393  16.2393  16.2393  16.2393  16.3448  16.3448
    17.0511  17.0511  17.0511  17.0511  17.0695  17.0695  17.0698  17.0698
    17.0698  17.0698  17.0954  17.0954  17.0954  17.0954  17.1000  17.1000
    17.1000  17.1000  17.1339  17.1339  17.1339  17.1339  17.1581  17.1581
    18.8268  18.8268  18.8268  18.8268  19.1807  19.1807  19.3191  19.3191
    19.3191  19.3191  19.8957

          k = 0.3535-0.4545-0.4545 ( 40088 PWs)   bands (ev):

   -56.5469 -56.5469 -56.5469 -56.5469 -56.5415 -56.5415 -56.5415 -56.5415
   -56.5161 -56.5161 -56.5160 -56.5160 -56.5131 -56.5131 -56.5131 -56.5131
   -56.5131 -56.5131 -56.5131 -56.5131 -56.5131 -56.5131 -56.5131 -56.5131
   -56.5131 -56.5131 -56.5130 -56.5130 -56.5106 -56.5106 -56.5106 -56.5106
   -26.6044 -26.6044 -26.6044 -26.6044 -26.6044 -26.6044 -26.6044 -26.6044
   -26.5987 -26.5987 -26.5987 -26.5987 -26.5980 -26.5980 -26.5980 -26.5980
   -26.5955 -26.5955 -26.5955 -26.5955 -26.5955 -26.5955 -26.5954 -26.5954
   -26.5008 -26.5008 -26.5008 -26.5008 -26.4629 -26.4629 -26.4629 -26.4629
   -26.4582 -26.4582 -26.4582 -26.4582 -26.4421 -26.4421 -26.4421 -26.4421
   -26.4421 -26.4421 -26.4421 -26.4421 -26.4418 -26.4418 -26.4418 -26.4417
   -26.4417 -26.4417 -26.4417 -26.4417 -26.4207 -26.4207 -26.4207 -26.4207
   -26.3939 -26.3939 -26.3939 -26.3939 -26.3929 -26.3929 -26.3929 -26.3929
   -26.3929 -26.3929 -26.3929 -26.3929 -26.3842 -26.3842 -26.3842 -26.3842
   -26.3842 -26.3842 -26.3842 -26.3842 -26.3819 -26.3819 -26.3818 -26.3818
   -26.3256 -26.3256 -26.3256 -26.3256 -26.3209 -26.3209 -26.3209 -26.3209
   -26.3206 -26.3206 -26.3206 -26.3206 -26.3136 -26.3136 -26.3136 -26.3136
    11.3111  11.3111  11.3111  11.3111  11.6090  11.6090  11.6090  11.6090
    12.5804  12.5804  12.5804  12.5804  12.5804  12.5804  12.5804  12.5804
    12.5846  12.5846  12.5846  12.5846  12.6047  12.6047  12.6047  12.6047
    12.6541  12.6541  12.6541  12.6541  12.6541  12.6541  12.6541  12.6541
    13.1914  13.1914  13.1914  13.1914  13.1914  13.1914  13.1914  13.1914
    13.2221  13.2221  13.2221  13.2221  13.4757  13.4757  13.4757  13.4757
    13.4757  13.4757  13.4757  13.4757  13.4939  13.4939  13.4939  13.4939
    14.0844  14.0844  14.0844  14.0844  14.2191  14.2192  14.2192  14.2192
    14.5297  14.5297  14.5297  14.5297  14.5677  14.5677  14.5677  14.5677
    14.5677  14.5677  14.5677  14.5677  14.6252  14.6252  14.6252  14.6252
    14.6468  14.6468  14.6468  14.6468  14.6668  14.6668  14.6668  14.6668
    14.6759  14.6759  14.6759  14.6759  14.7327  14.7327  14.7327  14.7328
    14.7328  14.7328  14.7328  14.7328  14.7780  14.7780  14.7780  14.7780
    15.3400  15.3400  15.3400  15.3400  15.3940  15.3940  15.3940  15.3940
    15.3940  15.3940  15.3940  15.3940  15.6860  15.6860  15.6860  15.6860
    15.6860  15.6860  15.6860  15.6860  15.6997  15.6997  15.6997  15.6997
    15.8549  15.8549  15.8549  15.8549  16.0401  16.0401  16.0401  16.0401
    16.0785  16.0785  16.0785  16.0785  16.2208  16.2208  16.2208  16.2208
    17.0938  17.0938  17.0938  17.0938  17.0938  17.0938  17.0938  17.0938
    17.1076  17.1076  17.1076  17.1076  17.1302  17.1302  17.1302  17.1302
    17.1325  17.1325  17.1325  17.1325  17.1325  17.1325  17.1325  17.1325
    19.0523  19.0523  19.0523  19.0523  19.5259  19.5259  19.5259  19.5259
    19.5259  19.5259  19.5259

          k =-0.4545-0.4545-0.4545 ( 40008 PWs)   bands (ev):

   -56.5445 -56.5445 -56.5445 -56.5444 -56.5444 -56.5444 -56.5444 -56.5444
   -56.5131 -56.5131 -56.5131 -56.5131 -56.5131 -56.5131 -56.5131 -56.5131
   -56.5131 -56.5131 -56.5131 -56.5131 -56.5131 -56.5131 -56.5131 -56.5131
   -56.5131 -56.5131 -56.5131 -56.5131 -56.5131 -56.5131 -56.5130 -56.5129
   -26.6000 -26.6000 -26.6000 -26.6000 -26.6000 -26.6000 -26.6000 -26.6000
   -26.6000 -26.6000 -26.6000 -26.6000 -26.6000 -26.6000 -26.6000 -26.6000
   -26.6000 -26.6000 -26.6000 -26.6000 -26.6000 -26.5999 -26.5999 -26.5999
   -26.4794 -26.4794 -26.4794 -26.4794 -26.4794 -26.4794 -26.4794 -26.4794
   -26.4420 -26.4420 -26.4420 -26.4420 -26.4420 -26.4420 -26.4420 -26.4420
   -26.4420 -26.4420 -26.4420 -26.4420 -26.4420 -26.4420 -26.4420 -26.4420
   -26.4420 -26.4420 -26.4420 -26.4420 -26.4420 -26.4419 -26.4419 -26.4419
   -26.3884 -26.3884 -26.3884 -26.3884 -26.3884 -26.3884 -26.3884 -26.3884
   -26.3884 -26.3884 -26.3884 -26.3884 -26.3884 -26.3884 -26.3884 -26.3884
   -26.3884 -26.3884 -26.3884 -26.3884 -26.3884 -26.3884 -26.3884 -26.3884
   -26.3191 -26.3191 -26.3191 -26.3191 -26.3191 -26.3190 -26.3190 -26.3190
   -26.3190 -26.3190 -26.3190 -26.3190 -26.3190 -26.3190 -26.3190 -26.3190
    11.4491  11.4491  11.4491  11.4491  11.4491  11.4491  11.4491  11.4491
    12.6085  12.6085  12.6085  12.6085  12.6085  12.6085  12.6085  12.6085
    12.6085  12.6085  12.6085  12.6085  12.6085  12.6086  12.6086  12.6086
    12.6086  12.6086  12.6086  12.6086  12.6086  12.6086  12.6086  12.6086
    13.3417  13.3417  13.3417  13.3417  13.3417  13.3417  13.3417  13.3417
    13.3417  13.3417  13.3417  13.3417  13.3417  13.3417  13.3417  13.3417
    13.3417  13.3417  13.3417  13.3417  13.3417  13.3417  13.3417  13.3417
    14.1608  14.1608  14.1608  14.1608  14.1608  14.1609  14.1609  14.1609
    14.6499  14.6499  14.6499  14.6499  14.6499  14.6499  14.6499  14.6499
    14.6499  14.6499  14.6499  14.6499  14.6499  14.6499  14.6499  14.6499
    14.6500  14.6500  14.6500  14.6500  14.6500  14.6500  14.6500  14.6500
    14.6500  14.6500  14.6500  14.6500  14.6500  14.6500  14.6500  14.6500
    14.6500  14.6500  14.6500  14.6500  14.6500  14.6500  14.6500  14.6500
    15.5178  15.5178  15.5178  15.5178  15.5178  15.5178  15.5178  15.5178
    15.5178  15.5178  15.5178  15.5178  15.5178  15.5178  15.5178  15.5178
    15.5178  15.5178  15.5178  15.5178  15.5178  15.5178  15.5178  15.5178
    16.0340  16.0340  16.0340  16.0340  16.0340  16.0340  16.0340  16.0340
    16.0340  16.0340  16.0340  16.0340  16.0341  16.0341  16.0341  16.0341
    17.1366  17.1366  17.1366  17.1366  17.1366  17.1366  17.1366  17.1367
    17.1367  17.1367  17.1367  17.1367  17.1367  17.1367  17.1367  17.1367
    17.1367  17.1367  17.1367  17.1367  17.1367  17.1367  17.1367  17.1367
    19.7932  19.7932  19.7932  19.7932  19.7932  19.7932  19.7932  19.7932
    19.7932  19.7932  19.7932

     the Fermi energy is    16.0330 ev

!    total energy              =  -13811.38540822 Ry

     total all-electron energy =   -289987.775747 Ry
     estimated scf accuracy    <       0.00000025 Ry
     smearing contrib. (-TS)   =       0.00782281 Ry
     internal energy E=F+TS    =  -13811.39323103 Ry

     The total energy is F=E-TS. E is the sum of the following terms:
     one-electron contribution =   -1703.93735047 Ry
     hartree contribution      =    1143.51849799 Ry
     xc contribution           =    -919.51064529 Ry
     ewald contribution        =   -4742.32198373 Ry
     one-center paw contrib.   =   -7589.14174952 Ry

     convergence has been achieved in  13 iterations

     Forces acting on atoms (cartesian axes, Ry/au):

     atom    1 type  1   force =     0.00000000    0.00000000    0.00000000
     atom    2 type  1   force =     0.00000507    0.00000507   -0.00000000
     atom    3 type  1   force =     0.00000507   -0.00000000    0.00000507
     atom    4 type  1   force =    -0.00000000    0.00000507    0.00000507
     atom    5 type  1   force =     0.00000000    0.00000000    0.00000000
     atom    6 type  1   force =     0.00000933    0.00000933    0.00000000
     atom    7 type  1   force =     0.00000507    0.00000000   -0.00000507
     atom    8 type  1   force =     0.00000000    0.00000507   -0.00000507
     atom    9 type  1   force =     0.00000000    0.00000000    0.00000000
     atom   10 type  1   force =     0.00000507   -0.00000507    0.00000000
     atom   11 type  1   force =     0.00000933   -0.00000000    0.00000933
     atom   12 type  1   force =     0.00000000   -0.00000507    0.00000507
     atom   13 type  1   force =     0.00000000    0.00000000    0.00000000
     atom   14 type  1   force =     0.00000933   -0.00000933   -0.00000000
     atom   15 type  1   force =     0.00000933   -0.00000000   -0.00000933
     atom   16 type  1   force =    -0.00000000   -0.00000507   -0.00000507
     atom   17 type  1   force =     0.00000000    0.00000000    0.00000000
     atom   18 type  1   force =    -0.00000507    0.00000507    0.00000000
     atom   19 type  1   force =    -0.00000507    0.00000000    0.00000507
     atom   20 type  1   force =     0.00000000    0.00000933    0.00000933
     atom   21 type  1   force =     0.00000000    0.00000000    0.00000000
     atom   22 type  1   force =    -0.00000933    0.00000933    0.00000000
     atom   23 type  1   force =    -0.00000507   -0.00000000   -0.00000507
     atom   24 type  1   force =    -0.00000000    0.00000933   -0.00000933
     atom   25 type  1   force =     0.00000000    0.00000000    0.00000000
     atom   26 type  1   force =    -0.00000507   -0.00000507   -0.00000000
     atom   27 type  1   force =    -0.00000933   -0.00000000    0.00000933
     atom   28 type  1   force =     0.00000000   -0.00000933    0.00000933
     atom   29 type  1   force =     0.00000000    0.00000000    0.00000000
     atom   30 type  1   force =    -0.00000933   -0.00000933   -0.00000000
     atom   31 type  1   force =    -0.00000933    0.00000000   -0.00000933
     atom   32 type  1   force =    -0.00000000   -0.00000933   -0.00000933

     Total force =     0.000052     Total SCF correction =     0.000250
     SCF correction compared to forces is large: reduce conv_thr to get better values


     Computing stress (Cartesian axis) and pressure

          total   stress  (Ry/bohr**3)                   (kbar)     P=     -433.93
  -0.00294979   0.00000000   0.00000000         -433.93        0.00        0.00
   0.00000000  -0.00294979   0.00000000            0.00     -433.93        0.00
   0.00000000   0.00000000  -0.00294979            0.00        0.00     -433.93


     Writing output data file /scratch/sxfnWWREqczzgROA.save/
 
     init_run     :     16.88s CPU     17.26s WALL (       1 calls)
     electrons    :    682.51s CPU    693.05s WALL (       1 calls)
     forces       :      5.83s CPU      5.91s WALL (       1 calls)
     stress       :     47.46s CPU     47.79s WALL (       1 calls)

     Called by init_run:
     wfcinit      :     15.82s CPU     16.14s WALL (       1 calls)
     potinit      :      0.18s CPU      0.18s WALL (       1 calls)
     hinit0       :      0.49s CPU      0.50s WALL (       1 calls)

     Called by electrons:
     c_bands      :    613.06s CPU    622.13s WALL (      14 calls)
     sum_band     :     67.45s CPU     68.62s WALL (      14 calls)
     v_of_rho     :      0.41s CPU      0.43s WALL (      14 calls)
     newd         :      0.42s CPU      0.57s WALL (      14 calls)
     PAW_pot      :      1.17s CPU      1.23s WALL (      14 calls)
     mix_rho      :      0.10s CPU      0.12s WALL (      14 calls)

     Called by c_bands:
     init_us_2    :      2.89s CPU      2.94s WALL (    1085 calls)
     cegterg      :    602.73s CPU    611.47s WALL (     490 calls)

     Called by *egterg:
     cdiaghg      :     64.74s CPU     65.36s WALL (    1910 calls)
     h_psi        :    329.25s CPU    335.28s WALL (    1980 calls)
     s_psi        :     23.73s CPU     23.88s WALL (    1980 calls)
     g_psi        :      0.67s CPU      0.68s WALL (    1455 calls)

     Called by h_psi:
     h_psi:calbec :     44.17s CPU     44.44s WALL (    1980 calls)
     vloc_psi     :    259.48s CPU    264.66s WALL (    1980 calls)
     add_vuspsi   :     23.98s CPU     24.51s WALL (    1980 calls)

     General routines
     calbec       :     69.24s CPU     69.65s WALL (    2645 calls)
     fft          :      0.40s CPU      0.43s WALL (     206 calls)
     ffts         :      0.02s CPU      0.03s WALL (      28 calls)
     fftw         :    297.36s CPU    302.98s WALL (  952320 calls)
     interpolate  :      0.04s CPU      0.05s WALL (      14 calls)
 
     Parallel routines
     fft_scatt_xy :     22.78s CPU     23.09s WALL (  952554 calls)
     fft_scatt_yz :    228.04s CPU    232.77s WALL (  952554 calls)
 
     PWSCF        :  12m44.16s CPU  12m58.02s WALL

 
   This run was terminated on:  15:34: 9  25Nov2021            

=------------------------------------------------------------------------------=
   JOB DONE.
=------------------------------------------------------------------------------=
