--------------------------------------------------------------------------
WARNING: No preset parameters were found for the device that Open MPI
detected:

  Local host:            bear-pg0206u39a
  Device name:           mlx5_0
  Device vendor ID:      0x02c9
  Device vendor part ID: 4123

Default device parameters will be used, which may result in lower
performance.  You can edit any of the files specified by the
btl_openib_device_param_files MCA parameter to set values for your
device.

NOTE: You can turn off this warning by setting the MCA parameter
      btl_openib_warn_no_device_params_found to 0.
--------------------------------------------------------------------------
--------------------------------------------------------------------------
WARNING: There was an error initializing an OpenFabrics device.

  Local host:   bear-pg0206u39a
  Local device: mlx5_0
--------------------------------------------------------------------------

     Program PWSCF v.6.3 starts on  9Sep2020 at 12:30:26 

     This program is part of the open-source Quantum ESPRESSO suite
     for quantum simulation of materials; please cite
         "P. Giannozzi et al., J. Phys.:Condens. Matter 21 395502 (2009);
         "P. Giannozzi et al., J. Phys.:Condens. Matter 29 465901 (2017);
          URL http://www.quantum-espresso.org", 
     in publications or presentations arising from this work. More details at
     http://www.quantum-espresso.org/quote

     Parallel version (MPI & OpenMP), running on      40 processor cores
     Number of MPI processes:                40
     Threads/MPI process:                     1

     MPI processes distributed on     1 nodes
     R & G space division:  proc/nbgrp/npool/nimage =      40
     Reading input from wd/ec/ec_1_007.in
Warning: card &IONS ignored
Warning: card ION_DYNAMICS = 'BFGS', ignored
Warning: card / ignored
Warning: card &CELL ignored
Warning: card CELL_DYNAMICS = 'BFGS', ignored
Warning: card CELL_FACTOR = 2.0, ignored
Warning: card PRESS = 0.0, ignored
Warning: card / ignored

     Current dimensions of program PWSCF are:
     Max number of different atomic species (ntypx) = 10
     Max number of k-points (npk) =  40000
     Max angular momentum in pseudopotentials (lmaxx) =  3
               file Fe.pbe-spn-kjpaw_psl.1.0.0.UPF: wavefunction(s)  3P 3D renormalized
               file Fe.pbe-spn-kjpaw_psl.1.0.0.UPF: wavefunction(s)  3P 3D renormalized

     Subspace diagonalization in iterative solution of the eigenvalue problem:
     a serial algorithm will be used

     Found symmetry operation: I + (  0.0000  0.0000 -0.5000)
     This is a supercell, fractional translations are disabled
 
     Parallelization info
     --------------------
     sticks:   dense  smooth     PW     G-vecs:    dense   smooth      PW
     Min          96      63     18                 4496     2413     358
     Max          97      64     19                 4499     2420     362
     Sum        3867    2553    721               179903    96681   14387
 


     bravais-lattice index     =            0
     lattice parameter (alat)  =      10.5935  a.u.
     unit-cell volume          =    1194.7771 (a.u.)^3
     number of atoms/cell      =           16
     number of atomic types    =            2
     number of electrons       =       256.00
     number of Kohn-Sham states=          154
     kinetic-energy cutoff     =      71.0000  Ry
     charge density cutoff     =     430.0000  Ry
     convergence threshold     =      1.0E-06
     mixing beta               =       0.1000
     number of iterations used =           10  plain     mixing
     Exchange-correlation      = SLA PW PBX PBC ( 1  4  3  4 0 0)

     celldm(1)=  10.593520  celldm(2)=   0.000000  celldm(3)=   0.000000
     celldm(4)=   0.000000  celldm(5)=   0.000000  celldm(6)=   0.000000

     crystal axes: (cart. coord. in units of alat)
               a(1) = (   1.005000   0.000000   0.000000 )  
               a(2) = (   0.000000   1.000000   0.000000 )  
               a(3) = (   0.000000   0.000000   1.000000 )  

     reciprocal axes: (cart. coord. in units 2 pi/alat)
               b(1) = (  0.995025  0.000000  0.000000 )  
               b(2) = (  0.000000  1.000000  0.000000 )  
               b(3) = (  0.000000  0.000000  1.000000 )  


     PseudoPot. # 1 for Fe read from file:
     /rds/homes/b/bxp912/pp/Fe.pbe-spn-kjpaw_psl.1.0.0.UPF
     MD5 check sum: 42f43b795421b414b0dc916aa790dbcb
     Pseudo is Projector augmented-wave + core cor, Zval = 16.0
     Generated using "atomic" code by A. Dal Corso v.6.3
     Shape of augmentation charge: PSQ
     Using radial grid of 1191 points,  6 beta functions with: 
                l(1) =   0
                l(2) =   0
                l(3) =   1
                l(4) =   1
                l(5) =   2
                l(6) =   2
     Q(r) pseudized with 0 coefficients 


     PseudoPot. # 2 for Fe read from file:
     /rds/homes/b/bxp912/pp/Fe.pbe-spn-kjpaw_psl.1.0.0.UPF
     MD5 check sum: 42f43b795421b414b0dc916aa790dbcb
     Pseudo is Projector augmented-wave + core cor, Zval = 16.0
     Generated using "atomic" code by A. Dal Corso v.6.3
     Shape of augmentation charge: PSQ
     Using radial grid of 1191 points,  6 beta functions with: 
                l(1) =   0
                l(2) =   0
                l(3) =   1
                l(4) =   1
                l(5) =   2
                l(6) =   2
     Q(r) pseudized with 0 coefficients 


     atomic species   valence    mass     pseudopotential
        Fe1           16.00    55.84500     Fe( 1.00)
        Fe2           16.00    55.84500     Fe( 1.00)

     Starting magnetic structure 
     atomic species   magnetization
        Fe1          0.100
        Fe2          0.100

     16 Sym. Ops., with inversion, found



   Cartesian axes

     site n.     atom                  positions (alat units)
         1           Fe1 tau(   1) = (   0.0000000   0.0000000   0.0000000  )
         2           Fe2 tau(   2) = (   0.2512504   0.2500004   0.2500004  )
         3           Fe1 tau(   3) = (   0.0000000   0.0000000   0.5000000  )
         4           Fe2 tau(   4) = (   0.2512504   0.2500004   0.7499996  )
         5           Fe1 tau(   5) = (   0.0000000   0.5000000   0.0000000  )
         6           Fe2 tau(   6) = (   0.2512504   0.7499996   0.2500004  )
         7           Fe1 tau(   7) = (   0.0000000   0.5000000   0.5000000  )
         8           Fe2 tau(   8) = (   0.2512504   0.7499996   0.7499996  )
         9           Fe1 tau(   9) = (   0.5025000   0.0000000   0.0000000  )
        10           Fe2 tau(  10) = (   0.7537496   0.2500004   0.2500004  )
        11           Fe1 tau(  11) = (   0.5025000   0.0000000   0.5000000  )
        12           Fe2 tau(  12) = (   0.7537496   0.2500004   0.7499996  )
        13           Fe1 tau(  13) = (   0.5025000   0.5000000   0.0000000  )
        14           Fe2 tau(  14) = (   0.7537496   0.7499996   0.2500004  )
        15           Fe1 tau(  15) = (   0.5025000   0.5000000   0.5000000  )
        16           Fe2 tau(  16) = (   0.7537496   0.7499996   0.7499996  )

     number of k points=    75  Marzari-Vanderbilt smearing, width (Ry)=  0.0400
                       cart. coord. in units 2pi/alat
        k(    1) = (   0.0552792   0.0555556   0.0555556), wk =   0.0109739
        k(    2) = (   0.0552792   0.0555556   0.1666667), wk =   0.0219479
        k(    3) = (   0.0552792   0.0555556   0.2777778), wk =   0.0219479
        k(    4) = (   0.0552792   0.0555556   0.3888889), wk =   0.0219479
        k(    5) = (   0.0552792   0.0555556  -0.5000000), wk =   0.0109739
        k(    6) = (   0.0552792   0.1666667   0.1666667), wk =   0.0109739
        k(    7) = (   0.0552792   0.1666667   0.2777778), wk =   0.0219479
        k(    8) = (   0.0552792   0.1666667   0.3888889), wk =   0.0219479
        k(    9) = (   0.0552792   0.1666667  -0.5000000), wk =   0.0109739
        k(   10) = (   0.0552792   0.2777778   0.2777778), wk =   0.0109739
        k(   11) = (   0.0552792   0.2777778   0.3888889), wk =   0.0219479
        k(   12) = (   0.0552792   0.2777778  -0.5000000), wk =   0.0109739
        k(   13) = (   0.0552792   0.3888889   0.3888889), wk =   0.0109739
        k(   14) = (   0.0552792   0.3888889  -0.5000000), wk =   0.0109739
        k(   15) = (   0.0552792  -0.5000000  -0.5000000), wk =   0.0027435
        k(   16) = (   0.1658375   0.0555556   0.0555556), wk =   0.0109739
        k(   17) = (   0.1658375   0.0555556   0.1666667), wk =   0.0219479
        k(   18) = (   0.1658375   0.0555556   0.2777778), wk =   0.0219479
        k(   19) = (   0.1658375   0.0555556   0.3888889), wk =   0.0219479
        k(   20) = (   0.1658375   0.0555556  -0.5000000), wk =   0.0109739
        k(   21) = (   0.1658375   0.1666667   0.1666667), wk =   0.0109739
        k(   22) = (   0.1658375   0.1666667   0.2777778), wk =   0.0219479
        k(   23) = (   0.1658375   0.1666667   0.3888889), wk =   0.0219479
        k(   24) = (   0.1658375   0.1666667  -0.5000000), wk =   0.0109739
        k(   25) = (   0.1658375   0.2777778   0.2777778), wk =   0.0109739
        k(   26) = (   0.1658375   0.2777778   0.3888889), wk =   0.0219479
        k(   27) = (   0.1658375   0.2777778  -0.5000000), wk =   0.0109739
        k(   28) = (   0.1658375   0.3888889   0.3888889), wk =   0.0109739
        k(   29) = (   0.1658375   0.3888889  -0.5000000), wk =   0.0109739
        k(   30) = (   0.1658375  -0.5000000  -0.5000000), wk =   0.0027435
        k(   31) = (   0.2763958   0.0555556   0.0555556), wk =   0.0109739
        k(   32) = (   0.2763958   0.0555556   0.1666667), wk =   0.0219479
        k(   33) = (   0.2763958   0.0555556   0.2777778), wk =   0.0219479
        k(   34) = (   0.2763958   0.0555556   0.3888889), wk =   0.0219479
        k(   35) = (   0.2763958   0.0555556  -0.5000000), wk =   0.0109739
        k(   36) = (   0.2763958   0.1666667   0.1666667), wk =   0.0109739
        k(   37) = (   0.2763958   0.1666667   0.2777778), wk =   0.0219479
        k(   38) = (   0.2763958   0.1666667   0.3888889), wk =   0.0219479
        k(   39) = (   0.2763958   0.1666667  -0.5000000), wk =   0.0109739
        k(   40) = (   0.2763958   0.2777778   0.2777778), wk =   0.0109739
        k(   41) = (   0.2763958   0.2777778   0.3888889), wk =   0.0219479
        k(   42) = (   0.2763958   0.2777778  -0.5000000), wk =   0.0109739
        k(   43) = (   0.2763958   0.3888889   0.3888889), wk =   0.0109739
        k(   44) = (   0.2763958   0.3888889  -0.5000000), wk =   0.0109739
        k(   45) = (   0.2763958  -0.5000000  -0.5000000), wk =   0.0027435
        k(   46) = (   0.3869541   0.0555556   0.0555556), wk =   0.0109739
        k(   47) = (   0.3869541   0.0555556   0.1666667), wk =   0.0219479
        k(   48) = (   0.3869541   0.0555556   0.2777778), wk =   0.0219479
        k(   49) = (   0.3869541   0.0555556   0.3888889), wk =   0.0219479
        k(   50) = (   0.3869541   0.0555556  -0.5000000), wk =   0.0109739
        k(   51) = (   0.3869541   0.1666667   0.1666667), wk =   0.0109739
        k(   52) = (   0.3869541   0.1666667   0.2777778), wk =   0.0219479
        k(   53) = (   0.3869541   0.1666667   0.3888889), wk =   0.0219479
        k(   54) = (   0.3869541   0.1666667  -0.5000000), wk =   0.0109739
        k(   55) = (   0.3869541   0.2777778   0.2777778), wk =   0.0109739
        k(   56) = (   0.3869541   0.2777778   0.3888889), wk =   0.0219479
        k(   57) = (   0.3869541   0.2777778  -0.5000000), wk =   0.0109739
        k(   58) = (   0.3869541   0.3888889   0.3888889), wk =   0.0109739
        k(   59) = (   0.3869541   0.3888889  -0.5000000), wk =   0.0109739
        k(   60) = (   0.3869541  -0.5000000  -0.5000000), wk =   0.0027435
        k(   61) = (  -0.4975124   0.0555556   0.0555556), wk =   0.0054870
        k(   62) = (  -0.4975124   0.0555556   0.1666667), wk =   0.0109739
        k(   63) = (  -0.4975124   0.0555556   0.2777778), wk =   0.0109739
        k(   64) = (  -0.4975124   0.0555556   0.3888889), wk =   0.0109739
        k(   65) = (  -0.4975124   0.0555556  -0.5000000), wk =   0.0054870
        k(   66) = (  -0.4975124   0.1666667   0.1666667), wk =   0.0054870
        k(   67) = (  -0.4975124   0.1666667   0.2777778), wk =   0.0109739
        k(   68) = (  -0.4975124   0.1666667   0.3888889), wk =   0.0109739
        k(   69) = (  -0.4975124   0.1666667  -0.5000000), wk =   0.0054870
        k(   70) = (  -0.4975124   0.2777778   0.2777778), wk =   0.0054870
        k(   71) = (  -0.4975124   0.2777778   0.3888889), wk =   0.0109739
        k(   72) = (  -0.4975124   0.2777778  -0.5000000), wk =   0.0054870
        k(   73) = (  -0.4975124   0.3888889   0.3888889), wk =   0.0054870
        k(   74) = (  -0.4975124   0.3888889  -0.5000000), wk =   0.0054870
        k(   75) = (  -0.4975124  -0.5000000  -0.5000000), wk =   0.0013717

     Dense  grid:   179903 G-vectors     FFT dimensions: (  72,  72,  72)

     Smooth grid:    96681 G-vectors     FFT dimensions: (  60,  60,  60)

     Estimated max dynamical RAM per process >     145.29 MB

     Estimated total dynamical RAM >       5.68 GB
     Generating pointlists ...
     new r_m :   0.1789 (alat units)  1.8953 (a.u.) for type    1
     new r_m :   0.1789 (alat units)  1.8953 (a.u.) for type    2

     Check: negative/imaginary core charge=   -0.000006    0.000000

     Initial potential from superposition of free atoms

     starting charge  255.99300, renormalised to  256.00000
     Starting wfcs are  160 randomized atomic wfcs
     Checking if some PAW data can be deallocated... 

     total cpu time spent up to now is       14.9 secs

     Self-consistent Calculation

     iteration #  1     ecut=    71.00 Ry     beta= 0.10
     Davidson diagonalization with overlap
     ethr =  1.00E-02,  avg # of iterations =  3.3

     Threshold (ethr) on eigenvalues was too large:
     Diagonalizing with lowered threshold

     Davidson diagonalization with overlap
     ethr =  2.77E-04,  avg # of iterations =  3.4

     total cpu time spent up to now is      128.2 secs

     total energy              =   -5268.16483976 Ry
     Harris-Foulkes estimate   =   -5268.30834628 Ry
     estimated scf accuracy    <       0.80567474 Ry

     total magnetization       =    28.10 Bohr mag/cell
     absolute magnetization    =    28.45 Bohr mag/cell

     iteration #  2     ecut=    71.00 Ry     beta= 0.10
     Davidson diagonalization with overlap
     ethr =  3.15E-04,  avg # of iterations =  1.0

     total cpu time spent up to now is      161.6 secs

     total energy              =   -5268.05206922 Ry
     Harris-Foulkes estimate   =   -5268.18238003 Ry
     estimated scf accuracy    <       0.47994671 Ry

     total magnetization       =    28.74 Bohr mag/cell
     absolute magnetization    =    29.01 Bohr mag/cell

     iteration #  3     ecut=    71.00 Ry     beta= 0.10
     Davidson diagonalization with overlap
     ethr =  1.87E-04,  avg # of iterations =  2.6

     total cpu time spent up to now is      209.7 secs

     total energy              =   -5268.04263919 Ry
     Harris-Foulkes estimate   =   -5268.10428312 Ry
     estimated scf accuracy    <       0.55843973 Ry

     total magnetization       =    29.56 Bohr mag/cell
     absolute magnetization    =    29.90 Bohr mag/cell

     iteration #  4     ecut=    71.00 Ry     beta= 0.10
     Davidson diagonalization with overlap
     ethr =  1.87E-04,  avg # of iterations =  1.3

     total cpu time spent up to now is      245.5 secs

     total energy              =   -5268.06963221 Ry
     Harris-Foulkes estimate   =   -5268.07182222 Ry
     estimated scf accuracy    <       0.15832217 Ry

     total magnetization       =    30.29 Bohr mag/cell
     absolute magnetization    =    30.66 Bohr mag/cell

     iteration #  5     ecut=    71.00 Ry     beta= 0.10
     Davidson diagonalization with overlap
     ethr =  6.18E-05,  avg # of iterations =  1.5

     total cpu time spent up to now is      282.8 secs

     total energy              =   -5268.09037093 Ry
     Harris-Foulkes estimate   =   -5268.07319535 Ry
     estimated scf accuracy    <       0.11277389 Ry

     total magnetization       =    30.38 Bohr mag/cell
     absolute magnetization    =    30.77 Bohr mag/cell

     iteration #  6     ecut=    71.00 Ry     beta= 0.10
     Davidson diagonalization with overlap
     ethr =  4.41E-05,  avg # of iterations =  3.2

     total cpu time spent up to now is      345.3 secs

     total energy              =   -5268.14914929 Ry
     Harris-Foulkes estimate   =   -5268.13320445 Ry
     estimated scf accuracy    <       0.14943367 Ry

     total magnetization       =    31.01 Bohr mag/cell
     absolute magnetization    =    31.75 Bohr mag/cell

     iteration #  7     ecut=    71.00 Ry     beta= 0.10
     Davidson diagonalization with overlap
     ethr =  4.41E-05,  avg # of iterations =  2.0

     total cpu time spent up to now is      387.6 secs

     total energy              =   -5268.15391082 Ry
     Harris-Foulkes estimate   =   -5268.15623204 Ry
     estimated scf accuracy    <       0.10807668 Ry

     total magnetization       =    31.51 Bohr mag/cell
     absolute magnetization    =    32.42 Bohr mag/cell

     iteration #  8     ecut=    71.00 Ry     beta= 0.10
     Davidson diagonalization with overlap
     ethr =  4.22E-05,  avg # of iterations =  1.0

     negative rho (up, down):  0.000E+00 2.080E-03

     total cpu time spent up to now is      421.3 secs

     total energy              =   -5268.16985520 Ry
     Harris-Foulkes estimate   =   -5268.15503386 Ry
     estimated scf accuracy    <       0.08308940 Ry

     total magnetization       =    31.63 Bohr mag/cell
     absolute magnetization    =    32.60 Bohr mag/cell

     iteration #  9     ecut=    71.00 Ry     beta= 0.10
     Davidson diagonalization with overlap
     ethr =  3.25E-05,  avg # of iterations =  2.7

     negative rho (up, down):  0.000E+00 2.332E-03

     total cpu time spent up to now is      477.2 secs

     total energy              =   -5268.19244088 Ry
     Harris-Foulkes estimate   =   -5268.19224510 Ry
     estimated scf accuracy    <       0.02936877 Ry

     total magnetization       =    32.50 Bohr mag/cell
     absolute magnetization    =    33.97 Bohr mag/cell

     iteration # 10     ecut=    71.00 Ry     beta= 0.10
     Davidson diagonalization with overlap
     ethr =  1.15E-05,  avg # of iterations =  1.2

     negative rho (up, down):  0.000E+00 2.479E-03

     total cpu time spent up to now is      512.4 secs

     total energy              =   -5268.18952990 Ry
     Harris-Foulkes estimate   =   -5268.19298427 Ry
     estimated scf accuracy    <       0.01494392 Ry

     total magnetization       =    32.60 Bohr mag/cell
     absolute magnetization    =    34.12 Bohr mag/cell

     iteration # 11     ecut=    71.00 Ry     beta= 0.10
     Davidson diagonalization with overlap
     ethr =  5.84E-06,  avg # of iterations =  2.2

     negative rho (up, down):  0.000E+00 2.590E-03

     total cpu time spent up to now is      556.8 secs

     total energy              =   -5268.19009609 Ry
     Harris-Foulkes estimate   =   -5268.19033069 Ry
     estimated scf accuracy    <       0.00136255 Ry

     total magnetization       =    32.73 Bohr mag/cell
     absolute magnetization    =    34.36 Bohr mag/cell

     iteration # 12     ecut=    71.00 Ry     beta= 0.10
     Davidson diagonalization with overlap
     ethr =  5.32E-07,  avg # of iterations =  3.0

     negative rho (up, down):  0.000E+00 2.662E-03

     total cpu time spent up to now is      607.4 secs

     total energy              =   -5268.19031450 Ry
     Harris-Foulkes estimate   =   -5268.19021707 Ry
     estimated scf accuracy    <       0.00065633 Ry

     total magnetization       =    32.79 Bohr mag/cell
     absolute magnetization    =    34.47 Bohr mag/cell

     iteration # 13     ecut=    71.00 Ry     beta= 0.10
     Davidson diagonalization with overlap
     ethr =  2.56E-07,  avg # of iterations =  2.4

     negative rho (up, down):  0.000E+00 2.471E-03

     total cpu time spent up to now is      652.0 secs

     total energy              =   -5268.19060923 Ry
     Harris-Foulkes estimate   =   -5268.19037463 Ry
     estimated scf accuracy    <       0.00068449 Ry

     total magnetization       =    32.84 Bohr mag/cell
     absolute magnetization    =    34.55 Bohr mag/cell

     iteration # 14     ecut=    71.00 Ry     beta= 0.10
     Davidson diagonalization with overlap
     ethr =  2.56E-07,  avg # of iterations =  2.7

     negative rho (up, down):  0.000E+00 2.434E-03

     total cpu time spent up to now is      704.4 secs

     total energy              =   -5268.19088053 Ry
     Harris-Foulkes estimate   =   -5268.19080265 Ry
     estimated scf accuracy    <       0.00037592 Ry

     total magnetization       =    32.87 Bohr mag/cell
     absolute magnetization    =    34.61 Bohr mag/cell

     iteration # 15     ecut=    71.00 Ry     beta= 0.10
     Davidson diagonalization with overlap
     ethr =  1.47E-07,  avg # of iterations =  1.7

     negative rho (up, down):  0.000E+00 2.510E-03

     total cpu time spent up to now is      743.6 secs

     total energy              =   -5268.19088543 Ry
     Harris-Foulkes estimate   =   -5268.19090641 Ry
     estimated scf accuracy    <       0.00016586 Ry

     total magnetization       =    32.89 Bohr mag/cell
     absolute magnetization    =    34.63 Bohr mag/cell

     iteration # 16     ecut=    71.00 Ry     beta= 0.10
     Davidson diagonalization with overlap
     ethr =  6.48E-08,  avg # of iterations =  2.2

     negative rho (up, down):  0.000E+00 2.364E-03

     total cpu time spent up to now is      790.7 secs

     total energy              =   -5268.19090476 Ry
     Harris-Foulkes estimate   =   -5268.19091048 Ry
     estimated scf accuracy    <       0.00007152 Ry

     total magnetization       =    32.92 Bohr mag/cell
     absolute magnetization    =    34.70 Bohr mag/cell

     iteration # 17     ecut=    71.00 Ry     beta= 0.10
     Davidson diagonalization with overlap
     ethr =  2.79E-08,  avg # of iterations =  3.2

     negative rho (up, down):  0.000E+00 2.431E-03

     total cpu time spent up to now is      857.4 secs

     total energy              =   -5268.19097225 Ry
     Harris-Foulkes estimate   =   -5268.19096072 Ry
     estimated scf accuracy    <       0.00005863 Ry

     total magnetization       =    32.93 Bohr mag/cell
     absolute magnetization    =    34.69 Bohr mag/cell

     iteration # 18     ecut=    71.00 Ry     beta= 0.10
     Davidson diagonalization with overlap
     ethr =  2.29E-08,  avg # of iterations =  2.7

     negative rho (up, down):  0.000E+00 2.478E-03

     total cpu time spent up to now is      909.4 secs

     total energy              =   -5268.19098151 Ry
     Harris-Foulkes estimate   =   -5268.19098133 Ry
     estimated scf accuracy    <       0.00002239 Ry

     total magnetization       =    32.95 Bohr mag/cell
     absolute magnetization    =    34.73 Bohr mag/cell

     iteration # 19     ecut=    71.00 Ry     beta= 0.10
     Davidson diagonalization with overlap
     ethr =  8.74E-09,  avg # of iterations =  3.0

     negative rho (up, down):  0.000E+00 2.489E-03

     total cpu time spent up to now is      965.1 secs

     total energy              =   -5268.19098778 Ry
     Harris-Foulkes estimate   =   -5268.19098624 Ry
     estimated scf accuracy    <       0.00000928 Ry

     total magnetization       =    32.97 Bohr mag/cell
     absolute magnetization    =    34.76 Bohr mag/cell

     iteration # 20     ecut=    71.00 Ry     beta= 0.10
     Davidson diagonalization with overlap
     ethr =  3.62E-09,  avg # of iterations =  1.2

     negative rho (up, down):  0.000E+00 2.486E-03

     total cpu time spent up to now is     1001.7 secs

     total energy              =   -5268.19099127 Ry
     Harris-Foulkes estimate   =   -5268.19098806 Ry
     estimated scf accuracy    <       0.00000649 Ry

     total magnetization       =    32.98 Bohr mag/cell
     absolute magnetization    =    34.77 Bohr mag/cell

     iteration # 21     ecut=    71.00 Ry     beta= 0.10
     Davidson diagonalization with overlap
     ethr =  2.53E-09,  avg # of iterations =  2.4

     negative rho (up, down):  0.000E+00 2.483E-03

     total cpu time spent up to now is     1047.5 secs

     total energy              =   -5268.19099393 Ry
     Harris-Foulkes estimate   =   -5268.19099239 Ry
     estimated scf accuracy    <       0.00000354 Ry

     total magnetization       =    32.99 Bohr mag/cell
     absolute magnetization    =    34.78 Bohr mag/cell

     iteration # 22     ecut=    71.00 Ry     beta= 0.10
     Davidson diagonalization with overlap
     ethr =  1.38E-09,  avg # of iterations =  2.5

     negative rho (up, down):  0.000E+00 2.480E-03

     total cpu time spent up to now is     1093.4 secs

     total energy              =   -5268.19099504 Ry
     Harris-Foulkes estimate   =   -5268.19099445 Ry
     estimated scf accuracy    <       0.00000114 Ry

     total magnetization       =    32.99 Bohr mag/cell
     absolute magnetization    =    34.78 Bohr mag/cell

     iteration # 23     ecut=    71.00 Ry     beta= 0.10
     Davidson diagonalization with overlap
     ethr =  4.46E-10,  avg # of iterations =  2.7

     negative rho (up, down):  0.000E+00 2.493E-03
 
     Magnetic moment per site:
     atom:    1    charge:   14.3705    magn:    2.1060    constr:    0.0000
     atom:    2    charge:   14.3705    magn:    2.1084    constr:    0.0000
     atom:    3    charge:   14.3705    magn:    2.1069    constr:    0.0000
     atom:    4    charge:   14.3705    magn:    2.1084    constr:    0.0000
     atom:    5    charge:   14.3705    magn:    2.1069    constr:    0.0000
     atom:    6    charge:   14.3705    magn:    2.1084    constr:    0.0000
     atom:    7    charge:   14.3704    magn:    2.1075    constr:    0.0000
     atom:    8    charge:   14.3705    magn:    2.1084    constr:    0.0000
     atom:    9    charge:   14.3706    magn:    2.1049    constr:    0.0000
     atom:   10    charge:   14.3705    magn:    2.1084    constr:    0.0000
     atom:   11    charge:   14.3706    magn:    2.1056    constr:    0.0000
     atom:   12    charge:   14.3705    magn:    2.1084    constr:    0.0000
     atom:   13    charge:   14.3706    magn:    2.1056    constr:    0.0000
     atom:   14    charge:   14.3705    magn:    2.1084    constr:    0.0000
     atom:   15    charge:   14.3704    magn:    2.1063    constr:    0.0000
     atom:   16    charge:   14.3705    magn:    2.1084    constr:    0.0000

     total cpu time spent up to now is     1140.3 secs

     End of self-consistent calculation

     Number of k-points >= 100: set verbosity='high' to print the bands.

     the Fermi energy is    18.8550 ev

!    total energy              =   -5268.19099733 Ry
     Harris-Foulkes estimate   =   -5268.19099513 Ry
     estimated scf accuracy    <       0.00000055 Ry

     total all-electron energy =    -40728.935526 Ry

     The total energy is the sum of the following terms:

     one-electron contribution =   -1714.82900065 Ry
     hartree contribution      =    1024.94206376 Ry
     xc contribution           =    -444.20655923 Ry
     ewald contribution        =   -2809.55393331 Ry
     one-center paw contrib.   =   -1324.66997327 Ry
     smearing contrib. (-TS)   =       0.12640537 Ry

     total magnetization       =    32.99 Bohr mag/cell
     absolute magnetization    =    34.78 Bohr mag/cell

     convergence has been achieved in  23 iterations

     negative rho (up, down):  0.000E+00 2.493E-03

     Forces acting on atoms (cartesian axes, Ry/au):

     atom    1 type  1   force =     0.00000000    0.00000000    0.00000000
     atom    2 type  2   force =    -0.00004572    0.00014034    0.00014034
     atom    3 type  1   force =     0.00000000    0.00000000    0.00000000
     atom    4 type  2   force =    -0.00004572    0.00014034   -0.00014034
     atom    5 type  1   force =     0.00000000    0.00000000   -0.00000000
     atom    6 type  2   force =    -0.00004572   -0.00014034    0.00014034
     atom    7 type  1   force =     0.00000000    0.00000000    0.00000000
     atom    8 type  2   force =    -0.00004572   -0.00014034   -0.00014034
     atom    9 type  1   force =     0.00000000    0.00000000    0.00000000
     atom   10 type  2   force =     0.00004572    0.00014034    0.00014034
     atom   11 type  1   force =     0.00000000    0.00000000    0.00000000
     atom   12 type  2   force =     0.00004572    0.00014034   -0.00014034
     atom   13 type  1   force =     0.00000000    0.00000000    0.00000000
     atom   14 type  2   force =     0.00004572   -0.00014034    0.00014034
     atom   15 type  1   force =     0.00000000    0.00000000    0.00000000
     atom   16 type  2   force =     0.00004572   -0.00014034   -0.00014034

     Total force =     0.000576     Total SCF correction =     0.004474
     SCF correction compared to forces is large: reduce conv_thr to get better values


     Computing stress (Cartesian axis) and pressure


     negative rho (up, down):  0.000E+00 2.493E-03
          total   stress  (Ry/bohr**3)                   (kbar)     P=  -14.15
  -0.00012499   0.00000000   0.00000000        -18.39      0.00      0.00
   0.00000000  -0.00008183   0.00000000          0.00    -12.04      0.00
   0.00000000   0.00000000  -0.00008183          0.00      0.00    -12.04


     Writing output data file TwHBhMMcWSVRYfRF.save/
 
     init_run     :     13.01s CPU     13.62s WALL (       1 calls)
     electrons    :   1092.57s CPU   1125.42s WALL (       1 calls)
     forces       :      4.71s CPU      5.12s WALL (       1 calls)
     stress       :     12.95s CPU     13.10s WALL (       1 calls)

     Called by init_run:
     wfcinit      :     12.55s CPU     13.04s WALL (       1 calls)
     potinit      :      0.23s CPU      0.26s WALL (       1 calls)
     hinit0       :      0.10s CPU      0.11s WALL (       1 calls)

     Called by electrons:
     c_bands      :    985.86s CPU   1013.02s WALL (      24 calls)
     sum_band     :    101.88s CPU    107.08s WALL (      24 calls)
     v_of_rho     :      0.36s CPU      0.37s WALL (      24 calls)
     newd         :      0.79s CPU      0.99s WALL (      24 calls)
     PAW_pot      :      3.65s CPU      3.86s WALL (      24 calls)
     mix_rho      :      0.13s CPU      0.14s WALL (      24 calls)

     Called by c_bands:
     init_us_2    :      5.50s CPU      5.57s WALL (    7650 calls)
     cegterg      :    959.42s CPU    986.31s WALL (    3600 calls)

     Called by sum_band:
     sum_band:bec :      1.53s CPU      1.55s WALL (    3600 calls)
     addusdens    :      1.34s CPU      1.53s WALL (      24 calls)

     Called by *egterg:
     h_psi        :    405.72s CPU    422.21s WALL (   12050 calls)
     s_psi        :     22.10s CPU     22.24s WALL (   12050 calls)
     g_psi        :      0.92s CPU      0.93s WALL (    8300 calls)
     cdiaghg      :    434.94s CPU    436.29s WALL (   11750 calls)

     Called by h_psi:
     h_psi:pot    :    403.35s CPU    419.81s WALL (   12050 calls)
     h_psi:calbec :     33.26s CPU     38.47s WALL (   12050 calls)
     vloc_psi     :    347.71s CPU    358.83s WALL (   12050 calls)
     add_vuspsi   :     22.28s CPU     22.44s WALL (   12050 calls)

     General routines
     calbec       :     50.16s CPU     58.15s WALL (   16400 calls)
     fft          :      0.43s CPU      0.46s WALL (     642 calls)
     ffts         :      0.07s CPU      0.25s WALL (      96 calls)
     fftw         :    404.26s CPU    417.14s WALL ( 3029354 calls)
     interpolate  :      0.10s CPU      0.18s WALL (      48 calls)
 
     Parallel routines
     fft_scatt_xy :     26.28s CPU     27.12s WALL ( 3030092 calls)
     fft_scatt_yz :    272.53s CPU    281.46s WALL ( 3030092 calls)
 
     PWSCF        : 18m52.63s CPU    19m52.81s WALL

 
   This run was terminated on:  12:50:19   9Sep2020            

=------------------------------------------------------------------------------=
   JOB DONE.
=------------------------------------------------------------------------------=
