--------------------------------------------------------------------------
WARNING: No preset parameters were found for the device that Open MPI
detected:

  Local host:            bear-pg0206u39a
  Device name:           mlx5_0
  Device vendor ID:      0x02c9
  Device vendor part ID: 4123

Default device parameters will be used, which may result in lower
performance.  You can edit any of the files specified by the
btl_openib_device_param_files MCA parameter to set values for your
device.

NOTE: You can turn off this warning by setting the MCA parameter
      btl_openib_warn_no_device_params_found to 0.
--------------------------------------------------------------------------
--------------------------------------------------------------------------
WARNING: There was an error initializing an OpenFabrics device.

  Local host:   bear-pg0206u39a
  Local device: mlx5_0
--------------------------------------------------------------------------

     Program PWSCF v.6.3 starts on  9Sep2020 at 12:11: 0 

     This program is part of the open-source Quantum ESPRESSO suite
     for quantum simulation of materials; please cite
         "P. Giannozzi et al., J. Phys.:Condens. Matter 21 395502 (2009);
         "P. Giannozzi et al., J. Phys.:Condens. Matter 29 465901 (2017);
          URL http://www.quantum-espresso.org", 
     in publications or presentations arising from this work. More details at
     http://www.quantum-espresso.org/quote

     Parallel version (MPI & OpenMP), running on      40 processor cores
     Number of MPI processes:                40
     Threads/MPI process:                     1

     MPI processes distributed on     1 nodes
     R & G space division:  proc/nbgrp/npool/nimage =      40
     Reading input from wd/ec/ec_1_006.in
Warning: card &IONS ignored
Warning: card ION_DYNAMICS = 'BFGS', ignored
Warning: card / ignored
Warning: card &CELL ignored
Warning: card CELL_DYNAMICS = 'BFGS', ignored
Warning: card CELL_FACTOR = 2.0, ignored
Warning: card PRESS = 0.0, ignored
Warning: card / ignored

     Current dimensions of program PWSCF are:
     Max number of different atomic species (ntypx) = 10
     Max number of k-points (npk) =  40000
     Max angular momentum in pseudopotentials (lmaxx) =  3
               file Fe.pbe-spn-kjpaw_psl.1.0.0.UPF: wavefunction(s)  3P 3D renormalized
               file Fe.pbe-spn-kjpaw_psl.1.0.0.UPF: wavefunction(s)  3P 3D renormalized

     Subspace diagonalization in iterative solution of the eigenvalue problem:
     a serial algorithm will be used

     Found symmetry operation: I + (  0.0000  0.0000 -0.5000)
     This is a supercell, fractional translations are disabled
 
     Parallelization info
     --------------------
     sticks:   dense  smooth     PW     G-vecs:    dense   smooth      PW
     Min          96      63     18                 4492     2411     358
     Max          97      64     19                 4495     2416     362
     Sum        3859    2553    721               179703    96553   14379
 


     bravais-lattice index     =            0
     lattice parameter (alat)  =      10.5935  a.u.
     unit-cell volume          =    1193.7864 (a.u.)^3
     number of atoms/cell      =           16
     number of atomic types    =            2
     number of electrons       =       256.00
     number of Kohn-Sham states=          154
     kinetic-energy cutoff     =      71.0000  Ry
     charge density cutoff     =     430.0000  Ry
     convergence threshold     =      1.0E-06
     mixing beta               =       0.1000
     number of iterations used =           10  plain     mixing
     Exchange-correlation      = SLA PW PBX PBC ( 1  4  3  4 0 0)

     celldm(1)=  10.593520  celldm(2)=   0.000000  celldm(3)=   0.000000
     celldm(4)=   0.000000  celldm(5)=   0.000000  celldm(6)=   0.000000

     crystal axes: (cart. coord. in units of alat)
               a(1) = (   1.004167   0.000000   0.000000 )  
               a(2) = (   0.000000   1.000000   0.000000 )  
               a(3) = (   0.000000   0.000000   1.000000 )  

     reciprocal axes: (cart. coord. in units 2 pi/alat)
               b(1) = (  0.995851  0.000000  0.000000 )  
               b(2) = (  0.000000  1.000000  0.000000 )  
               b(3) = (  0.000000  0.000000  1.000000 )  


     PseudoPot. # 1 for Fe read from file:
     /rds/homes/b/bxp912/pp/Fe.pbe-spn-kjpaw_psl.1.0.0.UPF
     MD5 check sum: 42f43b795421b414b0dc916aa790dbcb
     Pseudo is Projector augmented-wave + core cor, Zval = 16.0
     Generated using "atomic" code by A. Dal Corso v.6.3
     Shape of augmentation charge: PSQ
     Using radial grid of 1191 points,  6 beta functions with: 
                l(1) =   0
                l(2) =   0
                l(3) =   1
                l(4) =   1
                l(5) =   2
                l(6) =   2
     Q(r) pseudized with 0 coefficients 


     PseudoPot. # 2 for Fe read from file:
     /rds/homes/b/bxp912/pp/Fe.pbe-spn-kjpaw_psl.1.0.0.UPF
     MD5 check sum: 42f43b795421b414b0dc916aa790dbcb
     Pseudo is Projector augmented-wave + core cor, Zval = 16.0
     Generated using "atomic" code by A. Dal Corso v.6.3
     Shape of augmentation charge: PSQ
     Using radial grid of 1191 points,  6 beta functions with: 
                l(1) =   0
                l(2) =   0
                l(3) =   1
                l(4) =   1
                l(5) =   2
                l(6) =   2
     Q(r) pseudized with 0 coefficients 


     atomic species   valence    mass     pseudopotential
        Fe1           16.00    55.84500     Fe( 1.00)
        Fe2           16.00    55.84500     Fe( 1.00)

     Starting magnetic structure 
     atomic species   magnetization
        Fe1          0.100
        Fe2          0.100

     16 Sym. Ops., with inversion, found



   Cartesian axes

     site n.     atom                  positions (alat units)
         1           Fe1 tau(   1) = (   0.0000000   0.0000000   0.0000000  )
         2           Fe2 tau(   2) = (   0.2510421   0.2500004   0.2500004  )
         3           Fe1 tau(   3) = (   0.0000000   0.0000000   0.5000000  )
         4           Fe2 tau(   4) = (   0.2510421   0.2500004   0.7499996  )
         5           Fe1 tau(   5) = (   0.0000000   0.5000000   0.0000000  )
         6           Fe2 tau(   6) = (   0.2510421   0.7499996   0.2500004  )
         7           Fe1 tau(   7) = (   0.0000000   0.5000000   0.5000000  )
         8           Fe2 tau(   8) = (   0.2510421   0.7499996   0.7499996  )
         9           Fe1 tau(   9) = (   0.5020833   0.0000000   0.0000000  )
        10           Fe2 tau(  10) = (   0.7531246   0.2500004   0.2500004  )
        11           Fe1 tau(  11) = (   0.5020833   0.0000000   0.5000000  )
        12           Fe2 tau(  12) = (   0.7531246   0.2500004   0.7499996  )
        13           Fe1 tau(  13) = (   0.5020833   0.5000000   0.0000000  )
        14           Fe2 tau(  14) = (   0.7531246   0.7499996   0.2500004  )
        15           Fe1 tau(  15) = (   0.5020833   0.5000000   0.5000000  )
        16           Fe2 tau(  16) = (   0.7531246   0.7499996   0.7499996  )

     number of k points=    75  Marzari-Vanderbilt smearing, width (Ry)=  0.0400
                       cart. coord. in units 2pi/alat
        k(    1) = (   0.0553250   0.0555556   0.0555556), wk =   0.0109739
        k(    2) = (   0.0553250   0.0555556   0.1666667), wk =   0.0219479
        k(    3) = (   0.0553250   0.0555556   0.2777778), wk =   0.0219479
        k(    4) = (   0.0553250   0.0555556   0.3888889), wk =   0.0219479
        k(    5) = (   0.0553250   0.0555556  -0.5000000), wk =   0.0109739
        k(    6) = (   0.0553250   0.1666667   0.1666667), wk =   0.0109739
        k(    7) = (   0.0553250   0.1666667   0.2777778), wk =   0.0219479
        k(    8) = (   0.0553250   0.1666667   0.3888889), wk =   0.0219479
        k(    9) = (   0.0553250   0.1666667  -0.5000000), wk =   0.0109739
        k(   10) = (   0.0553250   0.2777778   0.2777778), wk =   0.0109739
        k(   11) = (   0.0553250   0.2777778   0.3888889), wk =   0.0219479
        k(   12) = (   0.0553250   0.2777778  -0.5000000), wk =   0.0109739
        k(   13) = (   0.0553250   0.3888889   0.3888889), wk =   0.0109739
        k(   14) = (   0.0553250   0.3888889  -0.5000000), wk =   0.0109739
        k(   15) = (   0.0553250  -0.5000000  -0.5000000), wk =   0.0027435
        k(   16) = (   0.1659751   0.0555556   0.0555556), wk =   0.0109739
        k(   17) = (   0.1659751   0.0555556   0.1666667), wk =   0.0219479
        k(   18) = (   0.1659751   0.0555556   0.2777778), wk =   0.0219479
        k(   19) = (   0.1659751   0.0555556   0.3888889), wk =   0.0219479
        k(   20) = (   0.1659751   0.0555556  -0.5000000), wk =   0.0109739
        k(   21) = (   0.1659751   0.1666667   0.1666667), wk =   0.0109739
        k(   22) = (   0.1659751   0.1666667   0.2777778), wk =   0.0219479
        k(   23) = (   0.1659751   0.1666667   0.3888889), wk =   0.0219479
        k(   24) = (   0.1659751   0.1666667  -0.5000000), wk =   0.0109739
        k(   25) = (   0.1659751   0.2777778   0.2777778), wk =   0.0109739
        k(   26) = (   0.1659751   0.2777778   0.3888889), wk =   0.0219479
        k(   27) = (   0.1659751   0.2777778  -0.5000000), wk =   0.0109739
        k(   28) = (   0.1659751   0.3888889   0.3888889), wk =   0.0109739
        k(   29) = (   0.1659751   0.3888889  -0.5000000), wk =   0.0109739
        k(   30) = (   0.1659751  -0.5000000  -0.5000000), wk =   0.0027435
        k(   31) = (   0.2766252   0.0555556   0.0555556), wk =   0.0109739
        k(   32) = (   0.2766252   0.0555556   0.1666667), wk =   0.0219479
        k(   33) = (   0.2766252   0.0555556   0.2777778), wk =   0.0219479
        k(   34) = (   0.2766252   0.0555556   0.3888889), wk =   0.0219479
        k(   35) = (   0.2766252   0.0555556  -0.5000000), wk =   0.0109739
        k(   36) = (   0.2766252   0.1666667   0.1666667), wk =   0.0109739
        k(   37) = (   0.2766252   0.1666667   0.2777778), wk =   0.0219479
        k(   38) = (   0.2766252   0.1666667   0.3888889), wk =   0.0219479
        k(   39) = (   0.2766252   0.1666667  -0.5000000), wk =   0.0109739
        k(   40) = (   0.2766252   0.2777778   0.2777778), wk =   0.0109739
        k(   41) = (   0.2766252   0.2777778   0.3888889), wk =   0.0219479
        k(   42) = (   0.2766252   0.2777778  -0.5000000), wk =   0.0109739
        k(   43) = (   0.2766252   0.3888889   0.3888889), wk =   0.0109739
        k(   44) = (   0.2766252   0.3888889  -0.5000000), wk =   0.0109739
        k(   45) = (   0.2766252  -0.5000000  -0.5000000), wk =   0.0027435
        k(   46) = (   0.3872752   0.0555556   0.0555556), wk =   0.0109739
        k(   47) = (   0.3872752   0.0555556   0.1666667), wk =   0.0219479
        k(   48) = (   0.3872752   0.0555556   0.2777778), wk =   0.0219479
        k(   49) = (   0.3872752   0.0555556   0.3888889), wk =   0.0219479
        k(   50) = (   0.3872752   0.0555556  -0.5000000), wk =   0.0109739
        k(   51) = (   0.3872752   0.1666667   0.1666667), wk =   0.0109739
        k(   52) = (   0.3872752   0.1666667   0.2777778), wk =   0.0219479
        k(   53) = (   0.3872752   0.1666667   0.3888889), wk =   0.0219479
        k(   54) = (   0.3872752   0.1666667  -0.5000000), wk =   0.0109739
        k(   55) = (   0.3872752   0.2777778   0.2777778), wk =   0.0109739
        k(   56) = (   0.3872752   0.2777778   0.3888889), wk =   0.0219479
        k(   57) = (   0.3872752   0.2777778  -0.5000000), wk =   0.0109739
        k(   58) = (   0.3872752   0.3888889   0.3888889), wk =   0.0109739
        k(   59) = (   0.3872752   0.3888889  -0.5000000), wk =   0.0109739
        k(   60) = (   0.3872752  -0.5000000  -0.5000000), wk =   0.0027435
        k(   61) = (  -0.4979253   0.0555556   0.0555556), wk =   0.0054870
        k(   62) = (  -0.4979253   0.0555556   0.1666667), wk =   0.0109739
        k(   63) = (  -0.4979253   0.0555556   0.2777778), wk =   0.0109739
        k(   64) = (  -0.4979253   0.0555556   0.3888889), wk =   0.0109739
        k(   65) = (  -0.4979253   0.0555556  -0.5000000), wk =   0.0054870
        k(   66) = (  -0.4979253   0.1666667   0.1666667), wk =   0.0054870
        k(   67) = (  -0.4979253   0.1666667   0.2777778), wk =   0.0109739
        k(   68) = (  -0.4979253   0.1666667   0.3888889), wk =   0.0109739
        k(   69) = (  -0.4979253   0.1666667  -0.5000000), wk =   0.0054870
        k(   70) = (  -0.4979253   0.2777778   0.2777778), wk =   0.0054870
        k(   71) = (  -0.4979253   0.2777778   0.3888889), wk =   0.0109739
        k(   72) = (  -0.4979253   0.2777778  -0.5000000), wk =   0.0054870
        k(   73) = (  -0.4979253   0.3888889   0.3888889), wk =   0.0054870
        k(   74) = (  -0.4979253   0.3888889  -0.5000000), wk =   0.0054870
        k(   75) = (  -0.4979253  -0.5000000  -0.5000000), wk =   0.0013717

     Dense  grid:   179703 G-vectors     FFT dimensions: (  72,  72,  72)

     Smooth grid:    96553 G-vectors     FFT dimensions: (  60,  60,  60)

     Estimated max dynamical RAM per process >     145.29 MB

     Estimated total dynamical RAM >       5.68 GB
     Generating pointlists ...
     new r_m :   0.1789 (alat units)  1.8948 (a.u.) for type    1
     new r_m :   0.1789 (alat units)  1.8948 (a.u.) for type    2

     Check: negative/imaginary core charge=   -0.000006    0.000000

     Initial potential from superposition of free atoms

     starting charge  255.99300, renormalised to  256.00000
     Starting wfcs are  160 randomized atomic wfcs
     Checking if some PAW data can be deallocated... 

     total cpu time spent up to now is       15.0 secs

     Self-consistent Calculation

     iteration #  1     ecut=    71.00 Ry     beta= 0.10
     Davidson diagonalization with overlap
     ethr =  1.00E-02,  avg # of iterations =  3.4

     Threshold (ethr) on eigenvalues was too large:
     Diagonalizing with lowered threshold

     Davidson diagonalization with overlap
     ethr =  2.78E-04,  avg # of iterations =  3.3

     total cpu time spent up to now is      127.2 secs

     total energy              =   -5268.16515890 Ry
     Harris-Foulkes estimate   =   -5268.30898117 Ry
     estimated scf accuracy    <       0.80719040 Ry

     total magnetization       =    28.09 Bohr mag/cell
     absolute magnetization    =    28.43 Bohr mag/cell

     iteration #  2     ecut=    71.00 Ry     beta= 0.10
     Davidson diagonalization with overlap
     ethr =  3.15E-04,  avg # of iterations =  1.0

     total cpu time spent up to now is      161.2 secs

     total energy              =   -5268.05186932 Ry
     Harris-Foulkes estimate   =   -5268.18270966 Ry
     estimated scf accuracy    <       0.48052817 Ry

     total magnetization       =    28.72 Bohr mag/cell
     absolute magnetization    =    29.00 Bohr mag/cell

     iteration #  3     ecut=    71.00 Ry     beta= 0.10
     Davidson diagonalization with overlap
     ethr =  1.88E-04,  avg # of iterations =  2.6

     total cpu time spent up to now is      209.2 secs

     total energy              =   -5268.04257792 Ry
     Harris-Foulkes estimate   =   -5268.10423132 Ry
     estimated scf accuracy    <       0.55815531 Ry

     total magnetization       =    29.55 Bohr mag/cell
     absolute magnetization    =    29.89 Bohr mag/cell

     iteration #  4     ecut=    71.00 Ry     beta= 0.10
     Davidson diagonalization with overlap
     ethr =  1.88E-04,  avg # of iterations =  1.4

     total cpu time spent up to now is      246.4 secs

     total energy              =   -5268.06960791 Ry
     Harris-Foulkes estimate   =   -5268.07181314 Ry
     estimated scf accuracy    <       0.15829976 Ry

     total magnetization       =    30.28 Bohr mag/cell
     absolute magnetization    =    30.65 Bohr mag/cell

     iteration #  5     ecut=    71.00 Ry     beta= 0.10
     Davidson diagonalization with overlap
     ethr =  6.18E-05,  avg # of iterations =  1.6

     total cpu time spent up to now is      284.6 secs

     total energy              =   -5268.09019518 Ry
     Harris-Foulkes estimate   =   -5268.07316051 Ry
     estimated scf accuracy    <       0.11262299 Ry

     total magnetization       =    30.36 Bohr mag/cell
     absolute magnetization    =    30.76 Bohr mag/cell

     iteration #  6     ecut=    71.00 Ry     beta= 0.10
     Davidson diagonalization with overlap
     ethr =  4.40E-05,  avg # of iterations =  3.2

     total cpu time spent up to now is      347.0 secs

     total energy              =   -5268.14885881 Ry
     Harris-Foulkes estimate   =   -5268.13279383 Ry
     estimated scf accuracy    <       0.14921022 Ry

     total magnetization       =    31.00 Bohr mag/cell
     absolute magnetization    =    31.73 Bohr mag/cell

     iteration #  7     ecut=    71.00 Ry     beta= 0.10
     Davidson diagonalization with overlap
     ethr =  4.40E-05,  avg # of iterations =  2.0

     total cpu time spent up to now is      391.3 secs

     total energy              =   -5268.15365027 Ry
     Harris-Foulkes estimate   =   -5268.15599216 Ry
     estimated scf accuracy    <       0.10826699 Ry

     total magnetization       =    31.49 Bohr mag/cell
     absolute magnetization    =    32.41 Bohr mag/cell

     iteration #  8     ecut=    71.00 Ry     beta= 0.10
     Davidson diagonalization with overlap
     ethr =  4.23E-05,  avg # of iterations =  1.0

     negative rho (up, down):  0.000E+00 2.178E-03

     total cpu time spent up to now is      425.1 secs

     total energy              =   -5268.16910394 Ry
     Harris-Foulkes estimate   =   -5268.15476953 Ry
     estimated scf accuracy    <       0.08321445 Ry

     total magnetization       =    31.61 Bohr mag/cell
     absolute magnetization    =    32.59 Bohr mag/cell

     iteration #  9     ecut=    71.00 Ry     beta= 0.10
     Davidson diagonalization with overlap
     ethr =  3.25E-05,  avg # of iterations =  2.7

     negative rho (up, down):  0.000E+00 2.333E-03

     total cpu time spent up to now is      481.1 secs

     total energy              =   -5268.19229553 Ry
     Harris-Foulkes estimate   =   -5268.19306451 Ry
     estimated scf accuracy    <       0.02637927 Ry

     total magnetization       =    32.51 Bohr mag/cell
     absolute magnetization    =    34.00 Bohr mag/cell

     iteration # 10     ecut=    71.00 Ry     beta= 0.10
     Davidson diagonalization with overlap
     ethr =  1.03E-05,  avg # of iterations =  1.1

     negative rho (up, down):  0.000E+00 2.487E-03

     total cpu time spent up to now is      515.6 secs

     total energy              =   -5268.18950705 Ry
     Harris-Foulkes estimate   =   -5268.19267440 Ry
     estimated scf accuracy    <       0.01413555 Ry

     total magnetization       =    32.59 Bohr mag/cell
     absolute magnetization    =    34.12 Bohr mag/cell

     iteration # 11     ecut=    71.00 Ry     beta= 0.10
     Davidson diagonalization with overlap
     ethr =  5.52E-06,  avg # of iterations =  2.2

     negative rho (up, down):  0.000E+00 2.588E-03

     total cpu time spent up to now is      559.5 secs

     total energy              =   -5268.18993149 Ry
     Harris-Foulkes estimate   =   -5268.19020306 Ry
     estimated scf accuracy    <       0.00139705 Ry

     total magnetization       =    32.72 Bohr mag/cell
     absolute magnetization    =    34.35 Bohr mag/cell

     iteration # 12     ecut=    71.00 Ry     beta= 0.10
     Davidson diagonalization with overlap
     ethr =  5.46E-07,  avg # of iterations =  2.9

     negative rho (up, down):  0.000E+00 2.660E-03

     total cpu time spent up to now is      609.6 secs

     total energy              =   -5268.19006711 Ry
     Harris-Foulkes estimate   =   -5268.19004143 Ry
     estimated scf accuracy    <       0.00064352 Ry

     total magnetization       =    32.78 Bohr mag/cell
     absolute magnetization    =    34.45 Bohr mag/cell

     iteration # 13     ecut=    71.00 Ry     beta= 0.10
     Davidson diagonalization with overlap
     ethr =  2.51E-07,  avg # of iterations =  2.8

     negative rho (up, down):  0.000E+00 2.479E-03

     total cpu time spent up to now is      658.4 secs

     total energy              =   -5268.19043582 Ry
     Harris-Foulkes estimate   =   -5268.19013884 Ry
     estimated scf accuracy    <       0.00076474 Ry

     total magnetization       =    32.83 Bohr mag/cell
     absolute magnetization    =    34.55 Bohr mag/cell

     iteration # 14     ecut=    71.00 Ry     beta= 0.10
     Davidson diagonalization with overlap
     ethr =  2.51E-07,  avg # of iterations =  2.9

     negative rho (up, down):  0.000E+00 2.454E-03

     total cpu time spent up to now is      713.2 secs

     total energy              =   -5268.19069165 Ry
     Harris-Foulkes estimate   =   -5268.19062235 Ry
     estimated scf accuracy    <       0.00037288 Ry

     total magnetization       =    32.85 Bohr mag/cell
     absolute magnetization    =    34.59 Bohr mag/cell

     iteration # 15     ecut=    71.00 Ry     beta= 0.10
     Davidson diagonalization with overlap
     ethr =  1.46E-07,  avg # of iterations =  1.5

     negative rho (up, down):  0.000E+00 2.501E-03

     total cpu time spent up to now is      751.0 secs

     total energy              =   -5268.19070055 Ry
     Harris-Foulkes estimate   =   -5268.19071382 Ry
     estimated scf accuracy    <       0.00014310 Ry

     total magnetization       =    32.88 Bohr mag/cell
     absolute magnetization    =    34.62 Bohr mag/cell

     iteration # 16     ecut=    71.00 Ry     beta= 0.10
     Davidson diagonalization with overlap
     ethr =  5.59E-08,  avg # of iterations =  2.0

     negative rho (up, down):  0.000E+00 2.400E-03

     total cpu time spent up to now is      796.3 secs

     total energy              =   -5268.19074394 Ry
     Harris-Foulkes estimate   =   -5268.19071995 Ry
     estimated scf accuracy    <       0.00007093 Ry

     total magnetization       =    32.91 Bohr mag/cell
     absolute magnetization    =    34.68 Bohr mag/cell

     iteration # 17     ecut=    71.00 Ry     beta= 0.10
     Davidson diagonalization with overlap
     ethr =  2.77E-08,  avg # of iterations =  2.7

     negative rho (up, down):  0.000E+00 2.414E-03

     total cpu time spent up to now is      850.7 secs

     total energy              =   -5268.19078373 Ry
     Harris-Foulkes estimate   =   -5268.19077272 Ry
     estimated scf accuracy    <       0.00004787 Ry

     total magnetization       =    32.92 Bohr mag/cell
     absolute magnetization    =    34.68 Bohr mag/cell

     iteration # 18     ecut=    71.00 Ry     beta= 0.10
     Davidson diagonalization with overlap
     ethr =  1.87E-08,  avg # of iterations =  1.9

     negative rho (up, down):  0.000E+00 2.479E-03

     total cpu time spent up to now is      891.0 secs

     total energy              =   -5268.19078313 Ry
     Harris-Foulkes estimate   =   -5268.19078692 Ry
     estimated scf accuracy    <       0.00002777 Ry

     total magnetization       =    32.93 Bohr mag/cell
     absolute magnetization    =    34.70 Bohr mag/cell

     iteration # 19     ecut=    71.00 Ry     beta= 0.10
     Davidson diagonalization with overlap
     ethr =  1.08E-08,  avg # of iterations =  3.3

     negative rho (up, down):  0.000E+00 2.478E-03

     total cpu time spent up to now is      950.9 secs

     total energy              =   -5268.19079558 Ry
     Harris-Foulkes estimate   =   -5268.19079269 Ry
     estimated scf accuracy    <       0.00000899 Ry

     total magnetization       =    32.96 Bohr mag/cell
     absolute magnetization    =    34.75 Bohr mag/cell

     iteration # 20     ecut=    71.00 Ry     beta= 0.10
     Davidson diagonalization with overlap
     ethr =  3.51E-09,  avg # of iterations =  1.1

     negative rho (up, down):  0.000E+00 2.483E-03

     total cpu time spent up to now is      985.8 secs

     total energy              =   -5268.19079804 Ry
     Harris-Foulkes estimate   =   -5268.19079600 Ry
     estimated scf accuracy    <       0.00000574 Ry

     total magnetization       =    32.96 Bohr mag/cell
     absolute magnetization    =    34.75 Bohr mag/cell

     iteration # 21     ecut=    71.00 Ry     beta= 0.10
     Davidson diagonalization with overlap
     ethr =  2.24E-09,  avg # of iterations =  2.4

     negative rho (up, down):  0.000E+00 2.483E-03

     total cpu time spent up to now is     1029.2 secs

     total energy              =   -5268.19079982 Ry
     Harris-Foulkes estimate   =   -5268.19079867 Ry
     estimated scf accuracy    <       0.00000420 Ry

     total magnetization       =    32.97 Bohr mag/cell
     absolute magnetization    =    34.76 Bohr mag/cell

     iteration # 22     ecut=    71.00 Ry     beta= 0.10
     Davidson diagonalization with overlap
     ethr =  1.64E-09,  avg # of iterations =  1.1

     negative rho (up, down):  0.000E+00 2.477E-03

     total cpu time spent up to now is     1064.0 secs

     total energy              =   -5268.19080151 Ry
     Harris-Foulkes estimate   =   -5268.19080013 Ry
     estimated scf accuracy    <       0.00000371 Ry

     total magnetization       =    32.97 Bohr mag/cell
     absolute magnetization    =    34.76 Bohr mag/cell

     iteration # 23     ecut=    71.00 Ry     beta= 0.10
     Davidson diagonalization with overlap
     ethr =  1.45E-09,  avg # of iterations =  2.7

     negative rho (up, down):  0.000E+00 2.488E-03
 
     Magnetic moment per site:
     atom:    1    charge:   14.3698    magn:    2.1046    constr:    0.0000
     atom:    2    charge:   14.3697    magn:    2.1072    constr:    0.0000
     atom:    3    charge:   14.3701    magn:    2.1056    constr:    0.0000
     atom:    4    charge:   14.3697    magn:    2.1072    constr:    0.0000
     atom:    5    charge:   14.3701    magn:    2.1056    constr:    0.0000
     atom:    6    charge:   14.3697    magn:    2.1072    constr:    0.0000
     atom:    7    charge:   14.3701    magn:    2.1061    constr:    0.0000
     atom:    8    charge:   14.3697    magn:    2.1072    constr:    0.0000
     atom:    9    charge:   14.3697    magn:    2.1034    constr:    0.0000
     atom:   10    charge:   14.3697    magn:    2.1072    constr:    0.0000
     atom:   11    charge:   14.3701    magn:    2.1042    constr:    0.0000
     atom:   12    charge:   14.3697    magn:    2.1072    constr:    0.0000
     atom:   13    charge:   14.3701    magn:    2.1042    constr:    0.0000
     atom:   14    charge:   14.3697    magn:    2.1072    constr:    0.0000
     atom:   15    charge:   14.3699    magn:    2.1050    constr:    0.0000
     atom:   16    charge:   14.3697    magn:    2.1072    constr:    0.0000

     total cpu time spent up to now is     1110.9 secs

     End of self-consistent calculation

     Number of k-points >= 100: set verbosity='high' to print the bands.

     the Fermi energy is    18.8748 ev

!    total energy              =   -5268.19080427 Ry
     Harris-Foulkes estimate   =   -5268.19080197 Ry
     estimated scf accuracy    <       0.00000095 Ry

     total all-electron energy =    -40728.935333 Ry

     The total energy is the sum of the following terms:

     one-electron contribution =   -1713.59652711 Ry
     hartree contribution      =    1024.49593579 Ry
     xc contribution           =    -444.21480158 Ry
     ewald contribution        =   -2810.33128625 Ry
     one-center paw contrib.   =   -1324.67015571 Ry
     smearing contrib. (-TS)   =       0.12603059 Ry

     total magnetization       =    32.97 Bohr mag/cell
     absolute magnetization    =    34.76 Bohr mag/cell

     convergence has been achieved in  23 iterations

     negative rho (up, down):  0.000E+00 2.488E-03

     Forces acting on atoms (cartesian axes, Ry/au):

     atom    1 type  1   force =     0.00000000    0.00000000    0.00000000
     atom    2 type  2   force =    -0.00008799    0.00011107    0.00011107
     atom    3 type  1   force =     0.00000000    0.00000000    0.00000000
     atom    4 type  2   force =    -0.00008799    0.00011107   -0.00011107
     atom    5 type  1   force =     0.00000000    0.00000000    0.00000000
     atom    6 type  2   force =    -0.00008799   -0.00011107    0.00011107
     atom    7 type  1   force =     0.00000000    0.00000000    0.00000000
     atom    8 type  2   force =    -0.00008799   -0.00011107   -0.00011107
     atom    9 type  1   force =     0.00000000    0.00000000    0.00000000
     atom   10 type  2   force =     0.00008799    0.00011107    0.00011107
     atom   11 type  1   force =     0.00000000    0.00000000    0.00000000
     atom   12 type  2   force =     0.00008799    0.00011107   -0.00011107
     atom   13 type  1   force =     0.00000000    0.00000000   -0.00000000
     atom   14 type  2   force =     0.00008799   -0.00011107    0.00011107
     atom   15 type  1   force =     0.00000000    0.00000000    0.00000000
     atom   16 type  2   force =     0.00008799   -0.00011107   -0.00011107

     Total force =     0.000509     Total SCF correction =     0.004669
     SCF correction compared to forces is large: reduce conv_thr to get better values


     Computing stress (Cartesian axis) and pressure


     negative rho (up, down):  0.000E+00 2.488E-03
          total   stress  (Ry/bohr**3)                   (kbar)     P=  -12.74
  -0.00011070   0.00000000   0.00000000        -16.28      0.00      0.00
   0.00000000  -0.00007460   0.00000000          0.00    -10.97      0.00
   0.00000000   0.00000000  -0.00007460          0.00      0.00    -10.97


     Writing output data file hMlyEuqVMbntYoTm.save/
 
     init_run     :     12.95s CPU     13.65s WALL (       1 calls)
     electrons    :   1063.22s CPU   1096.00s WALL (       1 calls)
     forces       :      4.61s CPU      5.04s WALL (       1 calls)
     stress       :     13.18s CPU     13.32s WALL (       1 calls)

     Called by init_run:
     wfcinit      :     12.54s CPU     13.11s WALL (       1 calls)
     potinit      :      0.20s CPU      0.23s WALL (       1 calls)
     hinit0       :      0.11s CPU      0.11s WALL (       1 calls)

     Called by electrons:
     c_bands      :    956.68s CPU    983.69s WALL (      24 calls)
     sum_band     :    101.76s CPU    106.94s WALL (      24 calls)
     v_of_rho     :      0.37s CPU      0.37s WALL (      24 calls)
     newd         :      0.73s CPU      0.95s WALL (      24 calls)
     PAW_pot      :      3.59s CPU      3.87s WALL (      24 calls)
     mix_rho      :      0.14s CPU      0.15s WALL (      24 calls)

     Called by c_bands:
     init_us_2    :      5.35s CPU      5.42s WALL (    7650 calls)
     cegterg      :    930.24s CPU    956.98s WALL (    3600 calls)

     Called by sum_band:
     sum_band:bec :      1.47s CPU      1.49s WALL (    3600 calls)
     addusdens    :      1.35s CPU      1.53s WALL (      24 calls)

     Called by *egterg:
     h_psi        :    402.69s CPU    419.12s WALL (   11666 calls)
     s_psi        :     22.10s CPU     22.22s WALL (   11666 calls)
     g_psi        :      0.91s CPU      0.92s WALL (    7916 calls)
     cdiaghg      :    411.94s CPU    413.14s WALL (   11366 calls)

     Called by h_psi:
     h_psi:pot    :    400.28s CPU    416.68s WALL (   11666 calls)
     h_psi:calbec :     32.83s CPU     38.07s WALL (   11666 calls)
     vloc_psi     :    345.27s CPU    356.29s WALL (   11666 calls)
     add_vuspsi   :     22.09s CPU     22.24s WALL (   11666 calls)

     General routines
     calbec       :     50.29s CPU     58.43s WALL (   16016 calls)
     fft          :      0.41s CPU      0.43s WALL (     642 calls)
     ffts         :      0.06s CPU      0.24s WALL (      96 calls)
     fftw         :    402.21s CPU    414.92s WALL ( 2999266 calls)
     interpolate  :      0.08s CPU      0.17s WALL (      48 calls)
 
     Parallel routines
     fft_scatt_xy :     26.30s CPU     27.13s WALL ( 3000004 calls)
     fft_scatt_yz :    271.52s CPU    280.40s WALL ( 3000004 calls)
 
     PWSCF        : 18m23.61s CPU    19m24.47s WALL

 
   This run was terminated on:  12:30:25   9Sep2020            

=------------------------------------------------------------------------------=
   JOB DONE.
=------------------------------------------------------------------------------=
