--------------------------------------------------------------------------
WARNING: No preset parameters were found for the device that Open MPI
detected:

  Local host:            bear-pg0206u39a
  Device name:           mlx5_0
  Device vendor ID:      0x02c9
  Device vendor part ID: 4123

Default device parameters will be used, which may result in lower
performance.  You can edit any of the files specified by the
btl_openib_device_param_files MCA parameter to set values for your
device.

NOTE: You can turn off this warning by setting the MCA parameter
      btl_openib_warn_no_device_params_found to 0.
--------------------------------------------------------------------------
--------------------------------------------------------------------------
WARNING: There was an error initializing an OpenFabrics device.

  Local host:   bear-pg0206u39a
  Local device: mlx5_0
--------------------------------------------------------------------------

     Program PWSCF v.6.3 starts on  9Sep2020 at 14:20:39 

     This program is part of the open-source Quantum ESPRESSO suite
     for quantum simulation of materials; please cite
         "P. Giannozzi et al., J. Phys.:Condens. Matter 21 395502 (2009);
         "P. Giannozzi et al., J. Phys.:Condens. Matter 29 465901 (2017);
          URL http://www.quantum-espresso.org", 
     in publications or presentations arising from this work. More details at
     http://www.quantum-espresso.org/quote

     Parallel version (MPI & OpenMP), running on      40 processor cores
     Number of MPI processes:                40
     Threads/MPI process:                     1

     MPI processes distributed on     1 nodes
     R & G space division:  proc/nbgrp/npool/nimage =      40
     Reading input from wd/ec/ec_2_007.in
Warning: card &IONS ignored
Warning: card ION_DYNAMICS = 'BFGS', ignored
Warning: card / ignored
Warning: card &CELL ignored
Warning: card CELL_DYNAMICS = 'BFGS', ignored
Warning: card CELL_FACTOR = 2.0, ignored
Warning: card PRESS = 0.0, ignored
Warning: card / ignored

     Current dimensions of program PWSCF are:
     Max number of different atomic species (ntypx) = 10
     Max number of k-points (npk) =  40000
     Max angular momentum in pseudopotentials (lmaxx) =  3
               file Fe.pbe-spn-kjpaw_psl.1.0.0.UPF: wavefunction(s)  3P 3D renormalized
               file Fe.pbe-spn-kjpaw_psl.1.0.0.UPF: wavefunction(s)  3P 3D renormalized

     Subspace diagonalization in iterative solution of the eigenvalue problem:
     a serial algorithm will be used

     Found symmetry operation: I + (  0.0000  0.0000 -0.5000)
     This is a supercell, fractional translations are disabled
 
     Parallelization info
     --------------------
     sticks:   dense  smooth     PW     G-vecs:    dense   smooth      PW
     Min          96      63     18                 4496     2413     358
     Max          97      64     19                 4499     2420     362
     Sum        3867    2553    721               179903    96681   14387
 


     bravais-lattice index     =            0
     lattice parameter (alat)  =      10.5935  a.u.
     unit-cell volume          =    1194.7771 (a.u.)^3
     number of atoms/cell      =           16
     number of atomic types    =            2
     number of electrons       =       256.00
     number of Kohn-Sham states=          154
     kinetic-energy cutoff     =      71.0000  Ry
     charge density cutoff     =     430.0000  Ry
     convergence threshold     =      1.0E-06
     mixing beta               =       0.1000
     number of iterations used =           10  plain     mixing
     Exchange-correlation      = SLA PW PBX PBC ( 1  4  3  4 0 0)

     celldm(1)=  10.593520  celldm(2)=   0.000000  celldm(3)=   0.000000
     celldm(4)=   0.000000  celldm(5)=   0.000000  celldm(6)=   0.000000

     crystal axes: (cart. coord. in units of alat)
               a(1) = (   1.000000   0.000000   0.000000 )  
               a(2) = (   0.000000   1.005000   0.000000 )  
               a(3) = (   0.000000   0.000000   1.000000 )  

     reciprocal axes: (cart. coord. in units 2 pi/alat)
               b(1) = (  1.000000  0.000000  0.000000 )  
               b(2) = (  0.000000  0.995025  0.000000 )  
               b(3) = (  0.000000  0.000000  1.000000 )  


     PseudoPot. # 1 for Fe read from file:
     /rds/homes/b/bxp912/pp/Fe.pbe-spn-kjpaw_psl.1.0.0.UPF
     MD5 check sum: 42f43b795421b414b0dc916aa790dbcb
     Pseudo is Projector augmented-wave + core cor, Zval = 16.0
     Generated using "atomic" code by A. Dal Corso v.6.3
     Shape of augmentation charge: PSQ
     Using radial grid of 1191 points,  6 beta functions with: 
                l(1) =   0
                l(2) =   0
                l(3) =   1
                l(4) =   1
                l(5) =   2
                l(6) =   2
     Q(r) pseudized with 0 coefficients 


     PseudoPot. # 2 for Fe read from file:
     /rds/homes/b/bxp912/pp/Fe.pbe-spn-kjpaw_psl.1.0.0.UPF
     MD5 check sum: 42f43b795421b414b0dc916aa790dbcb
     Pseudo is Projector augmented-wave + core cor, Zval = 16.0
     Generated using "atomic" code by A. Dal Corso v.6.3
     Shape of augmentation charge: PSQ
     Using radial grid of 1191 points,  6 beta functions with: 
                l(1) =   0
                l(2) =   0
                l(3) =   1
                l(4) =   1
                l(5) =   2
                l(6) =   2
     Q(r) pseudized with 0 coefficients 


     atomic species   valence    mass     pseudopotential
        Fe1           16.00    55.84500     Fe( 1.00)
        Fe2           16.00    55.84500     Fe( 1.00)

     Starting magnetic structure 
     atomic species   magnetization
        Fe1          0.100
        Fe2          0.100

     16 Sym. Ops., with inversion, found



   Cartesian axes

     site n.     atom                  positions (alat units)
         1           Fe1 tau(   1) = (   0.0000000   0.0000000   0.0000000  )
         2           Fe2 tau(   2) = (   0.2500004   0.2512504   0.2500004  )
         3           Fe1 tau(   3) = (   0.0000000   0.0000000   0.5000000  )
         4           Fe2 tau(   4) = (   0.2500004   0.2512504   0.7499996  )
         5           Fe1 tau(   5) = (   0.0000000   0.5025000   0.0000000  )
         6           Fe2 tau(   6) = (   0.2500004   0.7537496   0.2500004  )
         7           Fe1 tau(   7) = (   0.0000000   0.5025000   0.5000000  )
         8           Fe2 tau(   8) = (   0.2500004   0.7537496   0.7499996  )
         9           Fe1 tau(   9) = (   0.5000000   0.0000000   0.0000000  )
        10           Fe2 tau(  10) = (   0.7499996   0.2512504   0.2500004  )
        11           Fe1 tau(  11) = (   0.5000000   0.0000000   0.5000000  )
        12           Fe2 tau(  12) = (   0.7499996   0.2512504   0.7499996  )
        13           Fe1 tau(  13) = (   0.5000000   0.5025000   0.0000000  )
        14           Fe2 tau(  14) = (   0.7499996   0.7537496   0.2500004  )
        15           Fe1 tau(  15) = (   0.5000000   0.5025000   0.5000000  )
        16           Fe2 tau(  16) = (   0.7499996   0.7537496   0.7499996  )

     number of k points=    75  Marzari-Vanderbilt smearing, width (Ry)=  0.0400
                       cart. coord. in units 2pi/alat
        k(    1) = (   0.0555556   0.0552792   0.0555556), wk =   0.0109739
        k(    2) = (   0.0555556   0.0552792   0.1666667), wk =   0.0219479
        k(    3) = (   0.0555556   0.0552792   0.2777778), wk =   0.0219479
        k(    4) = (   0.0555556   0.0552792   0.3888889), wk =   0.0219479
        k(    5) = (   0.0555556   0.0552792  -0.5000000), wk =   0.0109739
        k(    6) = (   0.0555556   0.1658375   0.0555556), wk =   0.0109739
        k(    7) = (   0.0555556   0.1658375   0.1666667), wk =   0.0219479
        k(    8) = (   0.0555556   0.1658375   0.2777778), wk =   0.0219479
        k(    9) = (   0.0555556   0.1658375   0.3888889), wk =   0.0219479
        k(   10) = (   0.0555556   0.1658375  -0.5000000), wk =   0.0109739
        k(   11) = (   0.0555556   0.2763958   0.0555556), wk =   0.0109739
        k(   12) = (   0.0555556   0.2763958   0.1666667), wk =   0.0219479
        k(   13) = (   0.0555556   0.2763958   0.2777778), wk =   0.0219479
        k(   14) = (   0.0555556   0.2763958   0.3888889), wk =   0.0219479
        k(   15) = (   0.0555556   0.2763958  -0.5000000), wk =   0.0109739
        k(   16) = (   0.0555556   0.3869541   0.0555556), wk =   0.0109739
        k(   17) = (   0.0555556   0.3869541   0.1666667), wk =   0.0219479
        k(   18) = (   0.0555556   0.3869541   0.2777778), wk =   0.0219479
        k(   19) = (   0.0555556   0.3869541   0.3888889), wk =   0.0219479
        k(   20) = (   0.0555556   0.3869541  -0.5000000), wk =   0.0109739
        k(   21) = (   0.0555556  -0.4975124   0.0555556), wk =   0.0054870
        k(   22) = (   0.0555556  -0.4975124   0.1666667), wk =   0.0109739
        k(   23) = (   0.0555556  -0.4975124   0.2777778), wk =   0.0109739
        k(   24) = (   0.0555556  -0.4975124   0.3888889), wk =   0.0109739
        k(   25) = (   0.0555556  -0.4975124  -0.5000000), wk =   0.0054870
        k(   26) = (   0.1666667   0.0552792   0.1666667), wk =   0.0109739
        k(   27) = (   0.1666667   0.0552792   0.2777778), wk =   0.0219479
        k(   28) = (   0.1666667   0.0552792   0.3888889), wk =   0.0219479
        k(   29) = (   0.1666667   0.0552792  -0.5000000), wk =   0.0109739
        k(   30) = (   0.1666667   0.1658375   0.1666667), wk =   0.0109739
        k(   31) = (   0.1666667   0.1658375   0.2777778), wk =   0.0219479
        k(   32) = (   0.1666667   0.1658375   0.3888889), wk =   0.0219479
        k(   33) = (   0.1666667   0.1658375  -0.5000000), wk =   0.0109739
        k(   34) = (   0.1666667   0.2763958   0.1666667), wk =   0.0109739
        k(   35) = (   0.1666667   0.2763958   0.2777778), wk =   0.0219479
        k(   36) = (   0.1666667   0.2763958   0.3888889), wk =   0.0219479
        k(   37) = (   0.1666667   0.2763958  -0.5000000), wk =   0.0109739
        k(   38) = (   0.1666667   0.3869541   0.1666667), wk =   0.0109739
        k(   39) = (   0.1666667   0.3869541   0.2777778), wk =   0.0219479
        k(   40) = (   0.1666667   0.3869541   0.3888889), wk =   0.0219479
        k(   41) = (   0.1666667   0.3869541  -0.5000000), wk =   0.0109739
        k(   42) = (   0.1666667  -0.4975124   0.1666667), wk =   0.0054870
        k(   43) = (   0.1666667  -0.4975124   0.2777778), wk =   0.0109739
        k(   44) = (   0.1666667  -0.4975124   0.3888889), wk =   0.0109739
        k(   45) = (   0.1666667  -0.4975124  -0.5000000), wk =   0.0054870
        k(   46) = (   0.2777778   0.0552792   0.2777778), wk =   0.0109739
        k(   47) = (   0.2777778   0.0552792   0.3888889), wk =   0.0219479
        k(   48) = (   0.2777778   0.0552792  -0.5000000), wk =   0.0109739
        k(   49) = (   0.2777778   0.1658375   0.2777778), wk =   0.0109739
        k(   50) = (   0.2777778   0.1658375   0.3888889), wk =   0.0219479
        k(   51) = (   0.2777778   0.1658375  -0.5000000), wk =   0.0109739
        k(   52) = (   0.2777778   0.2763958   0.2777778), wk =   0.0109739
        k(   53) = (   0.2777778   0.2763958   0.3888889), wk =   0.0219479
        k(   54) = (   0.2777778   0.2763958  -0.5000000), wk =   0.0109739
        k(   55) = (   0.2777778   0.3869541   0.2777778), wk =   0.0109739
        k(   56) = (   0.2777778   0.3869541   0.3888889), wk =   0.0219479
        k(   57) = (   0.2777778   0.3869541  -0.5000000), wk =   0.0109739
        k(   58) = (   0.2777778  -0.4975124   0.2777778), wk =   0.0054870
        k(   59) = (   0.2777778  -0.4975124   0.3888889), wk =   0.0109739
        k(   60) = (   0.2777778  -0.4975124  -0.5000000), wk =   0.0054870
        k(   61) = (   0.3888889   0.0552792   0.3888889), wk =   0.0109739
        k(   62) = (   0.3888889   0.0552792  -0.5000000), wk =   0.0109739
        k(   63) = (   0.3888889   0.1658375   0.3888889), wk =   0.0109739
        k(   64) = (   0.3888889   0.1658375  -0.5000000), wk =   0.0109739
        k(   65) = (   0.3888889   0.2763958   0.3888889), wk =   0.0109739
        k(   66) = (   0.3888889   0.2763958  -0.5000000), wk =   0.0109739
        k(   67) = (   0.3888889   0.3869541   0.3888889), wk =   0.0109739
        k(   68) = (   0.3888889   0.3869541  -0.5000000), wk =   0.0109739
        k(   69) = (   0.3888889  -0.4975124   0.3888889), wk =   0.0054870
        k(   70) = (   0.3888889  -0.4975124  -0.5000000), wk =   0.0054870
        k(   71) = (  -0.5000000   0.0552792  -0.5000000), wk =   0.0027435
        k(   72) = (  -0.5000000   0.1658375  -0.5000000), wk =   0.0027435
        k(   73) = (  -0.5000000   0.2763958  -0.5000000), wk =   0.0027435
        k(   74) = (  -0.5000000   0.3869541  -0.5000000), wk =   0.0027435
        k(   75) = (  -0.5000000  -0.4975124  -0.5000000), wk =   0.0013717

     Dense  grid:   179903 G-vectors     FFT dimensions: (  72,  72,  72)

     Smooth grid:    96681 G-vectors     FFT dimensions: (  60,  60,  60)

     Estimated max dynamical RAM per process >     145.29 MB

     Estimated total dynamical RAM >       5.68 GB
     Generating pointlists ...
     new r_m :   0.1789 (alat units)  1.8953 (a.u.) for type    1
     new r_m :   0.1789 (alat units)  1.8953 (a.u.) for type    2

     Check: negative/imaginary core charge=   -0.000006    0.000000

     Initial potential from superposition of free atoms

     starting charge  255.99300, renormalised to  256.00000
     Starting wfcs are  160 randomized atomic wfcs
     Checking if some PAW data can be deallocated... 

     total cpu time spent up to now is       15.0 secs

     Self-consistent Calculation

     iteration #  1     ecut=    71.00 Ry     beta= 0.10
     Davidson diagonalization with overlap
     ethr =  1.00E-02,  avg # of iterations =  3.3

     Threshold (ethr) on eigenvalues was too large:
     Diagonalizing with lowered threshold

     Davidson diagonalization with overlap
     ethr =  2.19E-04,  avg # of iterations =  3.6

     total cpu time spent up to now is      130.8 secs

     total energy              =   -5268.05083143 Ry
     Harris-Foulkes estimate   =   -5268.13408913 Ry
     estimated scf accuracy    <       0.64686006 Ry

     total magnetization       =    28.22 Bohr mag/cell
     absolute magnetization    =    28.36 Bohr mag/cell

     iteration #  2     ecut=    71.00 Ry     beta= 0.10
     Davidson diagonalization with overlap
     ethr =  2.53E-04,  avg # of iterations =  1.0

     total cpu time spent up to now is      164.5 secs

     total energy              =   -5267.99738510 Ry
     Harris-Foulkes estimate   =   -5268.06415728 Ry
     estimated scf accuracy    <       0.38611008 Ry

     total magnetization       =    28.83 Bohr mag/cell
     absolute magnetization    =    28.98 Bohr mag/cell

     iteration #  3     ecut=    71.00 Ry     beta= 0.10
     Davidson diagonalization with overlap
     ethr =  1.51E-04,  avg # of iterations =  2.8

     total cpu time spent up to now is      214.6 secs

     total energy              =   -5268.02685411 Ry
     Harris-Foulkes estimate   =   -5268.04811483 Ry
     estimated scf accuracy    <       0.57805198 Ry

     total magnetization       =    29.69 Bohr mag/cell
     absolute magnetization    =    29.99 Bohr mag/cell

     iteration #  4     ecut=    71.00 Ry     beta= 0.10
     Davidson diagonalization with overlap
     ethr =  1.51E-04,  avg # of iterations =  1.1

     total cpu time spent up to now is      248.8 secs

     total energy              =   -5268.05179960 Ry
     Harris-Foulkes estimate   =   -5268.04914264 Ry
     estimated scf accuracy    <       0.13038007 Ry

     total magnetization       =    30.29 Bohr mag/cell
     absolute magnetization    =    30.64 Bohr mag/cell

     iteration #  5     ecut=    71.00 Ry     beta= 0.10
     Davidson diagonalization with overlap
     ethr =  5.09E-05,  avg # of iterations =  1.1

     total cpu time spent up to now is      282.9 secs

     total energy              =   -5268.10835997 Ry
     Harris-Foulkes estimate   =   -5268.05387017 Ry
     estimated scf accuracy    <       0.10705064 Ry

     total magnetization       =    30.36 Bohr mag/cell
     absolute magnetization    =    30.73 Bohr mag/cell

     iteration #  6     ecut=    71.00 Ry     beta= 0.10
     Davidson diagonalization with overlap
     ethr =  4.18E-05,  avg # of iterations =  3.4

     negative rho (up, down):  0.000E+00 4.634E-04

     total cpu time spent up to now is      348.1 secs

     total energy              =   -5268.16183589 Ry
     Harris-Foulkes estimate   =   -5268.15398881 Ry
     estimated scf accuracy    <       0.17194865 Ry

     total magnetization       =    31.08 Bohr mag/cell
     absolute magnetization    =    31.85 Bohr mag/cell

     iteration #  7     ecut=    71.00 Ry     beta= 0.10
     Davidson diagonalization with overlap
     ethr =  4.18E-05,  avg # of iterations =  2.6

     negative rho (up, down):  0.000E+00 1.372E-03

     total cpu time spent up to now is      398.6 secs

     total energy              =   -5268.17647774 Ry
     Harris-Foulkes estimate   =   -5268.17698236 Ry
     estimated scf accuracy    <       0.05527518 Ry

     total magnetization       =    31.86 Bohr mag/cell
     absolute magnetization    =    33.01 Bohr mag/cell

     iteration #  8     ecut=    71.00 Ry     beta= 0.10
     Davidson diagonalization with overlap
     ethr =  2.16E-05,  avg # of iterations =  2.4

     negative rho (up, down):  0.000E+00 1.737E-03

     total cpu time spent up to now is      446.9 secs

     total energy              =   -5268.18529635 Ry
     Harris-Foulkes estimate   =   -5268.18246848 Ry
     estimated scf accuracy    <       0.02485075 Ry

     total magnetization       =    32.25 Bohr mag/cell
     absolute magnetization    =    33.60 Bohr mag/cell

     iteration #  9     ecut=    71.00 Ry     beta= 0.10
     Davidson diagonalization with overlap
     ethr =  9.71E-06,  avg # of iterations =  1.2

     negative rho (up, down):  0.000E+00 2.408E-03

     total cpu time spent up to now is      482.9 secs

     total energy              =   -5268.18883663 Ry
     Harris-Foulkes estimate   =   -5268.18616301 Ry
     estimated scf accuracy    <       0.01016278 Ry

     total magnetization       =    32.40 Bohr mag/cell
     absolute magnetization    =    33.80 Bohr mag/cell

     iteration # 10     ecut=    71.00 Ry     beta= 0.10
     Davidson diagonalization with overlap
     ethr =  3.97E-06,  avg # of iterations =  3.1

     negative rho (up, down):  0.000E+00 2.589E-03

     total cpu time spent up to now is      535.5 secs

     total energy              =   -5268.19016080 Ry
     Harris-Foulkes estimate   =   -5268.19015535 Ry
     estimated scf accuracy    <       0.00215210 Ry

     total magnetization       =    32.67 Bohr mag/cell
     absolute magnetization    =    34.28 Bohr mag/cell

     iteration # 11     ecut=    71.00 Ry     beta= 0.10
     Davidson diagonalization with overlap
     ethr =  8.41E-07,  avg # of iterations =  2.6

     negative rho (up, down):  0.000E+00 2.418E-03

     total cpu time spent up to now is      582.9 secs

     total energy              =   -5268.19043417 Ry
     Harris-Foulkes estimate   =   -5268.19033676 Ry
     estimated scf accuracy    <       0.00072642 Ry

     total magnetization       =    32.76 Bohr mag/cell
     absolute magnetization    =    34.44 Bohr mag/cell

     iteration # 12     ecut=    71.00 Ry     beta= 0.10
     Davidson diagonalization with overlap
     ethr =  2.84E-07,  avg # of iterations =  2.3

     negative rho (up, down):  0.000E+00 2.389E-03

     total cpu time spent up to now is      627.4 secs

     total energy              =   -5268.19071183 Ry
     Harris-Foulkes estimate   =   -5268.19050320 Ry
     estimated scf accuracy    <       0.00069320 Ry

     total magnetization       =    32.78 Bohr mag/cell
     absolute magnetization    =    34.47 Bohr mag/cell

     iteration # 13     ecut=    71.00 Ry     beta= 0.10
     Davidson diagonalization with overlap
     ethr =  2.71E-07,  avg # of iterations =  2.0

     negative rho (up, down):  0.000E+00 2.489E-03

     total cpu time spent up to now is      670.8 secs

     total energy              =   -5268.19083500 Ry
     Harris-Foulkes estimate   =   -5268.19076944 Ry
     estimated scf accuracy    <       0.00046478 Ry

     total magnetization       =    32.84 Bohr mag/cell
     absolute magnetization    =    34.55 Bohr mag/cell

     iteration # 14     ecut=    71.00 Ry     beta= 0.10
     Davidson diagonalization with overlap
     ethr =  1.82E-07,  avg # of iterations =  2.9

     negative rho (up, down):  0.000E+00 2.419E-03

     total cpu time spent up to now is      725.1 secs

     total energy              =   -5268.19093549 Ry
     Harris-Foulkes estimate   =   -5268.19092679 Ry
     estimated scf accuracy    <       0.00011284 Ry

     total magnetization       =    32.92 Bohr mag/cell
     absolute magnetization    =    34.70 Bohr mag/cell

     iteration # 15     ecut=    71.00 Ry     beta= 0.10
     Davidson diagonalization with overlap
     ethr =  4.41E-08,  avg # of iterations =  2.8

     negative rho (up, down):  0.000E+00 2.471E-03

     total cpu time spent up to now is      776.7 secs

     total energy              =   -5268.19095471 Ry
     Harris-Foulkes estimate   =   -5268.19095412 Ry
     estimated scf accuracy    <       0.00007367 Ry

     total magnetization       =    32.92 Bohr mag/cell
     absolute magnetization    =    34.69 Bohr mag/cell

     iteration # 16     ecut=    71.00 Ry     beta= 0.10
     Davidson diagonalization with overlap
     ethr =  2.88E-08,  avg # of iterations =  3.2

     negative rho (up, down):  0.000E+00 2.453E-03

     total cpu time spent up to now is      833.8 secs

     total energy              =   -5268.19098855 Ry
     Harris-Foulkes estimate   =   -5268.19098366 Ry
     estimated scf accuracy    <       0.00001621 Ry

     total magnetization       =    32.97 Bohr mag/cell
     absolute magnetization    =    34.76 Bohr mag/cell

     iteration # 17     ecut=    71.00 Ry     beta= 0.10
     Davidson diagonalization with overlap
     ethr =  6.33E-09,  avg # of iterations =  2.4

     negative rho (up, down):  0.000E+00 2.464E-03

     total cpu time spent up to now is      878.1 secs

     total energy              =   -5268.19099096 Ry
     Harris-Foulkes estimate   =   -5268.19099015 Ry
     estimated scf accuracy    <       0.00000885 Ry

     total magnetization       =    32.97 Bohr mag/cell
     absolute magnetization    =    34.76 Bohr mag/cell

     iteration # 18     ecut=    71.00 Ry     beta= 0.10
     Davidson diagonalization with overlap
     ethr =  3.46E-09,  avg # of iterations =  1.3

     negative rho (up, down):  0.000E+00 2.479E-03

     total cpu time spent up to now is      913.6 secs

     total energy              =   -5268.19099264 Ry
     Harris-Foulkes estimate   =   -5268.19099140 Ry
     estimated scf accuracy    <       0.00000558 Ry

     total magnetization       =    32.98 Bohr mag/cell
     absolute magnetization    =    34.77 Bohr mag/cell

     iteration # 19     ecut=    71.00 Ry     beta= 0.10
     Davidson diagonalization with overlap
     ethr =  2.18E-09,  avg # of iterations =  2.9

     negative rho (up, down):  0.000E+00 2.475E-03

     total cpu time spent up to now is      969.0 secs

     total energy              =   -5268.19099450 Ry
     Harris-Foulkes estimate   =   -5268.19099395 Ry
     estimated scf accuracy    <       0.00000211 Ry

     total magnetization       =    32.99 Bohr mag/cell
     absolute magnetization    =    34.78 Bohr mag/cell

     iteration # 20     ecut=    71.00 Ry     beta= 0.10
     Davidson diagonalization with overlap
     ethr =  8.26E-10,  avg # of iterations =  1.0

     negative rho (up, down):  0.000E+00 2.480E-03

     total cpu time spent up to now is     1002.8 secs

     total energy              =   -5268.19099513 Ry
     Harris-Foulkes estimate   =   -5268.19099464 Ry
     estimated scf accuracy    <       0.00000183 Ry

     total magnetization       =    32.99 Bohr mag/cell
     absolute magnetization    =    34.78 Bohr mag/cell

     iteration # 21     ecut=    71.00 Ry     beta= 0.10
     Davidson diagonalization with overlap
     ethr =  7.15E-10,  avg # of iterations =  1.0

     negative rho (up, down):  0.000E+00 2.483E-03

     total cpu time spent up to now is     1036.5 secs

     total energy              =   -5268.19099629 Ry
     Harris-Foulkes estimate   =   -5268.19099520 Ry
     estimated scf accuracy    <       0.00000108 Ry

     total magnetization       =    32.99 Bohr mag/cell
     absolute magnetization    =    34.78 Bohr mag/cell

     iteration # 22     ecut=    71.00 Ry     beta= 0.10
     Davidson diagonalization with overlap
     ethr =  4.23E-10,  avg # of iterations =  2.4

     negative rho (up, down):  0.000E+00 2.493E-03
 
     Magnetic moment per site:
     atom:    1    charge:   14.3704    magn:    2.1059    constr:    0.0000
     atom:    2    charge:   14.3705    magn:    2.1083    constr:    0.0000
     atom:    3    charge:   14.3704    magn:    2.1057    constr:    0.0000
     atom:    4    charge:   14.3705    magn:    2.1083    constr:    0.0000
     atom:    5    charge:   14.3706    magn:    2.1075    constr:    0.0000
     atom:    6    charge:   14.3705    magn:    2.1083    constr:    0.0000
     atom:    7    charge:   14.3706    magn:    2.1071    constr:    0.0000
     atom:    8    charge:   14.3705    magn:    2.1083    constr:    0.0000
     atom:    9    charge:   14.3704    magn:    2.1057    constr:    0.0000
     atom:   10    charge:   14.3705    magn:    2.1083    constr:    0.0000
     atom:   11    charge:   14.3708    magn:    2.1053    constr:    0.0000
     atom:   12    charge:   14.3705    magn:    2.1083    constr:    0.0000
     atom:   13    charge:   14.3706    magn:    2.1071    constr:    0.0000
     atom:   14    charge:   14.3705    magn:    2.1083    constr:    0.0000
     atom:   15    charge:   14.3706    magn:    2.1067    constr:    0.0000
     atom:   16    charge:   14.3705    magn:    2.1083    constr:    0.0000

     total cpu time spent up to now is     1081.4 secs

     End of self-consistent calculation

     Number of k-points >= 100: set verbosity='high' to print the bands.

     the Fermi energy is    18.8549 ev

!    total energy              =   -5268.19099746 Ry
     Harris-Foulkes estimate   =   -5268.19099644 Ry
     estimated scf accuracy    <       0.00000047 Ry

     total all-electron energy =    -40728.935526 Ry

     The total energy is the sum of the following terms:

     one-electron contribution =   -1714.83238554 Ry
     hartree contribution      =    1024.94615405 Ry
     xc contribution           =    -444.20724450 Ry
     ewald contribution        =   -2809.55393331 Ry
     one-center paw contrib.   =   -1324.66999913 Ry
     smearing contrib. (-TS)   =       0.12641096 Ry

     total magnetization       =    32.99 Bohr mag/cell
     absolute magnetization    =    34.78 Bohr mag/cell

     convergence has been achieved in  22 iterations

     negative rho (up, down):  0.000E+00 2.493E-03

     Forces acting on atoms (cartesian axes, Ry/au):

     atom    1 type  1   force =     0.00000000   -0.00000000    0.00000000
     atom    2 type  2   force =    -0.00001786    0.00013396   -0.00001786
     atom    3 type  1   force =     0.00000000   -0.00000000    0.00000000
     atom    4 type  2   force =    -0.00001786    0.00013396    0.00001786
     atom    5 type  1   force =     0.00000000    0.00000000    0.00000000
     atom    6 type  2   force =    -0.00001786   -0.00013396   -0.00001786
     atom    7 type  1   force =     0.00000000    0.00000000    0.00000000
     atom    8 type  2   force =    -0.00001786   -0.00013396    0.00001786
     atom    9 type  1   force =     0.00000000    0.00000000    0.00000000
     atom   10 type  2   force =     0.00001786    0.00013396   -0.00001786
     atom   11 type  1   force =     0.00000000   -0.00000000    0.00000000
     atom   12 type  2   force =     0.00001786    0.00013396    0.00001786
     atom   13 type  1   force =     0.00000000    0.00000000    0.00000000
     atom   14 type  2   force =     0.00001786   -0.00013396   -0.00001786
     atom   15 type  1   force =     0.00000000    0.00000000    0.00000000
     atom   16 type  2   force =     0.00001786   -0.00013396    0.00001786

     Total force =     0.000386     Total SCF correction =     0.004323
     SCF correction compared to forces is large: reduce conv_thr to get better values


     Computing stress (Cartesian axis) and pressure


     negative rho (up, down):  0.000E+00 2.493E-03
          total   stress  (Ry/bohr**3)                   (kbar)     P=  -13.48
  -0.00007736   0.00000000   0.00000000        -11.38      0.00      0.00
   0.00000000  -0.00012014   0.00000000          0.00    -17.67      0.00
   0.00000000   0.00000000  -0.00007736          0.00      0.00    -11.38


     Writing output data file ccFKyqUMliuoELHJ.save/
 
     init_run     :     13.04s CPU     13.71s WALL (       1 calls)
     electrons    :   1034.79s CPU   1066.48s WALL (       1 calls)
     forces       :      4.60s CPU      5.05s WALL (       1 calls)
     stress       :     12.84s CPU     12.99s WALL (       1 calls)

     Called by init_run:
     wfcinit      :     12.58s CPU     13.13s WALL (       1 calls)
     potinit      :      0.23s CPU      0.25s WALL (       1 calls)
     hinit0       :      0.13s CPU      0.14s WALL (       1 calls)

     Called by electrons:
     c_bands      :    931.92s CPU    958.12s WALL (      23 calls)
     sum_band     :     98.21s CPU    103.16s WALL (      23 calls)
     v_of_rho     :      0.35s CPU      0.35s WALL (      23 calls)
     newd         :      0.72s CPU      0.92s WALL (      23 calls)
     PAW_pot      :      3.54s CPU      3.77s WALL (      23 calls)
     mix_rho      :      0.13s CPU      0.14s WALL (      23 calls)

     Called by c_bands:
     init_us_2    :      5.55s CPU      5.61s WALL (    7350 calls)
     cegterg      :    906.63s CPU    932.57s WALL (    3450 calls)

     Called by sum_band:
     sum_band:bec :      1.45s CPU      1.47s WALL (    3450 calls)
     addusdens    :      1.27s CPU      1.45s WALL (      23 calls)

     Called by *egterg:
     h_psi        :    386.41s CPU    402.61s WALL (   11479 calls)
     s_psi        :     21.07s CPU     21.20s WALL (   11479 calls)
     g_psi        :      0.87s CPU      0.88s WALL (    7879 calls)
     cdiaghg      :    408.40s CPU    409.69s WALL (   11179 calls)

     Called by h_psi:
     h_psi:pot    :    384.22s CPU    400.39s WALL (   11479 calls)
     h_psi:calbec :     31.63s CPU     36.75s WALL (   11479 calls)
     vloc_psi     :    331.30s CPU    342.18s WALL (   11479 calls)
     add_vuspsi   :     21.19s CPU     21.39s WALL (   11479 calls)

     General routines
     calbec       :     47.84s CPU     55.73s WALL (   15679 calls)
     fft          :      0.40s CPU      0.42s WALL (     617 calls)
     ffts         :      0.07s CPU      0.25s WALL (      92 calls)
     fftw         :    386.19s CPU    398.70s WALL ( 2884458 calls)
     interpolate  :      0.11s CPU      0.19s WALL (      46 calls)
 
     Parallel routines
     fft_scatt_xy :     25.13s CPU     25.91s WALL ( 2885167 calls)
     fft_scatt_yz :    260.77s CPU    269.46s WALL ( 2885167 calls)
 
     PWSCF        : 17m55.06s CPU    18m54.53s WALL

 
   This run was terminated on:  14:39:33   9Sep2020            

=------------------------------------------------------------------------------=
   JOB DONE.
=------------------------------------------------------------------------------=
