--------------------------------------------------------------------------
WARNING: No preset parameters were found for the device that Open MPI
detected:

  Local host:            bear-pg0206u39a
  Device name:           mlx5_0
  Device vendor ID:      0x02c9
  Device vendor part ID: 4123

Default device parameters will be used, which may result in lower
performance.  You can edit any of the files specified by the
btl_openib_device_param_files MCA parameter to set values for your
device.

NOTE: You can turn off this warning by setting the MCA parameter
      btl_openib_warn_no_device_params_found to 0.
--------------------------------------------------------------------------
--------------------------------------------------------------------------
WARNING: There was an error initializing an OpenFabrics device.

  Local host:   bear-pg0206u39a
  Local device: mlx5_0
--------------------------------------------------------------------------

     Program PWSCF v.6.3 starts on  9Sep2020 at 12:50:20 

     This program is part of the open-source Quantum ESPRESSO suite
     for quantum simulation of materials; please cite
         "P. Giannozzi et al., J. Phys.:Condens. Matter 21 395502 (2009);
         "P. Giannozzi et al., J. Phys.:Condens. Matter 29 465901 (2017);
          URL http://www.quantum-espresso.org", 
     in publications or presentations arising from this work. More details at
     http://www.quantum-espresso.org/quote

     Parallel version (MPI & OpenMP), running on      40 processor cores
     Number of MPI processes:                40
     Threads/MPI process:                     1

     MPI processes distributed on     1 nodes
     R & G space division:  proc/nbgrp/npool/nimage =      40
     Reading input from wd/ec/ec_2_002.in
Warning: card &IONS ignored
Warning: card ION_DYNAMICS = 'BFGS', ignored
Warning: card / ignored
Warning: card &CELL ignored
Warning: card CELL_DYNAMICS = 'BFGS', ignored
Warning: card CELL_FACTOR = 2.0, ignored
Warning: card PRESS = 0.0, ignored
Warning: card / ignored

     Current dimensions of program PWSCF are:
     Max number of different atomic species (ntypx) = 10
     Max number of k-points (npk) =  40000
     Max angular momentum in pseudopotentials (lmaxx) =  3
               file Fe.pbe-spn-kjpaw_psl.1.0.0.UPF: wavefunction(s)  3P 3D renormalized
               file Fe.pbe-spn-kjpaw_psl.1.0.0.UPF: wavefunction(s)  3P 3D renormalized

     Subspace diagonalization in iterative solution of the eigenvalue problem:
     a serial algorithm will be used

     Found symmetry operation: I + (  0.0000  0.0000 -0.5000)
     This is a supercell, fractional translations are disabled
 
     Parallelization info
     --------------------
     sticks:   dense  smooth     PW     G-vecs:    dense   smooth      PW
     Min          95      63     17                 4475     2401     357
     Max          96      64     18                 4480     2406     362
     Sum        3833    2541    717               179109    96129   14363
 


     bravais-lattice index     =            0
     lattice parameter (alat)  =      10.5935  a.u.
     unit-cell volume          =    1189.8236 (a.u.)^3
     number of atoms/cell      =           16
     number of atomic types    =            2
     number of electrons       =       256.00
     number of Kohn-Sham states=          154
     kinetic-energy cutoff     =      71.0000  Ry
     charge density cutoff     =     430.0000  Ry
     convergence threshold     =      1.0E-06
     mixing beta               =       0.1000
     number of iterations used =           10  plain     mixing
     Exchange-correlation      = SLA PW PBX PBC ( 1  4  3  4 0 0)

     celldm(1)=  10.593520  celldm(2)=   0.000000  celldm(3)=   0.000000
     celldm(4)=   0.000000  celldm(5)=   0.000000  celldm(6)=   0.000000

     crystal axes: (cart. coord. in units of alat)
               a(1) = (   1.000000   0.000000   0.000000 )  
               a(2) = (   0.000000   1.000833   0.000000 )  
               a(3) = (   0.000000   0.000000   1.000000 )  

     reciprocal axes: (cart. coord. in units 2 pi/alat)
               b(1) = (  1.000000  0.000000  0.000000 )  
               b(2) = (  0.000000  0.999167  0.000000 )  
               b(3) = (  0.000000  0.000000  1.000000 )  


     PseudoPot. # 1 for Fe read from file:
     /rds/homes/b/bxp912/pp/Fe.pbe-spn-kjpaw_psl.1.0.0.UPF
     MD5 check sum: 42f43b795421b414b0dc916aa790dbcb
     Pseudo is Projector augmented-wave + core cor, Zval = 16.0
     Generated using "atomic" code by A. Dal Corso v.6.3
     Shape of augmentation charge: PSQ
     Using radial grid of 1191 points,  6 beta functions with: 
                l(1) =   0
                l(2) =   0
                l(3) =   1
                l(4) =   1
                l(5) =   2
                l(6) =   2
     Q(r) pseudized with 0 coefficients 


     PseudoPot. # 2 for Fe read from file:
     /rds/homes/b/bxp912/pp/Fe.pbe-spn-kjpaw_psl.1.0.0.UPF
     MD5 check sum: 42f43b795421b414b0dc916aa790dbcb
     Pseudo is Projector augmented-wave + core cor, Zval = 16.0
     Generated using "atomic" code by A. Dal Corso v.6.3
     Shape of augmentation charge: PSQ
     Using radial grid of 1191 points,  6 beta functions with: 
                l(1) =   0
                l(2) =   0
                l(3) =   1
                l(4) =   1
                l(5) =   2
                l(6) =   2
     Q(r) pseudized with 0 coefficients 


     atomic species   valence    mass     pseudopotential
        Fe1           16.00    55.84500     Fe( 1.00)
        Fe2           16.00    55.84500     Fe( 1.00)

     Starting magnetic structure 
     atomic species   magnetization
        Fe1          0.100
        Fe2          0.100

     16 Sym. Ops., with inversion, found



   Cartesian axes

     site n.     atom                  positions (alat units)
         1           Fe1 tau(   1) = (   0.0000000   0.0000000   0.0000000  )
         2           Fe2 tau(   2) = (   0.2500004   0.2502088   0.2500004  )
         3           Fe1 tau(   3) = (   0.0000000   0.0000000   0.5000000  )
         4           Fe2 tau(   4) = (   0.2500004   0.2502088   0.7499996  )
         5           Fe1 tau(   5) = (   0.0000000   0.5004167   0.0000000  )
         6           Fe2 tau(   6) = (   0.2500004   0.7506246   0.2500004  )
         7           Fe1 tau(   7) = (   0.0000000   0.5004167   0.5000000  )
         8           Fe2 tau(   8) = (   0.2500004   0.7506246   0.7499996  )
         9           Fe1 tau(   9) = (   0.5000000   0.0000000   0.0000000  )
        10           Fe2 tau(  10) = (   0.7499996   0.2502088   0.2500004  )
        11           Fe1 tau(  11) = (   0.5000000   0.0000000   0.5000000  )
        12           Fe2 tau(  12) = (   0.7499996   0.2502088   0.7499996  )
        13           Fe1 tau(  13) = (   0.5000000   0.5004167   0.0000000  )
        14           Fe2 tau(  14) = (   0.7499996   0.7506246   0.2500004  )
        15           Fe1 tau(  15) = (   0.5000000   0.5004167   0.5000000  )
        16           Fe2 tau(  16) = (   0.7499996   0.7506246   0.7499996  )

     number of k points=    75  Marzari-Vanderbilt smearing, width (Ry)=  0.0400
                       cart. coord. in units 2pi/alat
        k(    1) = (   0.0555556   0.0555093   0.0555556), wk =   0.0109739
        k(    2) = (   0.0555556   0.0555093   0.1666667), wk =   0.0219479
        k(    3) = (   0.0555556   0.0555093   0.2777778), wk =   0.0219479
        k(    4) = (   0.0555556   0.0555093   0.3888889), wk =   0.0219479
        k(    5) = (   0.0555556   0.0555093  -0.5000000), wk =   0.0109739
        k(    6) = (   0.0555556   0.1665279   0.0555556), wk =   0.0109739
        k(    7) = (   0.0555556   0.1665279   0.1666667), wk =   0.0219479
        k(    8) = (   0.0555556   0.1665279   0.2777778), wk =   0.0219479
        k(    9) = (   0.0555556   0.1665279   0.3888889), wk =   0.0219479
        k(   10) = (   0.0555556   0.1665279  -0.5000000), wk =   0.0109739
        k(   11) = (   0.0555556   0.2775465   0.0555556), wk =   0.0109739
        k(   12) = (   0.0555556   0.2775465   0.1666667), wk =   0.0219479
        k(   13) = (   0.0555556   0.2775465   0.2777778), wk =   0.0219479
        k(   14) = (   0.0555556   0.2775465   0.3888889), wk =   0.0219479
        k(   15) = (   0.0555556   0.2775465  -0.5000000), wk =   0.0109739
        k(   16) = (   0.0555556   0.3885651   0.0555556), wk =   0.0109739
        k(   17) = (   0.0555556   0.3885651   0.1666667), wk =   0.0219479
        k(   18) = (   0.0555556   0.3885651   0.2777778), wk =   0.0219479
        k(   19) = (   0.0555556   0.3885651   0.3888889), wk =   0.0219479
        k(   20) = (   0.0555556   0.3885651  -0.5000000), wk =   0.0109739
        k(   21) = (   0.0555556  -0.4995837   0.0555556), wk =   0.0054870
        k(   22) = (   0.0555556  -0.4995837   0.1666667), wk =   0.0109739
        k(   23) = (   0.0555556  -0.4995837   0.2777778), wk =   0.0109739
        k(   24) = (   0.0555556  -0.4995837   0.3888889), wk =   0.0109739
        k(   25) = (   0.0555556  -0.4995837  -0.5000000), wk =   0.0054870
        k(   26) = (   0.1666667   0.0555093   0.1666667), wk =   0.0109739
        k(   27) = (   0.1666667   0.0555093   0.2777778), wk =   0.0219479
        k(   28) = (   0.1666667   0.0555093   0.3888889), wk =   0.0219479
        k(   29) = (   0.1666667   0.0555093  -0.5000000), wk =   0.0109739
        k(   30) = (   0.1666667   0.1665279   0.1666667), wk =   0.0109739
        k(   31) = (   0.1666667   0.1665279   0.2777778), wk =   0.0219479
        k(   32) = (   0.1666667   0.1665279   0.3888889), wk =   0.0219479
        k(   33) = (   0.1666667   0.1665279  -0.5000000), wk =   0.0109739
        k(   34) = (   0.1666667   0.2775465   0.1666667), wk =   0.0109739
        k(   35) = (   0.1666667   0.2775465   0.2777778), wk =   0.0219479
        k(   36) = (   0.1666667   0.2775465   0.3888889), wk =   0.0219479
        k(   37) = (   0.1666667   0.2775465  -0.5000000), wk =   0.0109739
        k(   38) = (   0.1666667   0.3885651   0.1666667), wk =   0.0109739
        k(   39) = (   0.1666667   0.3885651   0.2777778), wk =   0.0219479
        k(   40) = (   0.1666667   0.3885651   0.3888889), wk =   0.0219479
        k(   41) = (   0.1666667   0.3885651  -0.5000000), wk =   0.0109739
        k(   42) = (   0.1666667  -0.4995837   0.1666667), wk =   0.0054870
        k(   43) = (   0.1666667  -0.4995837   0.2777778), wk =   0.0109739
        k(   44) = (   0.1666667  -0.4995837   0.3888889), wk =   0.0109739
        k(   45) = (   0.1666667  -0.4995837  -0.5000000), wk =   0.0054870
        k(   46) = (   0.2777778   0.0555093   0.2777778), wk =   0.0109739
        k(   47) = (   0.2777778   0.0555093   0.3888889), wk =   0.0219479
        k(   48) = (   0.2777778   0.0555093  -0.5000000), wk =   0.0109739
        k(   49) = (   0.2777778   0.1665279   0.2777778), wk =   0.0109739
        k(   50) = (   0.2777778   0.1665279   0.3888889), wk =   0.0219479
        k(   51) = (   0.2777778   0.1665279  -0.5000000), wk =   0.0109739
        k(   52) = (   0.2777778   0.2775465   0.2777778), wk =   0.0109739
        k(   53) = (   0.2777778   0.2775465   0.3888889), wk =   0.0219479
        k(   54) = (   0.2777778   0.2775465  -0.5000000), wk =   0.0109739
        k(   55) = (   0.2777778   0.3885651   0.2777778), wk =   0.0109739
        k(   56) = (   0.2777778   0.3885651   0.3888889), wk =   0.0219479
        k(   57) = (   0.2777778   0.3885651  -0.5000000), wk =   0.0109739
        k(   58) = (   0.2777778  -0.4995837   0.2777778), wk =   0.0054870
        k(   59) = (   0.2777778  -0.4995837   0.3888889), wk =   0.0109739
        k(   60) = (   0.2777778  -0.4995837  -0.5000000), wk =   0.0054870
        k(   61) = (   0.3888889   0.0555093   0.3888889), wk =   0.0109739
        k(   62) = (   0.3888889   0.0555093  -0.5000000), wk =   0.0109739
        k(   63) = (   0.3888889   0.1665279   0.3888889), wk =   0.0109739
        k(   64) = (   0.3888889   0.1665279  -0.5000000), wk =   0.0109739
        k(   65) = (   0.3888889   0.2775465   0.3888889), wk =   0.0109739
        k(   66) = (   0.3888889   0.2775465  -0.5000000), wk =   0.0109739
        k(   67) = (   0.3888889   0.3885651   0.3888889), wk =   0.0109739
        k(   68) = (   0.3888889   0.3885651  -0.5000000), wk =   0.0109739
        k(   69) = (   0.3888889  -0.4995837   0.3888889), wk =   0.0054870
        k(   70) = (   0.3888889  -0.4995837  -0.5000000), wk =   0.0054870
        k(   71) = (  -0.5000000   0.0555093  -0.5000000), wk =   0.0027435
        k(   72) = (  -0.5000000   0.1665279  -0.5000000), wk =   0.0027435
        k(   73) = (  -0.5000000   0.2775465  -0.5000000), wk =   0.0027435
        k(   74) = (  -0.5000000   0.3885651  -0.5000000), wk =   0.0027435
        k(   75) = (  -0.5000000  -0.4995837  -0.5000000), wk =   0.0013717

     Dense  grid:   179109 G-vectors     FFT dimensions: (  72,  72,  72)

     Smooth grid:    96129 G-vectors     FFT dimensions: (  60,  60,  60)

     Estimated max dynamical RAM per process >     144.88 MB

     Estimated total dynamical RAM >       5.66 GB
     Generating pointlists ...
     new r_m :   0.1787 (alat units)  1.8927 (a.u.) for type    1
     new r_m :   0.1787 (alat units)  1.8927 (a.u.) for type    2

     Check: negative/imaginary core charge=   -0.000006    0.000000

     Initial potential from superposition of free atoms

     starting charge  255.99300, renormalised to  256.00000
     Starting wfcs are  160 randomized atomic wfcs
     Checking if some PAW data can be deallocated... 

     total cpu time spent up to now is       15.0 secs

     Self-consistent Calculation

     iteration #  1     ecut=    71.00 Ry     beta= 0.10
     Davidson diagonalization with overlap
     ethr =  1.00E-02,  avg # of iterations =  3.4

     Threshold (ethr) on eigenvalues was too large:
     Diagonalizing with lowered threshold

     Davidson diagonalization with overlap
     ethr =  2.22E-04,  avg # of iterations =  3.5

     total cpu time spent up to now is      129.5 secs

     total energy              =   -5268.05180969 Ry
     Harris-Foulkes estimate   =   -5268.13623278 Ry
     estimated scf accuracy    <       0.65178882 Ry

     total magnetization       =    28.15 Bohr mag/cell
     absolute magnetization    =    28.29 Bohr mag/cell

     iteration #  2     ecut=    71.00 Ry     beta= 0.10
     Davidson diagonalization with overlap
     ethr =  2.55E-04,  avg # of iterations =  1.0

     total cpu time spent up to now is      162.8 secs

     total energy              =   -5267.99654459 Ry
     Harris-Foulkes estimate   =   -5268.06522527 Ry
     estimated scf accuracy    <       0.38777086 Ry

     total magnetization       =    28.76 Bohr mag/cell
     absolute magnetization    =    28.91 Bohr mag/cell

     iteration #  3     ecut=    71.00 Ry     beta= 0.10
     Davidson diagonalization with overlap
     ethr =  1.51E-04,  avg # of iterations =  2.8

     total cpu time spent up to now is      212.9 secs

     total energy              =   -5268.02712711 Ry
     Harris-Foulkes estimate   =   -5268.04802943 Ry
     estimated scf accuracy    <       0.56640403 Ry

     total magnetization       =    29.63 Bohr mag/cell
     absolute magnetization    =    29.93 Bohr mag/cell

     iteration #  4     ecut=    71.00 Ry     beta= 0.10
     Davidson diagonalization with overlap
     ethr =  1.51E-04,  avg # of iterations =  1.0

     total cpu time spent up to now is      246.6 secs

     total energy              =   -5268.05163147 Ry
     Harris-Foulkes estimate   =   -5268.04895959 Ry
     estimated scf accuracy    <       0.12854341 Ry

     total magnetization       =    30.23 Bohr mag/cell
     absolute magnetization    =    30.57 Bohr mag/cell

     iteration #  5     ecut=    71.00 Ry     beta= 0.10
     Davidson diagonalization with overlap
     ethr =  5.02E-05,  avg # of iterations =  1.1

     total cpu time spent up to now is      280.4 secs

     total energy              =   -5268.10774732 Ry
     Harris-Foulkes estimate   =   -5268.05366030 Ry
     estimated scf accuracy    <       0.10596617 Ry

     total magnetization       =    30.29 Bohr mag/cell
     absolute magnetization    =    30.66 Bohr mag/cell

     iteration #  6     ecut=    71.00 Ry     beta= 0.10
     Davidson diagonalization with overlap
     ethr =  4.14E-05,  avg # of iterations =  3.4

     negative rho (up, down):  0.000E+00 4.158E-04

     total cpu time spent up to now is      344.8 secs

     total energy              =   -5268.16056119 Ry
     Harris-Foulkes estimate   =   -5268.15326432 Ry
     estimated scf accuracy    <       0.17119681 Ry

     total magnetization       =    31.02 Bohr mag/cell
     absolute magnetization    =    31.78 Bohr mag/cell

     iteration #  7     ecut=    71.00 Ry     beta= 0.10
     Davidson diagonalization with overlap
     ethr =  4.14E-05,  avg # of iterations =  2.6

     negative rho (up, down):  0.000E+00 1.316E-03

     total cpu time spent up to now is      394.7 secs

     total energy              =   -5268.17526396 Ry
     Harris-Foulkes estimate   =   -5268.17533309 Ry
     estimated scf accuracy    <       0.05557814 Ry

     total magnetization       =    31.79 Bohr mag/cell
     absolute magnetization    =    32.91 Bohr mag/cell

     iteration #  8     ecut=    71.00 Ry     beta= 0.10
     Davidson diagonalization with overlap
     ethr =  2.17E-05,  avg # of iterations =  2.3

     negative rho (up, down):  0.000E+00 1.718E-03

     total cpu time spent up to now is      441.1 secs

     total energy              =   -5268.18385187 Ry
     Harris-Foulkes estimate   =   -5268.18101619 Ry
     estimated scf accuracy    <       0.02882411 Ry

     total magnetization       =    32.16 Bohr mag/cell
     absolute magnetization    =    33.49 Bohr mag/cell

     iteration #  9     ecut=    71.00 Ry     beta= 0.10
     Davidson diagonalization with overlap
     ethr =  1.13E-05,  avg # of iterations =  1.1

     negative rho (up, down):  0.000E+00 2.385E-03

     total cpu time spent up to now is      475.7 secs

     total energy              =   -5268.18759831 Ry
     Harris-Foulkes estimate   =   -5268.18493109 Ry
     estimated scf accuracy    <       0.01027687 Ry

     total magnetization       =    32.33 Bohr mag/cell
     absolute magnetization    =    33.71 Bohr mag/cell

     iteration # 10     ecut=    71.00 Ry     beta= 0.10
     Davidson diagonalization with overlap
     ethr =  4.01E-06,  avg # of iterations =  3.2

     negative rho (up, down):  0.000E+00 2.568E-03

     total cpu time spent up to now is      528.3 secs

     total energy              =   -5268.18895944 Ry
     Harris-Foulkes estimate   =   -5268.18895413 Ry
     estimated scf accuracy    <       0.00214968 Ry

     total magnetization       =    32.60 Bohr mag/cell
     absolute magnetization    =    34.19 Bohr mag/cell

     iteration # 11     ecut=    71.00 Ry     beta= 0.10
     Davidson diagonalization with overlap
     ethr =  8.40E-07,  avg # of iterations =  2.7

     negative rho (up, down):  0.000E+00 2.415E-03

     total cpu time spent up to now is      576.1 secs

     total energy              =   -5268.18924251 Ry
     Harris-Foulkes estimate   =   -5268.18913817 Ry
     estimated scf accuracy    <       0.00071939 Ry

     total magnetization       =    32.69 Bohr mag/cell
     absolute magnetization    =    34.35 Bohr mag/cell

     iteration # 12     ecut=    71.00 Ry     beta= 0.10
     Davidson diagonalization with overlap
     ethr =  2.81E-07,  avg # of iterations =  2.2

     negative rho (up, down):  0.000E+00 2.389E-03

     total cpu time spent up to now is      619.3 secs

     total energy              =   -5268.18951419 Ry
     Harris-Foulkes estimate   =   -5268.18930353 Ry
     estimated scf accuracy    <       0.00065568 Ry

     total magnetization       =    32.71 Bohr mag/cell
     absolute magnetization    =    34.38 Bohr mag/cell

     iteration # 13     ecut=    71.00 Ry     beta= 0.10
     Davidson diagonalization with overlap
     ethr =  2.56E-07,  avg # of iterations =  2.0

     negative rho (up, down):  0.000E+00 2.471E-03

     total cpu time spent up to now is      662.8 secs

     total energy              =   -5268.18963492 Ry
     Harris-Foulkes estimate   =   -5268.18957462 Ry
     estimated scf accuracy    <       0.00041710 Ry

     total magnetization       =    32.77 Bohr mag/cell
     absolute magnetization    =    34.47 Bohr mag/cell

     iteration # 14     ecut=    71.00 Ry     beta= 0.10
     Davidson diagonalization with overlap
     ethr =  1.63E-07,  avg # of iterations =  2.9

     negative rho (up, down):  0.000E+00 2.396E-03

     total cpu time spent up to now is      716.5 secs

     total energy              =   -5268.18972801 Ry
     Harris-Foulkes estimate   =   -5268.18971400 Ry
     estimated scf accuracy    <       0.00010587 Ry

     total magnetization       =    32.84 Bohr mag/cell
     absolute magnetization    =    34.60 Bohr mag/cell

     iteration # 15     ecut=    71.00 Ry     beta= 0.10
     Davidson diagonalization with overlap
     ethr =  4.14E-08,  avg # of iterations =  2.8

     negative rho (up, down):  0.000E+00 2.449E-03

     total cpu time spent up to now is      767.3 secs

     total energy              =   -5268.18974705 Ry
     Harris-Foulkes estimate   =   -5268.18974609 Ry
     estimated scf accuracy    <       0.00007176 Ry

     total magnetization       =    32.85 Bohr mag/cell
     absolute magnetization    =    34.59 Bohr mag/cell

     iteration # 16     ecut=    71.00 Ry     beta= 0.10
     Davidson diagonalization with overlap
     ethr =  2.80E-08,  avg # of iterations =  3.1

     negative rho (up, down):  0.000E+00 2.427E-03

     total cpu time spent up to now is      823.7 secs

     total energy              =   -5268.18977833 Ry
     Harris-Foulkes estimate   =   -5268.18977391 Ry
     estimated scf accuracy    <       0.00001601 Ry

     total magnetization       =    32.89 Bohr mag/cell
     absolute magnetization    =    34.67 Bohr mag/cell

     iteration # 17     ecut=    71.00 Ry     beta= 0.10
     Davidson diagonalization with overlap
     ethr =  6.25E-09,  avg # of iterations =  2.8

     negative rho (up, down):  0.000E+00 2.440E-03

     total cpu time spent up to now is      872.4 secs

     total energy              =   -5268.18978094 Ry
     Harris-Foulkes estimate   =   -5268.18978100 Ry
     estimated scf accuracy    <       0.00001120 Ry

     total magnetization       =    32.90 Bohr mag/cell
     absolute magnetization    =    34.66 Bohr mag/cell

     iteration # 18     ecut=    71.00 Ry     beta= 0.10
     Davidson diagonalization with overlap
     ethr =  4.38E-09,  avg # of iterations =  1.3

     negative rho (up, down):  0.000E+00 2.444E-03

     total cpu time spent up to now is      907.6 secs

     total energy              =   -5268.18978310 Ry
     Harris-Foulkes estimate   =   -5268.18978178 Ry
     estimated scf accuracy    <       0.00000728 Ry

     total magnetization       =    32.90 Bohr mag/cell
     absolute magnetization    =    34.67 Bohr mag/cell

     iteration # 19     ecut=    71.00 Ry     beta= 0.10
     Davidson diagonalization with overlap
     ethr =  2.84E-09,  avg # of iterations =  2.5

     negative rho (up, down):  0.000E+00 2.444E-03

     total cpu time spent up to now is      952.7 secs

     total energy              =   -5268.18978452 Ry
     Harris-Foulkes estimate   =   -5268.18978417 Ry
     estimated scf accuracy    <       0.00000289 Ry

     total magnetization       =    32.91 Bohr mag/cell
     absolute magnetization    =    34.68 Bohr mag/cell

     iteration # 20     ecut=    71.00 Ry     beta= 0.10
     Davidson diagonalization with overlap
     ethr =  1.13E-09,  avg # of iterations =  1.6

     negative rho (up, down):  0.000E+00 2.449E-03

     total cpu time spent up to now is      990.4 secs

     total energy              =   -5268.18978535 Ry
     Harris-Foulkes estimate   =   -5268.18978476 Ry
     estimated scf accuracy    <       0.00000181 Ry

     total magnetization       =    32.91 Bohr mag/cell
     absolute magnetization    =    34.68 Bohr mag/cell

     iteration # 21     ecut=    71.00 Ry     beta= 0.10
     Davidson diagonalization with overlap
     ethr =  7.08E-10,  avg # of iterations =  1.1

     negative rho (up, down):  0.000E+00 2.469E-03
 
     Magnetic moment per site:
     atom:    1    charge:   14.3672    magn:    2.0997    constr:    0.0000
     atom:    2    charge:   14.3670    magn:    2.1027    constr:    0.0000
     atom:    3    charge:   14.3671    magn:    2.0994    constr:    0.0000
     atom:    4    charge:   14.3670    magn:    2.1027    constr:    0.0000
     atom:    5    charge:   14.3671    magn:    2.1017    constr:    0.0000
     atom:    6    charge:   14.3670    magn:    2.1027    constr:    0.0000
     atom:    7    charge:   14.3671    magn:    2.1011    constr:    0.0000
     atom:    8    charge:   14.3670    magn:    2.1027    constr:    0.0000
     atom:    9    charge:   14.3671    magn:    2.0994    constr:    0.0000
     atom:   10    charge:   14.3670    magn:    2.1027    constr:    0.0000
     atom:   11    charge:   14.3672    magn:    2.0990    constr:    0.0000
     atom:   12    charge:   14.3670    magn:    2.1027    constr:    0.0000
     atom:   13    charge:   14.3671    magn:    2.1011    constr:    0.0000
     atom:   14    charge:   14.3670    magn:    2.1027    constr:    0.0000
     atom:   15    charge:   14.3671    magn:    2.1006    constr:    0.0000
     atom:   16    charge:   14.3670    magn:    2.1027    constr:    0.0000

     total cpu time spent up to now is     1027.2 secs

     End of self-consistent calculation

     Number of k-points >= 100: set verbosity='high' to print the bands.

     the Fermi energy is    18.9543 ev

!    total energy              =   -5268.18978715 Ry
     Harris-Foulkes estimate   =   -5268.18978546 Ry
     estimated scf accuracy    <       0.00000087 Ry

     total all-electron energy =    -40728.934316 Ry

     The total energy is the sum of the following terms:

     one-electron contribution =   -1708.66745439 Ry
     hartree contribution      =    1022.72366590 Ry
     xc contribution           =    -444.25094808 Ry
     ewald contribution        =   -2813.44865078 Ry
     one-center paw contrib.   =   -1324.67094503 Ry
     smearing contrib. (-TS)   =       0.12454523 Ry

     total magnetization       =    32.91 Bohr mag/cell
     absolute magnetization    =    34.68 Bohr mag/cell

     convergence has been achieved in  21 iterations

     negative rho (up, down):  0.000E+00 2.469E-03

     Forces acting on atoms (cartesian axes, Ry/au):

     atom    1 type  1   force =     0.00000000    0.00000000   -0.00000000
     atom    2 type  2   force =    -0.00004320    0.00040760   -0.00004320
     atom    3 type  1   force =     0.00000000    0.00000000    0.00000000
     atom    4 type  2   force =    -0.00004320    0.00040760    0.00004320
     atom    5 type  1   force =     0.00000000   -0.00000000    0.00000000
     atom    6 type  2   force =    -0.00004320   -0.00040760   -0.00004320
     atom    7 type  1   force =     0.00000000   -0.00000000    0.00000000
     atom    8 type  2   force =    -0.00004320   -0.00040760    0.00004320
     atom    9 type  1   force =     0.00000000   -0.00000000    0.00000000
     atom   10 type  2   force =     0.00004320    0.00040760   -0.00004320
     atom   11 type  1   force =     0.00000000   -0.00000000    0.00000000
     atom   12 type  2   force =     0.00004320    0.00040760    0.00004320
     atom   13 type  1   force =     0.00000000   -0.00000000    0.00000000
     atom   14 type  2   force =     0.00004320   -0.00040760   -0.00004320
     atom   15 type  1   force =     0.00000000    0.00000000    0.00000000
     atom   16 type  2   force =     0.00004320   -0.00040760    0.00004320

     Total force =     0.001166     Total SCF correction =     0.003974
     SCF correction compared to forces is large: reduce conv_thr to get better values


     Computing stress (Cartesian axis) and pressure


     negative rho (up, down):  0.000E+00 2.469E-03
          total   stress  (Ry/bohr**3)                   (kbar)     P=   -4.34
  -0.00002711   0.00000000   0.00000000         -3.99      0.00      0.00
   0.00000000  -0.00003437   0.00000000          0.00     -5.06      0.00
   0.00000000   0.00000000  -0.00002711          0.00      0.00     -3.99


     Writing output data file khxWmkJdoUtMWJSx.save/
 
     init_run     :     13.02s CPU     13.69s WALL (       1 calls)
     electrons    :    982.03s CPU   1012.18s WALL (       1 calls)
     forces       :      4.72s CPU      5.10s WALL (       1 calls)
     stress       :     12.77s CPU     12.89s WALL (       1 calls)

     Called by init_run:
     wfcinit      :     12.58s CPU     13.13s WALL (       1 calls)
     potinit      :      0.22s CPU      0.25s WALL (       1 calls)
     hinit0       :      0.11s CPU      0.12s WALL (       1 calls)

     Called by electrons:
     c_bands      :    884.87s CPU    909.58s WALL (      22 calls)
     sum_band     :     92.82s CPU     97.71s WALL (      22 calls)
     v_of_rho     :      0.33s CPU      0.33s WALL (      22 calls)
     newd         :      0.67s CPU      0.87s WALL (      22 calls)
     PAW_pot      :      3.30s CPU      3.56s WALL (      22 calls)
     mix_rho      :      0.14s CPU      0.15s WALL (      22 calls)

     Called by c_bands:
     init_us_2    :      4.89s CPU      4.94s WALL (    7050 calls)
     cegterg      :    860.52s CPU    884.96s WALL (    3300 calls)

     Called by sum_band:
     sum_band:bec :      1.37s CPU      1.39s WALL (    3300 calls)
     addusdens    :      1.19s CPU      1.36s WALL (      22 calls)

     Called by *egterg:
     h_psi        :    365.46s CPU    380.58s WALL (   11024 calls)
     s_psi        :     20.38s CPU     20.48s WALL (   11024 calls)
     g_psi        :      0.83s CPU      0.84s WALL (    7574 calls)
     cdiaghg      :    388.48s CPU    389.69s WALL (   10724 calls)

     Called by h_psi:
     h_psi:pot    :    363.18s CPU    378.28s WALL (   11024 calls)
     h_psi:calbec :     30.29s CPU     35.05s WALL (   11024 calls)
     vloc_psi     :    312.67s CPU    322.89s WALL (   11024 calls)
     add_vuspsi   :     20.12s CPU     20.26s WALL (   11024 calls)

     General routines
     calbec       :     46.14s CPU     53.64s WALL (   15074 calls)
     fft          :      0.38s CPU      0.41s WALL (     592 calls)
     ffts         :      0.06s CPU      0.23s WALL (      88 calls)
     fftw         :    364.42s CPU    376.29s WALL ( 2756494 calls)
     interpolate  :      0.05s CPU      0.13s WALL (      44 calls)
 
     Parallel routines
     fft_scatt_xy :     24.04s CPU     24.80s WALL ( 2757174 calls)
     fft_scatt_yz :    244.59s CPU    252.79s WALL ( 2757174 calls)
 
     PWSCF        : 17m 2.09s CPU    17m59.59s WALL

 
   This run was terminated on:  13: 8:20   9Sep2020            

=------------------------------------------------------------------------------=
   JOB DONE.
=------------------------------------------------------------------------------=
