--------------------------------------------------------------------------
WARNING: No preset parameters were found for the device that Open MPI
detected:

  Local host:            bear-pg0206u39a
  Device name:           mlx5_0
  Device vendor ID:      0x02c9
  Device vendor part ID: 4123

Default device parameters will be used, which may result in lower
performance.  You can edit any of the files specified by the
btl_openib_device_param_files MCA parameter to set values for your
device.

NOTE: You can turn off this warning by setting the MCA parameter
      btl_openib_warn_no_device_params_found to 0.
--------------------------------------------------------------------------
--------------------------------------------------------------------------
WARNING: There was an error initializing an OpenFabrics device.

  Local host:   bear-pg0206u39a
  Local device: mlx5_0
--------------------------------------------------------------------------

     Program PWSCF v.6.3 starts on  9Sep2020 at 13: 8:22 

     This program is part of the open-source Quantum ESPRESSO suite
     for quantum simulation of materials; please cite
         "P. Giannozzi et al., J. Phys.:Condens. Matter 21 395502 (2009);
         "P. Giannozzi et al., J. Phys.:Condens. Matter 29 465901 (2017);
          URL http://www.quantum-espresso.org", 
     in publications or presentations arising from this work. More details at
     http://www.quantum-espresso.org/quote

     Parallel version (MPI & OpenMP), running on      40 processor cores
     Number of MPI processes:                40
     Threads/MPI process:                     1

     MPI processes distributed on     1 nodes
     R & G space division:  proc/nbgrp/npool/nimage =      40
     Reading input from wd/ec/ec_2_003.in
Warning: card &IONS ignored
Warning: card ION_DYNAMICS = 'BFGS', ignored
Warning: card / ignored
Warning: card &CELL ignored
Warning: card CELL_DYNAMICS = 'BFGS', ignored
Warning: card CELL_FACTOR = 2.0, ignored
Warning: card PRESS = 0.0, ignored
Warning: card / ignored

     Current dimensions of program PWSCF are:
     Max number of different atomic species (ntypx) = 10
     Max number of k-points (npk) =  40000
     Max angular momentum in pseudopotentials (lmaxx) =  3
               file Fe.pbe-spn-kjpaw_psl.1.0.0.UPF: wavefunction(s)  3P 3D renormalized
               file Fe.pbe-spn-kjpaw_psl.1.0.0.UPF: wavefunction(s)  3P 3D renormalized

     Subspace diagonalization in iterative solution of the eigenvalue problem:
     a serial algorithm will be used

     Found symmetry operation: I + (  0.0000  0.0000 -0.5000)
     This is a supercell, fractional translations are disabled
 
     Parallelization info
     --------------------
     sticks:   dense  smooth     PW     G-vecs:    dense   smooth      PW
     Min          96      63     17                 4479     2403     357
     Max          97      64     18                 4482     2408     362
     Sum        3843    2549    717               179215    96193   14363
 


     bravais-lattice index     =            0
     lattice parameter (alat)  =      10.5935  a.u.
     unit-cell volume          =    1190.8143 (a.u.)^3
     number of atoms/cell      =           16
     number of atomic types    =            2
     number of electrons       =       256.00
     number of Kohn-Sham states=          154
     kinetic-energy cutoff     =      71.0000  Ry
     charge density cutoff     =     430.0000  Ry
     convergence threshold     =      1.0E-06
     mixing beta               =       0.1000
     number of iterations used =           10  plain     mixing
     Exchange-correlation      = SLA PW PBX PBC ( 1  4  3  4 0 0)

     celldm(1)=  10.593520  celldm(2)=   0.000000  celldm(3)=   0.000000
     celldm(4)=   0.000000  celldm(5)=   0.000000  celldm(6)=   0.000000

     crystal axes: (cart. coord. in units of alat)
               a(1) = (   1.000000   0.000000   0.000000 )  
               a(2) = (   0.000000   1.001667   0.000000 )  
               a(3) = (   0.000000   0.000000   1.000000 )  

     reciprocal axes: (cart. coord. in units 2 pi/alat)
               b(1) = (  1.000000  0.000000  0.000000 )  
               b(2) = (  0.000000  0.998336  0.000000 )  
               b(3) = (  0.000000  0.000000  1.000000 )  


     PseudoPot. # 1 for Fe read from file:
     /rds/homes/b/bxp912/pp/Fe.pbe-spn-kjpaw_psl.1.0.0.UPF
     MD5 check sum: 42f43b795421b414b0dc916aa790dbcb
     Pseudo is Projector augmented-wave + core cor, Zval = 16.0
     Generated using "atomic" code by A. Dal Corso v.6.3
     Shape of augmentation charge: PSQ
     Using radial grid of 1191 points,  6 beta functions with: 
                l(1) =   0
                l(2) =   0
                l(3) =   1
                l(4) =   1
                l(5) =   2
                l(6) =   2
     Q(r) pseudized with 0 coefficients 


     PseudoPot. # 2 for Fe read from file:
     /rds/homes/b/bxp912/pp/Fe.pbe-spn-kjpaw_psl.1.0.0.UPF
     MD5 check sum: 42f43b795421b414b0dc916aa790dbcb
     Pseudo is Projector augmented-wave + core cor, Zval = 16.0
     Generated using "atomic" code by A. Dal Corso v.6.3
     Shape of augmentation charge: PSQ
     Using radial grid of 1191 points,  6 beta functions with: 
                l(1) =   0
                l(2) =   0
                l(3) =   1
                l(4) =   1
                l(5) =   2
                l(6) =   2
     Q(r) pseudized with 0 coefficients 


     atomic species   valence    mass     pseudopotential
        Fe1           16.00    55.84500     Fe( 1.00)
        Fe2           16.00    55.84500     Fe( 1.00)

     Starting magnetic structure 
     atomic species   magnetization
        Fe1          0.100
        Fe2          0.100

     16 Sym. Ops., with inversion, found



   Cartesian axes

     site n.     atom                  positions (alat units)
         1           Fe1 tau(   1) = (   0.0000000   0.0000000   0.0000000  )
         2           Fe2 tau(   2) = (   0.2500004   0.2504171   0.2500004  )
         3           Fe1 tau(   3) = (   0.0000000   0.0000000   0.5000000  )
         4           Fe2 tau(   4) = (   0.2500004   0.2504171   0.7499996  )
         5           Fe1 tau(   5) = (   0.0000000   0.5008333   0.0000000  )
         6           Fe2 tau(   6) = (   0.2500004   0.7512496   0.2500004  )
         7           Fe1 tau(   7) = (   0.0000000   0.5008333   0.5000000  )
         8           Fe2 tau(   8) = (   0.2500004   0.7512496   0.7499996  )
         9           Fe1 tau(   9) = (   0.5000000   0.0000000   0.0000000  )
        10           Fe2 tau(  10) = (   0.7499996   0.2504171   0.2500004  )
        11           Fe1 tau(  11) = (   0.5000000   0.0000000   0.5000000  )
        12           Fe2 tau(  12) = (   0.7499996   0.2504171   0.7499996  )
        13           Fe1 tau(  13) = (   0.5000000   0.5008333   0.0000000  )
        14           Fe2 tau(  14) = (   0.7499996   0.7512496   0.2500004  )
        15           Fe1 tau(  15) = (   0.5000000   0.5008333   0.5000000  )
        16           Fe2 tau(  16) = (   0.7499996   0.7512496   0.7499996  )

     number of k points=    75  Marzari-Vanderbilt smearing, width (Ry)=  0.0400
                       cart. coord. in units 2pi/alat
        k(    1) = (   0.0555556   0.0554631   0.0555556), wk =   0.0109739
        k(    2) = (   0.0555556   0.0554631   0.1666667), wk =   0.0219479
        k(    3) = (   0.0555556   0.0554631   0.2777778), wk =   0.0219479
        k(    4) = (   0.0555556   0.0554631   0.3888889), wk =   0.0219479
        k(    5) = (   0.0555556   0.0554631  -0.5000000), wk =   0.0109739
        k(    6) = (   0.0555556   0.1663894   0.0555556), wk =   0.0109739
        k(    7) = (   0.0555556   0.1663894   0.1666667), wk =   0.0219479
        k(    8) = (   0.0555556   0.1663894   0.2777778), wk =   0.0219479
        k(    9) = (   0.0555556   0.1663894   0.3888889), wk =   0.0219479
        k(   10) = (   0.0555556   0.1663894  -0.5000000), wk =   0.0109739
        k(   11) = (   0.0555556   0.2773156   0.0555556), wk =   0.0109739
        k(   12) = (   0.0555556   0.2773156   0.1666667), wk =   0.0219479
        k(   13) = (   0.0555556   0.2773156   0.2777778), wk =   0.0219479
        k(   14) = (   0.0555556   0.2773156   0.3888889), wk =   0.0219479
        k(   15) = (   0.0555556   0.2773156  -0.5000000), wk =   0.0109739
        k(   16) = (   0.0555556   0.3882418   0.0555556), wk =   0.0109739
        k(   17) = (   0.0555556   0.3882418   0.1666667), wk =   0.0219479
        k(   18) = (   0.0555556   0.3882418   0.2777778), wk =   0.0219479
        k(   19) = (   0.0555556   0.3882418   0.3888889), wk =   0.0219479
        k(   20) = (   0.0555556   0.3882418  -0.5000000), wk =   0.0109739
        k(   21) = (   0.0555556  -0.4991681   0.0555556), wk =   0.0054870
        k(   22) = (   0.0555556  -0.4991681   0.1666667), wk =   0.0109739
        k(   23) = (   0.0555556  -0.4991681   0.2777778), wk =   0.0109739
        k(   24) = (   0.0555556  -0.4991681   0.3888889), wk =   0.0109739
        k(   25) = (   0.0555556  -0.4991681  -0.5000000), wk =   0.0054870
        k(   26) = (   0.1666667   0.0554631   0.1666667), wk =   0.0109739
        k(   27) = (   0.1666667   0.0554631   0.2777778), wk =   0.0219479
        k(   28) = (   0.1666667   0.0554631   0.3888889), wk =   0.0219479
        k(   29) = (   0.1666667   0.0554631  -0.5000000), wk =   0.0109739
        k(   30) = (   0.1666667   0.1663894   0.1666667), wk =   0.0109739
        k(   31) = (   0.1666667   0.1663894   0.2777778), wk =   0.0219479
        k(   32) = (   0.1666667   0.1663894   0.3888889), wk =   0.0219479
        k(   33) = (   0.1666667   0.1663894  -0.5000000), wk =   0.0109739
        k(   34) = (   0.1666667   0.2773156   0.1666667), wk =   0.0109739
        k(   35) = (   0.1666667   0.2773156   0.2777778), wk =   0.0219479
        k(   36) = (   0.1666667   0.2773156   0.3888889), wk =   0.0219479
        k(   37) = (   0.1666667   0.2773156  -0.5000000), wk =   0.0109739
        k(   38) = (   0.1666667   0.3882418   0.1666667), wk =   0.0109739
        k(   39) = (   0.1666667   0.3882418   0.2777778), wk =   0.0219479
        k(   40) = (   0.1666667   0.3882418   0.3888889), wk =   0.0219479
        k(   41) = (   0.1666667   0.3882418  -0.5000000), wk =   0.0109739
        k(   42) = (   0.1666667  -0.4991681   0.1666667), wk =   0.0054870
        k(   43) = (   0.1666667  -0.4991681   0.2777778), wk =   0.0109739
        k(   44) = (   0.1666667  -0.4991681   0.3888889), wk =   0.0109739
        k(   45) = (   0.1666667  -0.4991681  -0.5000000), wk =   0.0054870
        k(   46) = (   0.2777778   0.0554631   0.2777778), wk =   0.0109739
        k(   47) = (   0.2777778   0.0554631   0.3888889), wk =   0.0219479
        k(   48) = (   0.2777778   0.0554631  -0.5000000), wk =   0.0109739
        k(   49) = (   0.2777778   0.1663894   0.2777778), wk =   0.0109739
        k(   50) = (   0.2777778   0.1663894   0.3888889), wk =   0.0219479
        k(   51) = (   0.2777778   0.1663894  -0.5000000), wk =   0.0109739
        k(   52) = (   0.2777778   0.2773156   0.2777778), wk =   0.0109739
        k(   53) = (   0.2777778   0.2773156   0.3888889), wk =   0.0219479
        k(   54) = (   0.2777778   0.2773156  -0.5000000), wk =   0.0109739
        k(   55) = (   0.2777778   0.3882418   0.2777778), wk =   0.0109739
        k(   56) = (   0.2777778   0.3882418   0.3888889), wk =   0.0219479
        k(   57) = (   0.2777778   0.3882418  -0.5000000), wk =   0.0109739
        k(   58) = (   0.2777778  -0.4991681   0.2777778), wk =   0.0054870
        k(   59) = (   0.2777778  -0.4991681   0.3888889), wk =   0.0109739
        k(   60) = (   0.2777778  -0.4991681  -0.5000000), wk =   0.0054870
        k(   61) = (   0.3888889   0.0554631   0.3888889), wk =   0.0109739
        k(   62) = (   0.3888889   0.0554631  -0.5000000), wk =   0.0109739
        k(   63) = (   0.3888889   0.1663894   0.3888889), wk =   0.0109739
        k(   64) = (   0.3888889   0.1663894  -0.5000000), wk =   0.0109739
        k(   65) = (   0.3888889   0.2773156   0.3888889), wk =   0.0109739
        k(   66) = (   0.3888889   0.2773156  -0.5000000), wk =   0.0109739
        k(   67) = (   0.3888889   0.3882418   0.3888889), wk =   0.0109739
        k(   68) = (   0.3888889   0.3882418  -0.5000000), wk =   0.0109739
        k(   69) = (   0.3888889  -0.4991681   0.3888889), wk =   0.0054870
        k(   70) = (   0.3888889  -0.4991681  -0.5000000), wk =   0.0054870
        k(   71) = (  -0.5000000   0.0554631  -0.5000000), wk =   0.0027435
        k(   72) = (  -0.5000000   0.1663894  -0.5000000), wk =   0.0027435
        k(   73) = (  -0.5000000   0.2773156  -0.5000000), wk =   0.0027435
        k(   74) = (  -0.5000000   0.3882418  -0.5000000), wk =   0.0027435
        k(   75) = (  -0.5000000  -0.4991681  -0.5000000), wk =   0.0013717

     Dense  grid:   179215 G-vectors     FFT dimensions: (  72,  72,  72)

     Smooth grid:    96193 G-vectors     FFT dimensions: (  60,  60,  60)

     Estimated max dynamical RAM per process >     144.89 MB

     Estimated total dynamical RAM >       5.66 GB
     Generating pointlists ...
     new r_m :   0.1787 (alat units)  1.8932 (a.u.) for type    1
     new r_m :   0.1787 (alat units)  1.8932 (a.u.) for type    2

     Check: negative/imaginary core charge=   -0.000006    0.000000

     Initial potential from superposition of free atoms

     starting charge  255.99300, renormalised to  256.00000
     Starting wfcs are  160 randomized atomic wfcs
     Checking if some PAW data can be deallocated... 

     total cpu time spent up to now is       15.0 secs

     Self-consistent Calculation

     iteration #  1     ecut=    71.00 Ry     beta= 0.10
     Davidson diagonalization with overlap
     ethr =  1.00E-02,  avg # of iterations =  3.3

     Threshold (ethr) on eigenvalues was too large:
     Diagonalizing with lowered threshold

     Davidson diagonalization with overlap
     ethr =  2.21E-04,  avg # of iterations =  3.6

     total cpu time spent up to now is      129.6 secs

     total energy              =   -5268.05164783 Ry
     Harris-Foulkes estimate   =   -5268.13579556 Ry
     estimated scf accuracy    <       0.65060389 Ry

     total magnetization       =    28.17 Bohr mag/cell
     absolute magnetization    =    28.30 Bohr mag/cell

     iteration #  2     ecut=    71.00 Ry     beta= 0.10
     Davidson diagonalization with overlap
     ethr =  2.54E-04,  avg # of iterations =  1.0

     total cpu time spent up to now is      163.4 secs

     total energy              =   -5267.99680279 Ry
     Harris-Foulkes estimate   =   -5268.06505525 Ry
     estimated scf accuracy    <       0.38741740 Ry

     total magnetization       =    28.77 Bohr mag/cell
     absolute magnetization    =    28.93 Bohr mag/cell

     iteration #  3     ecut=    71.00 Ry     beta= 0.10
     Davidson diagonalization with overlap
     ethr =  1.51E-04,  avg # of iterations =  2.8

     total cpu time spent up to now is      213.3 secs

     total energy              =   -5268.02708617 Ry
     Harris-Foulkes estimate   =   -5268.04808114 Ry
     estimated scf accuracy    <       0.56896656 Ry

     total magnetization       =    29.64 Bohr mag/cell
     absolute magnetization    =    29.94 Bohr mag/cell

     iteration #  4     ecut=    71.00 Ry     beta= 0.10
     Davidson diagonalization with overlap
     ethr =  1.51E-04,  avg # of iterations =  1.0

     total cpu time spent up to now is      246.9 secs

     total energy              =   -5268.05170498 Ry
     Harris-Foulkes estimate   =   -5268.04903908 Ry
     estimated scf accuracy    <       0.12890612 Ry

     total magnetization       =    30.24 Bohr mag/cell
     absolute magnetization    =    30.58 Bohr mag/cell

     iteration #  5     ecut=    71.00 Ry     beta= 0.10
     Davidson diagonalization with overlap
     ethr =  5.04E-05,  avg # of iterations =  1.1

     total cpu time spent up to now is      280.9 secs

     total energy              =   -5268.10787320 Ry
     Harris-Foulkes estimate   =   -5268.05374377 Ry
     estimated scf accuracy    <       0.10617751 Ry

     total magnetization       =    30.31 Bohr mag/cell
     absolute magnetization    =    30.67 Bohr mag/cell

     iteration #  6     ecut=    71.00 Ry     beta= 0.10
     Davidson diagonalization with overlap
     ethr =  4.15E-05,  avg # of iterations =  3.4

     negative rho (up, down):  0.000E+00 4.262E-04

     total cpu time spent up to now is      345.6 secs

     total energy              =   -5268.16086922 Ry
     Harris-Foulkes estimate   =   -5268.15335492 Ry
     estimated scf accuracy    <       0.17121356 Ry

     total magnetization       =    31.03 Bohr mag/cell
     absolute magnetization    =    31.79 Bohr mag/cell

     iteration #  7     ecut=    71.00 Ry     beta= 0.10
     Davidson diagonalization with overlap
     ethr =  4.15E-05,  avg # of iterations =  2.6

     negative rho (up, down):  0.000E+00 1.314E-03

     total cpu time spent up to now is      395.8 secs

     total energy              =   -5268.17556527 Ry
     Harris-Foulkes estimate   =   -5268.17572207 Ry
     estimated scf accuracy    <       0.05553859 Ry

     total magnetization       =    31.81 Bohr mag/cell
     absolute magnetization    =    32.93 Bohr mag/cell

     iteration #  8     ecut=    71.00 Ry     beta= 0.10
     Davidson diagonalization with overlap
     ethr =  2.17E-05,  avg # of iterations =  2.3

     negative rho (up, down):  0.000E+00 1.719E-03

     total cpu time spent up to now is      442.0 secs

     total energy              =   -5268.18407836 Ry
     Harris-Foulkes estimate   =   -5268.18124677 Ry
     estimated scf accuracy    <       0.02907260 Ry

     total magnetization       =    32.18 Bohr mag/cell
     absolute magnetization    =    33.50 Bohr mag/cell

     iteration #  9     ecut=    71.00 Ry     beta= 0.10
     Davidson diagonalization with overlap
     ethr =  1.14E-05,  avg # of iterations =  1.1

     negative rho (up, down):  0.000E+00 2.377E-03

     total cpu time spent up to now is      476.2 secs

     total energy              =   -5268.18786702 Ry
     Harris-Foulkes estimate   =   -5268.18517416 Ry
     estimated scf accuracy    <       0.01030180 Ry

     total magnetization       =    32.34 Bohr mag/cell
     absolute magnetization    =    33.73 Bohr mag/cell

     iteration # 10     ecut=    71.00 Ry     beta= 0.10
     Davidson diagonalization with overlap
     ethr =  4.02E-06,  avg # of iterations =  3.2

     negative rho (up, down):  0.000E+00 2.572E-03

     total cpu time spent up to now is      530.9 secs

     total energy              =   -5268.18921474 Ry
     Harris-Foulkes estimate   =   -5268.18919847 Ry
     estimated scf accuracy    <       0.00222541 Ry

     total magnetization       =    32.61 Bohr mag/cell
     absolute magnetization    =    34.20 Bohr mag/cell

     iteration # 11     ecut=    71.00 Ry     beta= 0.10
     Davidson diagonalization with overlap
     ethr =  8.69E-07,  avg # of iterations =  2.7

     negative rho (up, down):  0.000E+00 2.420E-03

     total cpu time spent up to now is      578.7 secs

     total energy              =   -5268.18951027 Ry
     Harris-Foulkes estimate   =   -5268.18940720 Ry
     estimated scf accuracy    <       0.00072279 Ry

     total magnetization       =    32.70 Bohr mag/cell
     absolute magnetization    =    34.37 Bohr mag/cell

     iteration # 12     ecut=    71.00 Ry     beta= 0.10
     Davidson diagonalization with overlap
     ethr =  2.82E-07,  avg # of iterations =  2.2

     negative rho (up, down):  0.000E+00 2.391E-03

     total cpu time spent up to now is      622.1 secs

     total energy              =   -5268.18978393 Ry
     Harris-Foulkes estimate   =   -5268.18957052 Ry
     estimated scf accuracy    <       0.00065099 Ry

     total magnetization       =    32.73 Bohr mag/cell
     absolute magnetization    =    34.39 Bohr mag/cell

     iteration # 13     ecut=    71.00 Ry     beta= 0.10
     Davidson diagonalization with overlap
     ethr =  2.54E-07,  avg # of iterations =  2.0

     negative rho (up, down):  0.000E+00 2.473E-03

     total cpu time spent up to now is      665.7 secs

     total energy              =   -5268.18990799 Ry
     Harris-Foulkes estimate   =   -5268.18984576 Ry
     estimated scf accuracy    <       0.00042550 Ry

     total magnetization       =    32.78 Bohr mag/cell
     absolute magnetization    =    34.48 Bohr mag/cell

     iteration # 14     ecut=    71.00 Ry     beta= 0.10
     Davidson diagonalization with overlap
     ethr =  1.66E-07,  avg # of iterations =  3.0

     negative rho (up, down):  0.000E+00 2.400E-03

     total cpu time spent up to now is      718.6 secs

     total energy              =   -5268.18999959 Ry
     Harris-Foulkes estimate   =   -5268.18998698 Ry
     estimated scf accuracy    <       0.00010940 Ry

     total magnetization       =    32.86 Bohr mag/cell
     absolute magnetization    =    34.62 Bohr mag/cell

     iteration # 15     ecut=    71.00 Ry     beta= 0.10
     Davidson diagonalization with overlap
     ethr =  4.27E-08,  avg # of iterations =  2.9

     negative rho (up, down):  0.000E+00 2.454E-03

     total cpu time spent up to now is      770.0 secs

     total energy              =   -5268.19001808 Ry
     Harris-Foulkes estimate   =   -5268.19001810 Ry
     estimated scf accuracy    <       0.00007343 Ry

     total magnetization       =    32.86 Bohr mag/cell
     absolute magnetization    =    34.61 Bohr mag/cell

     iteration # 16     ecut=    71.00 Ry     beta= 0.10
     Davidson diagonalization with overlap
     ethr =  2.87E-08,  avg # of iterations =  3.1

     negative rho (up, down):  0.000E+00 2.431E-03

     total cpu time spent up to now is      825.3 secs

     total energy              =   -5268.19005031 Ry
     Harris-Foulkes estimate   =   -5268.19004584 Ry
     estimated scf accuracy    <       0.00001609 Ry

     total magnetization       =    32.91 Bohr mag/cell
     absolute magnetization    =    34.69 Bohr mag/cell

     iteration # 17     ecut=    71.00 Ry     beta= 0.10
     Davidson diagonalization with overlap
     ethr =  6.28E-09,  avg # of iterations =  2.9

     negative rho (up, down):  0.000E+00 2.443E-03

     total cpu time spent up to now is      874.8 secs

     total energy              =   -5268.19005370 Ry
     Harris-Foulkes estimate   =   -5268.19005324 Ry
     estimated scf accuracy    <       0.00001043 Ry

     total magnetization       =    32.91 Bohr mag/cell
     absolute magnetization    =    34.68 Bohr mag/cell

     iteration # 18     ecut=    71.00 Ry     beta= 0.10
     Davidson diagonalization with overlap
     ethr =  4.07E-09,  avg # of iterations =  1.9

     negative rho (up, down):  0.000E+00 2.444E-03

     total cpu time spent up to now is      914.6 secs

     total energy              =   -5268.19005578 Ry
     Harris-Foulkes estimate   =   -5268.19005481 Ry
     estimated scf accuracy    <       0.00000851 Ry

     total magnetization       =    32.92 Bohr mag/cell
     absolute magnetization    =    34.69 Bohr mag/cell

     iteration # 19     ecut=    71.00 Ry     beta= 0.10
     Davidson diagonalization with overlap
     ethr =  3.32E-09,  avg # of iterations =  1.9

     negative rho (up, down):  0.000E+00 2.448E-03

     total cpu time spent up to now is      955.0 secs

     total energy              =   -5268.19005725 Ry
     Harris-Foulkes estimate   =   -5268.19005683 Ry
     estimated scf accuracy    <       0.00000128 Ry

     total magnetization       =    32.93 Bohr mag/cell
     absolute magnetization    =    34.70 Bohr mag/cell

     iteration # 20     ecut=    71.00 Ry     beta= 0.10
     Davidson diagonalization with overlap
     ethr =  4.99E-10,  avg # of iterations =  2.5

     negative rho (up, down):  0.000E+00 2.473E-03
 
     Magnetic moment per site:
     atom:    1    charge:   14.3679    magn:    2.1007    constr:    0.0000
     atom:    2    charge:   14.3677    magn:    2.1038    constr:    0.0000
     atom:    3    charge:   14.3678    magn:    2.1004    constr:    0.0000
     atom:    4    charge:   14.3677    magn:    2.1038    constr:    0.0000
     atom:    5    charge:   14.3677    magn:    2.1027    constr:    0.0000
     atom:    6    charge:   14.3677    magn:    2.1038    constr:    0.0000
     atom:    7    charge:   14.3677    magn:    2.1021    constr:    0.0000
     atom:    8    charge:   14.3677    magn:    2.1038    constr:    0.0000
     atom:    9    charge:   14.3678    magn:    2.1004    constr:    0.0000
     atom:   10    charge:   14.3677    magn:    2.1038    constr:    0.0000
     atom:   11    charge:   14.3678    magn:    2.1000    constr:    0.0000
     atom:   12    charge:   14.3677    magn:    2.1038    constr:    0.0000
     atom:   13    charge:   14.3677    magn:    2.1021    constr:    0.0000
     atom:   14    charge:   14.3677    magn:    2.1038    constr:    0.0000
     atom:   15    charge:   14.3679    magn:    2.1016    constr:    0.0000
     atom:   16    charge:   14.3677    magn:    2.1038    constr:    0.0000

     total cpu time spent up to now is     1000.8 secs

     End of self-consistent calculation

     Number of k-points >= 100: set verbosity='high' to print the bands.

     the Fermi energy is    18.9345 ev

!    total energy              =   -5268.19005914 Ry
     Harris-Foulkes estimate   =   -5268.19005732 Ry
     estimated scf accuracy    <       0.00000100 Ry

     total all-electron energy =    -40728.934588 Ry

     The total energy is the sum of the following terms:

     one-electron contribution =   -1709.89924769 Ry
     hartree contribution      =    1023.16454650 Ry
     xc contribution           =    -444.24139364 Ry
     ewald contribution        =   -2812.66811567 Ry
     one-center paw contrib.   =   -1324.67077112 Ry
     smearing contrib. (-TS)   =       0.12492247 Ry

     total magnetization       =    32.93 Bohr mag/cell
     absolute magnetization    =    34.70 Bohr mag/cell

     convergence has been achieved in  20 iterations

     negative rho (up, down):  0.000E+00 2.473E-03

     Forces acting on atoms (cartesian axes, Ry/au):

     atom    1 type  1   force =     0.00000000    0.00000000   -0.00000000
     atom    2 type  2   force =    -0.00004235    0.00043707   -0.00004235
     atom    3 type  1   force =     0.00000000    0.00000000   -0.00000000
     atom    4 type  2   force =    -0.00004235    0.00043707    0.00004235
     atom    5 type  1   force =     0.00000000    0.00000000   -0.00000000
     atom    6 type  2   force =    -0.00004235   -0.00043707   -0.00004235
     atom    7 type  1   force =     0.00000000   -0.00000000    0.00000000
     atom    8 type  2   force =    -0.00004235   -0.00043707    0.00004235
     atom    9 type  1   force =     0.00000000    0.00000000    0.00000000
     atom   10 type  2   force =     0.00004235    0.00043707   -0.00004235
     atom   11 type  1   force =     0.00000000   -0.00000000    0.00000000
     atom   12 type  2   force =     0.00004235    0.00043707    0.00004235
     atom   13 type  1   force =     0.00000000    0.00000000    0.00000000
     atom   14 type  2   force =     0.00004235   -0.00043707   -0.00004235
     atom   15 type  1   force =     0.00000000    0.00000000    0.00000000
     atom   16 type  2   force =     0.00004235   -0.00043707    0.00004235

     Total force =     0.001248     Total SCF correction =     0.004807
     SCF correction compared to forces is large: reduce conv_thr to get better values


     Computing stress (Cartesian axis) and pressure


     negative rho (up, down):  0.000E+00 2.473E-03
          total   stress  (Ry/bohr**3)                   (kbar)     P=   -6.77
  -0.00004121   0.00000000   0.00000000         -6.06      0.00      0.00
   0.00000000  -0.00005575   0.00000000          0.00     -8.20      0.00
   0.00000000   0.00000000  -0.00004121          0.00      0.00     -6.06


     Writing output data file VTnjjAaNImTzHDaW.save/
 
     init_run     :     13.03s CPU     13.66s WALL (       1 calls)
     electrons    :    956.71s CPU    985.83s WALL (       1 calls)
     forces       :      4.68s CPU      5.08s WALL (       1 calls)
     stress       :     13.01s CPU     13.14s WALL (       1 calls)

     Called by init_run:
     wfcinit      :     12.64s CPU     13.14s WALL (       1 calls)
     potinit      :      0.20s CPU      0.22s WALL (       1 calls)
     hinit0       :      0.10s CPU      0.11s WALL (       1 calls)

     Called by electrons:
     c_bands      :    864.58s CPU    888.52s WALL (      21 calls)
     sum_band     :     87.98s CPU     92.65s WALL (      21 calls)
     v_of_rho     :      0.33s CPU      0.33s WALL (      21 calls)
     newd         :      0.65s CPU      0.84s WALL (      21 calls)
     PAW_pot      :      3.15s CPU      3.39s WALL (      21 calls)
     mix_rho      :      0.12s CPU      0.13s WALL (      21 calls)

     Called by c_bands:
     init_us_2    :      4.58s CPU      4.64s WALL (    6750 calls)
     cegterg      :    841.07s CPU    864.79s WALL (    3150 calls)

     Called by sum_band:
     sum_band:bec :      1.32s CPU      1.35s WALL (    3150 calls)
     addusdens    :      1.10s CPU      1.27s WALL (      21 calls)

     Called by *egterg:
     h_psi        :    348.62s CPU    363.16s WALL (   10891 calls)
     s_psi        :     19.49s CPU     19.60s WALL (   10891 calls)
     g_psi        :      0.81s CPU      0.82s WALL (    7591 calls)
     cdiaghg      :    389.91s CPU    391.22s WALL (   10591 calls)

     Called by h_psi:
     h_psi:pot    :    346.32s CPU    360.83s WALL (   10891 calls)
     h_psi:calbec :     29.16s CPU     33.72s WALL (   10891 calls)
     vloc_psi     :    297.61s CPU    307.45s WALL (   10891 calls)
     add_vuspsi   :     19.46s CPU     19.60s WALL (   10891 calls)

     General routines
     calbec       :     44.55s CPU     51.77s WALL (   14791 calls)
     fft          :      0.33s CPU      0.36s WALL (     567 calls)
     ffts         :      0.04s CPU      0.20s WALL (      84 calls)
     fftw         :    346.38s CPU    357.69s WALL ( 2644104 calls)
     interpolate  :      0.05s CPU      0.13s WALL (      42 calls)
 
     Parallel routines
     fft_scatt_xy :     23.17s CPU     23.93s WALL ( 2644755 calls)
     fft_scatt_yz :    231.09s CPU    238.91s WALL ( 2644755 calls)
 
     PWSCF        : 16m36.95s CPU    17m33.27s WALL

 
   This run was terminated on:  13:25:55   9Sep2020            

=------------------------------------------------------------------------------=
   JOB DONE.
=------------------------------------------------------------------------------=
