--------------------------------------------------------------------------
WARNING: No preset parameters were found for the device that Open MPI
detected:

  Local host:            bear-pg0206u39a
  Device name:           mlx5_0
  Device vendor ID:      0x02c9
  Device vendor part ID: 4123

Default device parameters will be used, which may result in lower
performance.  You can edit any of the files specified by the
btl_openib_device_param_files MCA parameter to set values for your
device.

NOTE: You can turn off this warning by setting the MCA parameter
      btl_openib_warn_no_device_params_found to 0.
--------------------------------------------------------------------------
--------------------------------------------------------------------------
WARNING: There was an error initializing an OpenFabrics device.

  Local host:   bear-pg0206u39a
  Local device: mlx5_0
--------------------------------------------------------------------------

     Program PWSCF v.6.3 starts on  9Sep2020 at 14: 1:40 

     This program is part of the open-source Quantum ESPRESSO suite
     for quantum simulation of materials; please cite
         "P. Giannozzi et al., J. Phys.:Condens. Matter 21 395502 (2009);
         "P. Giannozzi et al., J. Phys.:Condens. Matter 29 465901 (2017);
          URL http://www.quantum-espresso.org", 
     in publications or presentations arising from this work. More details at
     http://www.quantum-espresso.org/quote

     Parallel version (MPI & OpenMP), running on      40 processor cores
     Number of MPI processes:                40
     Threads/MPI process:                     1

     MPI processes distributed on     1 nodes
     R & G space division:  proc/nbgrp/npool/nimage =      40
     Reading input from wd/ec/ec_2_006.in
Warning: card &IONS ignored
Warning: card ION_DYNAMICS = 'BFGS', ignored
Warning: card / ignored
Warning: card &CELL ignored
Warning: card CELL_DYNAMICS = 'BFGS', ignored
Warning: card CELL_FACTOR = 2.0, ignored
Warning: card PRESS = 0.0, ignored
Warning: card / ignored

     Current dimensions of program PWSCF are:
     Max number of different atomic species (ntypx) = 10
     Max number of k-points (npk) =  40000
     Max angular momentum in pseudopotentials (lmaxx) =  3
               file Fe.pbe-spn-kjpaw_psl.1.0.0.UPF: wavefunction(s)  3P 3D renormalized
               file Fe.pbe-spn-kjpaw_psl.1.0.0.UPF: wavefunction(s)  3P 3D renormalized

     Subspace diagonalization in iterative solution of the eigenvalue problem:
     a serial algorithm will be used

     Found symmetry operation: I + (  0.0000  0.0000 -0.5000)
     This is a supercell, fractional translations are disabled
 
     Parallelization info
     --------------------
     sticks:   dense  smooth     PW     G-vecs:    dense   smooth      PW
     Min          96      63     18                 4492     2411     358
     Max          97      64     19                 4495     2416     362
     Sum        3859    2553    721               179703    96553   14379
 


     bravais-lattice index     =            0
     lattice parameter (alat)  =      10.5935  a.u.
     unit-cell volume          =    1193.7864 (a.u.)^3
     number of atoms/cell      =           16
     number of atomic types    =            2
     number of electrons       =       256.00
     number of Kohn-Sham states=          154
     kinetic-energy cutoff     =      71.0000  Ry
     charge density cutoff     =     430.0000  Ry
     convergence threshold     =      1.0E-06
     mixing beta               =       0.1000
     number of iterations used =           10  plain     mixing
     Exchange-correlation      = SLA PW PBX PBC ( 1  4  3  4 0 0)

     celldm(1)=  10.593520  celldm(2)=   0.000000  celldm(3)=   0.000000
     celldm(4)=   0.000000  celldm(5)=   0.000000  celldm(6)=   0.000000

     crystal axes: (cart. coord. in units of alat)
               a(1) = (   1.000000   0.000000   0.000000 )  
               a(2) = (   0.000000   1.004167   0.000000 )  
               a(3) = (   0.000000   0.000000   1.000000 )  

     reciprocal axes: (cart. coord. in units 2 pi/alat)
               b(1) = (  1.000000  0.000000  0.000000 )  
               b(2) = (  0.000000  0.995851  0.000000 )  
               b(3) = (  0.000000  0.000000  1.000000 )  


     PseudoPot. # 1 for Fe read from file:
     /rds/homes/b/bxp912/pp/Fe.pbe-spn-kjpaw_psl.1.0.0.UPF
     MD5 check sum: 42f43b795421b414b0dc916aa790dbcb
     Pseudo is Projector augmented-wave + core cor, Zval = 16.0
     Generated using "atomic" code by A. Dal Corso v.6.3
     Shape of augmentation charge: PSQ
     Using radial grid of 1191 points,  6 beta functions with: 
                l(1) =   0
                l(2) =   0
                l(3) =   1
                l(4) =   1
                l(5) =   2
                l(6) =   2
     Q(r) pseudized with 0 coefficients 


     PseudoPot. # 2 for Fe read from file:
     /rds/homes/b/bxp912/pp/Fe.pbe-spn-kjpaw_psl.1.0.0.UPF
     MD5 check sum: 42f43b795421b414b0dc916aa790dbcb
     Pseudo is Projector augmented-wave + core cor, Zval = 16.0
     Generated using "atomic" code by A. Dal Corso v.6.3
     Shape of augmentation charge: PSQ
     Using radial grid of 1191 points,  6 beta functions with: 
                l(1) =   0
                l(2) =   0
                l(3) =   1
                l(4) =   1
                l(5) =   2
                l(6) =   2
     Q(r) pseudized with 0 coefficients 


     atomic species   valence    mass     pseudopotential
        Fe1           16.00    55.84500     Fe( 1.00)
        Fe2           16.00    55.84500     Fe( 1.00)

     Starting magnetic structure 
     atomic species   magnetization
        Fe1          0.100
        Fe2          0.100

     16 Sym. Ops., with inversion, found



   Cartesian axes

     site n.     atom                  positions (alat units)
         1           Fe1 tau(   1) = (   0.0000000   0.0000000   0.0000000  )
         2           Fe2 tau(   2) = (   0.2500004   0.2510421   0.2500004  )
         3           Fe1 tau(   3) = (   0.0000000   0.0000000   0.5000000  )
         4           Fe2 tau(   4) = (   0.2500004   0.2510421   0.7499996  )
         5           Fe1 tau(   5) = (   0.0000000   0.5020833   0.0000000  )
         6           Fe2 tau(   6) = (   0.2500004   0.7531246   0.2500004  )
         7           Fe1 tau(   7) = (   0.0000000   0.5020833   0.5000000  )
         8           Fe2 tau(   8) = (   0.2500004   0.7531246   0.7499996  )
         9           Fe1 tau(   9) = (   0.5000000   0.0000000   0.0000000  )
        10           Fe2 tau(  10) = (   0.7499996   0.2510421   0.2500004  )
        11           Fe1 tau(  11) = (   0.5000000   0.0000000   0.5000000  )
        12           Fe2 tau(  12) = (   0.7499996   0.2510421   0.7499996  )
        13           Fe1 tau(  13) = (   0.5000000   0.5020833   0.0000000  )
        14           Fe2 tau(  14) = (   0.7499996   0.7531246   0.2500004  )
        15           Fe1 tau(  15) = (   0.5000000   0.5020833   0.5000000  )
        16           Fe2 tau(  16) = (   0.7499996   0.7531246   0.7499996  )

     number of k points=    75  Marzari-Vanderbilt smearing, width (Ry)=  0.0400
                       cart. coord. in units 2pi/alat
        k(    1) = (   0.0555556   0.0553250   0.0555556), wk =   0.0109739
        k(    2) = (   0.0555556   0.0553250   0.1666667), wk =   0.0219479
        k(    3) = (   0.0555556   0.0553250   0.2777778), wk =   0.0219479
        k(    4) = (   0.0555556   0.0553250   0.3888889), wk =   0.0219479
        k(    5) = (   0.0555556   0.0553250  -0.5000000), wk =   0.0109739
        k(    6) = (   0.0555556   0.1659751   0.0555556), wk =   0.0109739
        k(    7) = (   0.0555556   0.1659751   0.1666667), wk =   0.0219479
        k(    8) = (   0.0555556   0.1659751   0.2777778), wk =   0.0219479
        k(    9) = (   0.0555556   0.1659751   0.3888889), wk =   0.0219479
        k(   10) = (   0.0555556   0.1659751  -0.5000000), wk =   0.0109739
        k(   11) = (   0.0555556   0.2766252   0.0555556), wk =   0.0109739
        k(   12) = (   0.0555556   0.2766252   0.1666667), wk =   0.0219479
        k(   13) = (   0.0555556   0.2766252   0.2777778), wk =   0.0219479
        k(   14) = (   0.0555556   0.2766252   0.3888889), wk =   0.0219479
        k(   15) = (   0.0555556   0.2766252  -0.5000000), wk =   0.0109739
        k(   16) = (   0.0555556   0.3872752   0.0555556), wk =   0.0109739
        k(   17) = (   0.0555556   0.3872752   0.1666667), wk =   0.0219479
        k(   18) = (   0.0555556   0.3872752   0.2777778), wk =   0.0219479
        k(   19) = (   0.0555556   0.3872752   0.3888889), wk =   0.0219479
        k(   20) = (   0.0555556   0.3872752  -0.5000000), wk =   0.0109739
        k(   21) = (   0.0555556  -0.4979253   0.0555556), wk =   0.0054870
        k(   22) = (   0.0555556  -0.4979253   0.1666667), wk =   0.0109739
        k(   23) = (   0.0555556  -0.4979253   0.2777778), wk =   0.0109739
        k(   24) = (   0.0555556  -0.4979253   0.3888889), wk =   0.0109739
        k(   25) = (   0.0555556  -0.4979253  -0.5000000), wk =   0.0054870
        k(   26) = (   0.1666667   0.0553250   0.1666667), wk =   0.0109739
        k(   27) = (   0.1666667   0.0553250   0.2777778), wk =   0.0219479
        k(   28) = (   0.1666667   0.0553250   0.3888889), wk =   0.0219479
        k(   29) = (   0.1666667   0.0553250  -0.5000000), wk =   0.0109739
        k(   30) = (   0.1666667   0.1659751   0.1666667), wk =   0.0109739
        k(   31) = (   0.1666667   0.1659751   0.2777778), wk =   0.0219479
        k(   32) = (   0.1666667   0.1659751   0.3888889), wk =   0.0219479
        k(   33) = (   0.1666667   0.1659751  -0.5000000), wk =   0.0109739
        k(   34) = (   0.1666667   0.2766252   0.1666667), wk =   0.0109739
        k(   35) = (   0.1666667   0.2766252   0.2777778), wk =   0.0219479
        k(   36) = (   0.1666667   0.2766252   0.3888889), wk =   0.0219479
        k(   37) = (   0.1666667   0.2766252  -0.5000000), wk =   0.0109739
        k(   38) = (   0.1666667   0.3872752   0.1666667), wk =   0.0109739
        k(   39) = (   0.1666667   0.3872752   0.2777778), wk =   0.0219479
        k(   40) = (   0.1666667   0.3872752   0.3888889), wk =   0.0219479
        k(   41) = (   0.1666667   0.3872752  -0.5000000), wk =   0.0109739
        k(   42) = (   0.1666667  -0.4979253   0.1666667), wk =   0.0054870
        k(   43) = (   0.1666667  -0.4979253   0.2777778), wk =   0.0109739
        k(   44) = (   0.1666667  -0.4979253   0.3888889), wk =   0.0109739
        k(   45) = (   0.1666667  -0.4979253  -0.5000000), wk =   0.0054870
        k(   46) = (   0.2777778   0.0553250   0.2777778), wk =   0.0109739
        k(   47) = (   0.2777778   0.0553250   0.3888889), wk =   0.0219479
        k(   48) = (   0.2777778   0.0553250  -0.5000000), wk =   0.0109739
        k(   49) = (   0.2777778   0.1659751   0.2777778), wk =   0.0109739
        k(   50) = (   0.2777778   0.1659751   0.3888889), wk =   0.0219479
        k(   51) = (   0.2777778   0.1659751  -0.5000000), wk =   0.0109739
        k(   52) = (   0.2777778   0.2766252   0.2777778), wk =   0.0109739
        k(   53) = (   0.2777778   0.2766252   0.3888889), wk =   0.0219479
        k(   54) = (   0.2777778   0.2766252  -0.5000000), wk =   0.0109739
        k(   55) = (   0.2777778   0.3872752   0.2777778), wk =   0.0109739
        k(   56) = (   0.2777778   0.3872752   0.3888889), wk =   0.0219479
        k(   57) = (   0.2777778   0.3872752  -0.5000000), wk =   0.0109739
        k(   58) = (   0.2777778  -0.4979253   0.2777778), wk =   0.0054870
        k(   59) = (   0.2777778  -0.4979253   0.3888889), wk =   0.0109739
        k(   60) = (   0.2777778  -0.4979253  -0.5000000), wk =   0.0054870
        k(   61) = (   0.3888889   0.0553250   0.3888889), wk =   0.0109739
        k(   62) = (   0.3888889   0.0553250  -0.5000000), wk =   0.0109739
        k(   63) = (   0.3888889   0.1659751   0.3888889), wk =   0.0109739
        k(   64) = (   0.3888889   0.1659751  -0.5000000), wk =   0.0109739
        k(   65) = (   0.3888889   0.2766252   0.3888889), wk =   0.0109739
        k(   66) = (   0.3888889   0.2766252  -0.5000000), wk =   0.0109739
        k(   67) = (   0.3888889   0.3872752   0.3888889), wk =   0.0109739
        k(   68) = (   0.3888889   0.3872752  -0.5000000), wk =   0.0109739
        k(   69) = (   0.3888889  -0.4979253   0.3888889), wk =   0.0054870
        k(   70) = (   0.3888889  -0.4979253  -0.5000000), wk =   0.0054870
        k(   71) = (  -0.5000000   0.0553250  -0.5000000), wk =   0.0027435
        k(   72) = (  -0.5000000   0.1659751  -0.5000000), wk =   0.0027435
        k(   73) = (  -0.5000000   0.2766252  -0.5000000), wk =   0.0027435
        k(   74) = (  -0.5000000   0.3872752  -0.5000000), wk =   0.0027435
        k(   75) = (  -0.5000000  -0.4979253  -0.5000000), wk =   0.0013717

     Dense  grid:   179703 G-vectors     FFT dimensions: (  72,  72,  72)

     Smooth grid:    96553 G-vectors     FFT dimensions: (  60,  60,  60)

     Estimated max dynamical RAM per process >     145.29 MB

     Estimated total dynamical RAM >       5.68 GB
     Generating pointlists ...
     new r_m :   0.1789 (alat units)  1.8948 (a.u.) for type    1
     new r_m :   0.1789 (alat units)  1.8948 (a.u.) for type    2

     Check: negative/imaginary core charge=   -0.000006    0.000000

     Initial potential from superposition of free atoms

     starting charge  255.99300, renormalised to  256.00000
     Starting wfcs are  160 randomized atomic wfcs
     Checking if some PAW data can be deallocated... 

     total cpu time spent up to now is       16.2 secs

     Self-consistent Calculation

     iteration #  1     ecut=    71.00 Ry     beta= 0.10
     Davidson diagonalization with overlap
     ethr =  1.00E-02,  avg # of iterations =  3.3

     Threshold (ethr) on eigenvalues was too large:
     Diagonalizing with lowered threshold

     Davidson diagonalization with overlap
     ethr =  2.20E-04,  avg # of iterations =  3.6

     total cpu time spent up to now is      135.0 secs

     total energy              =   -5268.05106061 Ry
     Harris-Foulkes estimate   =   -5268.13456748 Ry
     estimated scf accuracy    <       0.64792614 Ry

     total magnetization       =    28.21 Bohr mag/cell
     absolute magnetization    =    28.34 Bohr mag/cell

     iteration #  2     ecut=    71.00 Ry     beta= 0.10
     Davidson diagonalization with overlap
     ethr =  2.53E-04,  avg # of iterations =  1.0

     total cpu time spent up to now is      168.5 secs

     total energy              =   -5267.99725600 Ry
     Harris-Foulkes estimate   =   -5268.06440509 Ry
     estimated scf accuracy    <       0.38646525 Ry

     total magnetization       =    28.82 Bohr mag/cell
     absolute magnetization    =    28.97 Bohr mag/cell

     iteration #  3     ecut=    71.00 Ry     beta= 0.10
     Davidson diagonalization with overlap
     ethr =  1.51E-04,  avg # of iterations =  2.8

     total cpu time spent up to now is      218.7 secs

     total energy              =   -5268.02693328 Ry
     Harris-Foulkes estimate   =   -5268.04813030 Ry
     estimated scf accuracy    <       0.57576120 Ry

     total magnetization       =    29.68 Bohr mag/cell
     absolute magnetization    =    29.98 Bohr mag/cell

     iteration #  4     ecut=    71.00 Ry     beta= 0.10
     Davidson diagonalization with overlap
     ethr =  1.51E-04,  avg # of iterations =  1.1

     total cpu time spent up to now is      253.6 secs

     total energy              =   -5268.05181241 Ry
     Harris-Foulkes estimate   =   -5268.04915688 Ry
     estimated scf accuracy    <       0.13003675 Ry

     total magnetization       =    30.28 Bohr mag/cell
     absolute magnetization    =    30.62 Bohr mag/cell

     iteration #  5     ecut=    71.00 Ry     beta= 0.10
     Davidson diagonalization with overlap
     ethr =  5.08E-05,  avg # of iterations =  1.1

     total cpu time spent up to now is      287.7 secs

     total energy              =   -5268.10825968 Ry
     Harris-Foulkes estimate   =   -5268.05387529 Ry
     estimated scf accuracy    <       0.10685203 Ry

     total magnetization       =    30.35 Bohr mag/cell
     absolute magnetization    =    30.72 Bohr mag/cell

     iteration #  6     ecut=    71.00 Ry     beta= 0.10
     Davidson diagonalization with overlap
     ethr =  4.17E-05,  avg # of iterations =  3.4

     negative rho (up, down):  0.000E+00 4.517E-04

     total cpu time spent up to now is      353.1 secs

     total energy              =   -5268.16160318 Ry
     Harris-Foulkes estimate   =   -5268.15388288 Ry
     estimated scf accuracy    <       0.17208172 Ry

     total magnetization       =    31.07 Bohr mag/cell
     absolute magnetization    =    31.83 Bohr mag/cell

     iteration #  7     ecut=    71.00 Ry     beta= 0.10
     Davidson diagonalization with overlap
     ethr =  4.17E-05,  avg # of iterations =  2.6

     negative rho (up, down):  0.000E+00 1.343E-03

     total cpu time spent up to now is      403.9 secs

     total energy              =   -5268.17628595 Ry
     Harris-Foulkes estimate   =   -5268.17668911 Ry
     estimated scf accuracy    <       0.05545073 Ry

     total magnetization       =    31.85 Bohr mag/cell
     absolute magnetization    =    32.99 Bohr mag/cell

     iteration #  8     ecut=    71.00 Ry     beta= 0.10
     Davidson diagonalization with overlap
     ethr =  2.17E-05,  avg # of iterations =  2.3

     negative rho (up, down):  0.000E+00 1.727E-03

     total cpu time spent up to now is      451.3 secs

     total energy              =   -5268.18490666 Ry
     Harris-Foulkes estimate   =   -5268.18209481 Ry
     estimated scf accuracy    <       0.02728225 Ry

     total magnetization       =    32.23 Bohr mag/cell
     absolute magnetization    =    33.57 Bohr mag/cell

     iteration #  9     ecut=    71.00 Ry     beta= 0.10
     Davidson diagonalization with overlap
     ethr =  1.07E-05,  avg # of iterations =  1.2

     negative rho (up, down):  0.000E+00 2.391E-03

     total cpu time spent up to now is      486.4 secs

     total energy              =   -5268.18861682 Ry
     Harris-Foulkes estimate   =   -5268.18589897 Ry
     estimated scf accuracy    <       0.01027777 Ry

     total magnetization       =    32.39 Bohr mag/cell
     absolute magnetization    =    33.78 Bohr mag/cell

     iteration # 10     ecut=    71.00 Ry     beta= 0.10
     Davidson diagonalization with overlap
     ethr =  4.01E-06,  avg # of iterations =  3.2

     negative rho (up, down):  0.000E+00 2.584E-03

     total cpu time spent up to now is      539.6 secs

     total energy              =   -5268.18995460 Ry
     Harris-Foulkes estimate   =   -5268.18993686 Ry
     estimated scf accuracy    <       0.00222670 Ry

     total magnetization       =    32.65 Bohr mag/cell
     absolute magnetization    =    34.25 Bohr mag/cell

     iteration # 11     ecut=    71.00 Ry     beta= 0.10
     Davidson diagonalization with overlap
     ethr =  8.70E-07,  avg # of iterations =  2.7

     negative rho (up, down):  0.000E+00 2.428E-03

     total cpu time spent up to now is      588.1 secs

     total energy              =   -5268.19024550 Ry
     Harris-Foulkes estimate   =   -5268.19014548 Ry
     estimated scf accuracy    <       0.00072732 Ry

     total magnetization       =    32.74 Bohr mag/cell
     absolute magnetization    =    34.42 Bohr mag/cell

     iteration # 12     ecut=    71.00 Ry     beta= 0.10
     Davidson diagonalization with overlap
     ethr =  2.84E-07,  avg # of iterations =  2.2

     negative rho (up, down):  0.000E+00 2.391E-03

     total cpu time spent up to now is      632.1 secs

     total energy              =   -5268.19051939 Ry
     Harris-Foulkes estimate   =   -5268.19030747 Ry
     estimated scf accuracy    <       0.00066084 Ry

     total magnetization       =    32.77 Bohr mag/cell
     absolute magnetization    =    34.45 Bohr mag/cell

     iteration # 13     ecut=    71.00 Ry     beta= 0.10
     Davidson diagonalization with overlap
     ethr =  2.58E-07,  avg # of iterations =  2.0

     negative rho (up, down):  0.000E+00 2.485E-03

     total cpu time spent up to now is      675.8 secs

     total energy              =   -5268.19064419 Ry
     Harris-Foulkes estimate   =   -5268.19057914 Ry
     estimated scf accuracy    <       0.00045916 Ry

     total magnetization       =    32.82 Bohr mag/cell
     absolute magnetization    =    34.53 Bohr mag/cell

     iteration # 14     ecut=    71.00 Ry     beta= 0.10
     Davidson diagonalization with overlap
     ethr =  1.79E-07,  avg # of iterations =  2.9

     negative rho (up, down):  0.000E+00 2.413E-03

     total cpu time spent up to now is      728.4 secs

     total energy              =   -5268.19074286 Ry
     Harris-Foulkes estimate   =   -5268.19073254 Ry
     estimated scf accuracy    <       0.00011292 Ry

     total magnetization       =    32.90 Bohr mag/cell
     absolute magnetization    =    34.68 Bohr mag/cell

     iteration # 15     ecut=    71.00 Ry     beta= 0.10
     Davidson diagonalization with overlap
     ethr =  4.41E-08,  avg # of iterations =  2.8

     negative rho (up, down):  0.000E+00 2.467E-03

     total cpu time spent up to now is      780.1 secs

     total energy              =   -5268.19076252 Ry
     Harris-Foulkes estimate   =   -5268.19076205 Ry
     estimated scf accuracy    <       0.00007493 Ry

     total magnetization       =    32.91 Bohr mag/cell
     absolute magnetization    =    34.67 Bohr mag/cell

     iteration # 16     ecut=    71.00 Ry     beta= 0.10
     Davidson diagonalization with overlap
     ethr =  2.93E-08,  avg # of iterations =  3.1

     negative rho (up, down):  0.000E+00 2.448E-03

     total cpu time spent up to now is      836.9 secs

     total energy              =   -5268.19079547 Ry
     Harris-Foulkes estimate   =   -5268.19079052 Ry
     estimated scf accuracy    <       0.00001666 Ry

     total magnetization       =    32.96 Bohr mag/cell
     absolute magnetization    =    34.74 Bohr mag/cell

     iteration # 17     ecut=    71.00 Ry     beta= 0.10
     Davidson diagonalization with overlap
     ethr =  6.51E-09,  avg # of iterations =  2.6

     negative rho (up, down):  0.000E+00 2.461E-03

     total cpu time spent up to now is      882.5 secs

     total energy              =   -5268.19079789 Ry
     Harris-Foulkes estimate   =   -5268.19079722 Ry
     estimated scf accuracy    <       0.00000930 Ry

     total magnetization       =    32.96 Bohr mag/cell
     absolute magnetization    =    34.74 Bohr mag/cell

     iteration # 18     ecut=    71.00 Ry     beta= 0.10
     Davidson diagonalization with overlap
     ethr =  3.63E-09,  avg # of iterations =  1.3

     negative rho (up, down):  0.000E+00 2.474E-03

     total cpu time spent up to now is      920.9 secs

     total energy              =   -5268.19079962 Ry
     Harris-Foulkes estimate   =   -5268.19079840 Ry
     estimated scf accuracy    <       0.00000588 Ry

     total magnetization       =    32.96 Bohr mag/cell
     absolute magnetization    =    34.75 Bohr mag/cell

     iteration # 19     ecut=    71.00 Ry     beta= 0.10
     Davidson diagonalization with overlap
     ethr =  2.30E-09,  avg # of iterations =  2.9

     negative rho (up, down):  0.000E+00 2.469E-03

     total cpu time spent up to now is      973.9 secs

     total energy              =   -5268.19080138 Ry
     Harris-Foulkes estimate   =   -5268.19080086 Ry
     estimated scf accuracy    <       0.00000293 Ry

     total magnetization       =    32.97 Bohr mag/cell
     absolute magnetization    =    34.76 Bohr mag/cell

     iteration # 20     ecut=    71.00 Ry     beta= 0.10
     Davidson diagonalization with overlap
     ethr =  1.15E-09,  avg # of iterations =  1.1

     negative rho (up, down):  0.000E+00 2.475E-03

     total cpu time spent up to now is     1008.6 secs

     total energy              =   -5268.19080218 Ry
     Harris-Foulkes estimate   =   -5268.19080162 Ry
     estimated scf accuracy    <       0.00000222 Ry

     total magnetization       =    32.97 Bohr mag/cell
     absolute magnetization    =    34.76 Bohr mag/cell

     iteration # 21     ecut=    71.00 Ry     beta= 0.10
     Davidson diagonalization with overlap
     ethr =  8.67E-10,  avg # of iterations =  1.0

     negative rho (up, down):  0.000E+00 2.479E-03

     total cpu time spent up to now is     1042.5 secs

     total energy              =   -5268.19080327 Ry
     Harris-Foulkes estimate   =   -5268.19080230 Ry
     estimated scf accuracy    <       0.00000108 Ry

     total magnetization       =    32.97 Bohr mag/cell
     absolute magnetization    =    34.76 Bohr mag/cell

     iteration # 22     ecut=    71.00 Ry     beta= 0.10
     Davidson diagonalization with overlap
     ethr =  4.21E-10,  avg # of iterations =  1.9

     negative rho (up, down):  0.000E+00 2.489E-03
 
     Magnetic moment per site:
     atom:    1    charge:   14.3697    magn:    2.1047    constr:    0.0000
     atom:    2    charge:   14.3698    magn:    2.1073    constr:    0.0000
     atom:    3    charge:   14.3698    magn:    2.1044    constr:    0.0000
     atom:    4    charge:   14.3698    magn:    2.1073    constr:    0.0000
     atom:    5    charge:   14.3700    magn:    2.1064    constr:    0.0000
     atom:    6    charge:   14.3698    magn:    2.1073    constr:    0.0000
     atom:    7    charge:   14.3699    magn:    2.1059    constr:    0.0000
     atom:    8    charge:   14.3698    magn:    2.1073    constr:    0.0000
     atom:    9    charge:   14.3698    magn:    2.1044    constr:    0.0000
     atom:   10    charge:   14.3698    magn:    2.1073    constr:    0.0000
     atom:   11    charge:   14.3700    magn:    2.1040    constr:    0.0000
     atom:   12    charge:   14.3698    magn:    2.1073    constr:    0.0000
     atom:   13    charge:   14.3699    magn:    2.1059    constr:    0.0000
     atom:   14    charge:   14.3698    magn:    2.1073    constr:    0.0000
     atom:   15    charge:   14.3698    magn:    2.1055    constr:    0.0000
     atom:   16    charge:   14.3698    magn:    2.1073    constr:    0.0000

     total cpu time spent up to now is     1083.2 secs

     End of self-consistent calculation

     Number of k-points >= 100: set verbosity='high' to print the bands.

     the Fermi energy is    18.8746 ev

!    total energy              =   -5268.19080452 Ry
     Harris-Foulkes estimate   =   -5268.19080336 Ry
     estimated scf accuracy    <       0.00000056 Ry

     total all-electron energy =    -40728.935333 Ry

     The total energy is the sum of the following terms:

     one-electron contribution =   -1713.60473457 Ry
     hartree contribution      =    1024.50593251 Ry
     xc contribution           =    -444.21652678 Ry
     ewald contribution        =   -2810.33128625 Ry
     one-center paw contrib.   =   -1324.67023853 Ry
     smearing contrib. (-TS)   =       0.12604911 Ry

     total magnetization       =    32.98 Bohr mag/cell
     absolute magnetization    =    34.76 Bohr mag/cell

     convergence has been achieved in  22 iterations

     negative rho (up, down):  0.000E+00 2.489E-03

     Forces acting on atoms (cartesian axes, Ry/au):

     atom    1 type  1   force =     0.00000000   -0.00000000    0.00000000
     atom    2 type  2   force =    -0.00002190    0.00015538   -0.00002190
     atom    3 type  1   force =     0.00000000   -0.00000000    0.00000000
     atom    4 type  2   force =    -0.00002190    0.00015538    0.00002190
     atom    5 type  1   force =     0.00000000    0.00000000   -0.00000000
     atom    6 type  2   force =    -0.00002190   -0.00015538   -0.00002190
     atom    7 type  1   force =     0.00000000   -0.00000000   -0.00000000
     atom    8 type  2   force =    -0.00002190   -0.00015538    0.00002190
     atom    9 type  1   force =     0.00000000    0.00000000    0.00000000
     atom   10 type  2   force =     0.00002190    0.00015538   -0.00002190
     atom   11 type  1   force =     0.00000000    0.00000000    0.00000000
     atom   12 type  2   force =     0.00002190    0.00015538    0.00002190
     atom   13 type  1   force =     0.00000000    0.00000000   -0.00000000
     atom   14 type  2   force =     0.00002190   -0.00015538   -0.00002190
     atom   15 type  1   force =     0.00000000    0.00000000    0.00000000
     atom   16 type  2   force =     0.00002190   -0.00015538    0.00002190

     Total force =     0.000448     Total SCF correction =     0.004317
     SCF correction compared to forces is large: reduce conv_thr to get better values


     Computing stress (Cartesian axis) and pressure


     negative rho (up, down):  0.000E+00 2.489E-03
          total   stress  (Ry/bohr**3)                   (kbar)     P=  -10.98
  -0.00006265   0.00000000   0.00000000         -9.22      0.00      0.00
   0.00000000  -0.00009855   0.00000000          0.00    -14.50      0.00
   0.00000000   0.00000000  -0.00006265          0.00      0.00     -9.22


     Writing output data file aqdyrdaFrCCHlltt.save/
 
     init_run     :     14.18s CPU     14.85s WALL (       1 calls)
     electrons    :   1035.10s CPU   1067.01s WALL (       1 calls)
     forces       :      4.74s CPU      5.17s WALL (       1 calls)
     stress       :     13.26s CPU     13.39s WALL (       1 calls)

     Called by init_run:
     wfcinit      :     13.72s CPU     14.33s WALL (       1 calls)
     potinit      :      0.20s CPU      0.22s WALL (       1 calls)
     hinit0       :      0.16s CPU      0.17s WALL (       1 calls)

     Called by electrons:
     c_bands      :    930.59s CPU    956.93s WALL (      23 calls)
     sum_band     :     99.86s CPU    104.88s WALL (      23 calls)
     v_of_rho     :      0.35s CPU      0.36s WALL (      23 calls)
     newd         :      0.75s CPU      0.94s WALL (      23 calls)
     PAW_pot      :      3.46s CPU      3.73s WALL (      23 calls)
     mix_rho      :      0.13s CPU      0.14s WALL (      23 calls)

     Called by c_bands:
     init_us_2    :      5.17s CPU      5.23s WALL (    7350 calls)
     cegterg      :    904.97s CPU    931.04s WALL (    3450 calls)

     Called by sum_band:
     sum_band:bec :      1.44s CPU      1.46s WALL (    3450 calls)
     addusdens    :      1.28s CPU      1.45s WALL (      23 calls)

     Called by *egterg:
     h_psi        :    390.04s CPU    406.24s WALL (   11456 calls)
     s_psi        :     21.41s CPU     21.55s WALL (   11456 calls)
     g_psi        :      0.87s CPU      0.88s WALL (    7856 calls)
     cdiaghg      :    404.60s CPU    406.01s WALL (   11156 calls)

     Called by h_psi:
     h_psi:pot    :    387.97s CPU    404.15s WALL (   11456 calls)
     h_psi:calbec :     31.81s CPU     36.72s WALL (   11456 calls)
     vloc_psi     :    334.28s CPU    345.41s WALL (   11456 calls)
     add_vuspsi   :     21.78s CPU     21.94s WALL (   11456 calls)

     General routines
     calbec       :     48.45s CPU     56.12s WALL (   15656 calls)
     fft          :      0.43s CPU      0.45s WALL (     617 calls)
     ffts         :      0.07s CPU      0.25s WALL (      92 calls)
     fftw         :    390.69s CPU    403.54s WALL ( 2878414 calls)
     interpolate  :      0.08s CPU      0.16s WALL (      46 calls)
 
     Parallel routines
     fft_scatt_xy :     25.15s CPU     25.93s WALL ( 2879123 calls)
     fft_scatt_yz :    265.71s CPU    274.69s WALL ( 2879123 calls)
 
     PWSCF        : 17m56.97s CPU    18m56.77s WALL

 
   This run was terminated on:  14:20:37   9Sep2020            

=------------------------------------------------------------------------------=
   JOB DONE.
=------------------------------------------------------------------------------=
