--------------------------------------------------------------------------
WARNING: No preset parameters were found for the device that Open MPI
detected:

  Local host:            bear-pg0206u39a
  Device name:           mlx5_0
  Device vendor ID:      0x02c9
  Device vendor part ID: 4123

Default device parameters will be used, which may result in lower
performance.  You can edit any of the files specified by the
btl_openib_device_param_files MCA parameter to set values for your
device.

NOTE: You can turn off this warning by setting the MCA parameter
      btl_openib_warn_no_device_params_found to 0.
--------------------------------------------------------------------------
--------------------------------------------------------------------------
WARNING: There was an error initializing an OpenFabrics device.

  Local host:   bear-pg0206u39a
  Local device: mlx5_0
--------------------------------------------------------------------------

     Program PWSCF v.6.3 starts on  9Sep2020 at 14:39:35 

     This program is part of the open-source Quantum ESPRESSO suite
     for quantum simulation of materials; please cite
         "P. Giannozzi et al., J. Phys.:Condens. Matter 21 395502 (2009);
         "P. Giannozzi et al., J. Phys.:Condens. Matter 29 465901 (2017);
          URL http://www.quantum-espresso.org", 
     in publications or presentations arising from this work. More details at
     http://www.quantum-espresso.org/quote

     Parallel version (MPI & OpenMP), running on      40 processor cores
     Number of MPI processes:                40
     Threads/MPI process:                     1

     MPI processes distributed on     1 nodes
     R & G space division:  proc/nbgrp/npool/nimage =      40
     Reading input from wd/ec/ec_3_002.in
Warning: card &IONS ignored
Warning: card ION_DYNAMICS = 'BFGS', ignored
Warning: card / ignored
Warning: card &CELL ignored
Warning: card CELL_DYNAMICS = 'BFGS', ignored
Warning: card CELL_FACTOR = 2.0, ignored
Warning: card PRESS = 0.0, ignored
Warning: card / ignored

     Current dimensions of program PWSCF are:
     Max number of different atomic species (ntypx) = 10
     Max number of k-points (npk) =  40000
     Max angular momentum in pseudopotentials (lmaxx) =  3
               file Fe.pbe-spn-kjpaw_psl.1.0.0.UPF: wavefunction(s)  3P 3D renormalized
               file Fe.pbe-spn-kjpaw_psl.1.0.0.UPF: wavefunction(s)  3P 3D renormalized

     Subspace diagonalization in iterative solution of the eigenvalue problem:
     a serial algorithm will be used

     Found symmetry operation: I + (  0.0000  0.0000 -0.5000)
     This is a supercell, fractional translations are disabled
 
     Parallelization info
     --------------------
     sticks:   dense  smooth     PW     G-vecs:    dense   smooth      PW
     Min          95      63     17                 4475     2401     357
     Max          96      64     18                 4480     2406     362
     Sum        3833    2537    717               179109    96129   14363
 


     bravais-lattice index     =            0
     lattice parameter (alat)  =      10.5935  a.u.
     unit-cell volume          =    1189.8236 (a.u.)^3
     number of atoms/cell      =           16
     number of atomic types    =            2
     number of electrons       =       256.00
     number of Kohn-Sham states=          154
     kinetic-energy cutoff     =      71.0000  Ry
     charge density cutoff     =     430.0000  Ry
     convergence threshold     =      1.0E-06
     mixing beta               =       0.1000
     number of iterations used =           10  plain     mixing
     Exchange-correlation      = SLA PW PBX PBC ( 1  4  3  4 0 0)

     celldm(1)=  10.593520  celldm(2)=   0.000000  celldm(3)=   0.000000
     celldm(4)=   0.000000  celldm(5)=   0.000000  celldm(6)=   0.000000

     crystal axes: (cart. coord. in units of alat)
               a(1) = (   1.000000   0.000000   0.000000 )  
               a(2) = (   0.000000   1.000000   0.000000 )  
               a(3) = (   0.000000   0.000000   1.000833 )  

     reciprocal axes: (cart. coord. in units 2 pi/alat)
               b(1) = (  1.000000  0.000000  0.000000 )  
               b(2) = (  0.000000  1.000000  0.000000 )  
               b(3) = (  0.000000  0.000000  0.999167 )  


     PseudoPot. # 1 for Fe read from file:
     /rds/homes/b/bxp912/pp/Fe.pbe-spn-kjpaw_psl.1.0.0.UPF
     MD5 check sum: 42f43b795421b414b0dc916aa790dbcb
     Pseudo is Projector augmented-wave + core cor, Zval = 16.0
     Generated using "atomic" code by A. Dal Corso v.6.3
     Shape of augmentation charge: PSQ
     Using radial grid of 1191 points,  6 beta functions with: 
                l(1) =   0
                l(2) =   0
                l(3) =   1
                l(4) =   1
                l(5) =   2
                l(6) =   2
     Q(r) pseudized with 0 coefficients 


     PseudoPot. # 2 for Fe read from file:
     /rds/homes/b/bxp912/pp/Fe.pbe-spn-kjpaw_psl.1.0.0.UPF
     MD5 check sum: 42f43b795421b414b0dc916aa790dbcb
     Pseudo is Projector augmented-wave + core cor, Zval = 16.0
     Generated using "atomic" code by A. Dal Corso v.6.3
     Shape of augmentation charge: PSQ
     Using radial grid of 1191 points,  6 beta functions with: 
                l(1) =   0
                l(2) =   0
                l(3) =   1
                l(4) =   1
                l(5) =   2
                l(6) =   2
     Q(r) pseudized with 0 coefficients 


     atomic species   valence    mass     pseudopotential
        Fe1           16.00    55.84500     Fe( 1.00)
        Fe2           16.00    55.84500     Fe( 1.00)

     Starting magnetic structure 
     atomic species   magnetization
        Fe1          0.100
        Fe2          0.100

     16 Sym. Ops., with inversion, found



   Cartesian axes

     site n.     atom                  positions (alat units)
         1           Fe1 tau(   1) = (   0.0000000   0.0000000   0.0000000  )
         2           Fe2 tau(   2) = (   0.2500004   0.2500004   0.2502088  )
         3           Fe1 tau(   3) = (   0.0000000   0.0000000   0.5004167  )
         4           Fe2 tau(   4) = (   0.2500004   0.2500004   0.7506246  )
         5           Fe1 tau(   5) = (   0.0000000   0.5000000   0.0000000  )
         6           Fe2 tau(   6) = (   0.2500004   0.7499996   0.2502088  )
         7           Fe1 tau(   7) = (   0.0000000   0.5000000   0.5004167  )
         8           Fe2 tau(   8) = (   0.2500004   0.7499996   0.7506246  )
         9           Fe1 tau(   9) = (   0.5000000   0.0000000   0.0000000  )
        10           Fe2 tau(  10) = (   0.7499996   0.2500004   0.2502088  )
        11           Fe1 tau(  11) = (   0.5000000   0.0000000   0.5004167  )
        12           Fe2 tau(  12) = (   0.7499996   0.2500004   0.7506246  )
        13           Fe1 tau(  13) = (   0.5000000   0.5000000   0.0000000  )
        14           Fe2 tau(  14) = (   0.7499996   0.7499996   0.2502088  )
        15           Fe1 tau(  15) = (   0.5000000   0.5000000   0.5004167  )
        16           Fe2 tau(  16) = (   0.7499996   0.7499996   0.7506246  )

     number of k points=    75  Marzari-Vanderbilt smearing, width (Ry)=  0.0400
                       cart. coord. in units 2pi/alat
        k(    1) = (   0.0555556   0.0555556   0.0555093), wk =   0.0109739
        k(    2) = (   0.0555556   0.0555556   0.1665279), wk =   0.0109739
        k(    3) = (   0.0555556   0.0555556   0.2775465), wk =   0.0109739
        k(    4) = (   0.0555556   0.0555556   0.3885651), wk =   0.0109739
        k(    5) = (   0.0555556   0.0555556  -0.4995837), wk =   0.0054870
        k(    6) = (   0.0555556   0.1666667   0.0555093), wk =   0.0219479
        k(    7) = (   0.0555556   0.1666667   0.1665279), wk =   0.0219479
        k(    8) = (   0.0555556   0.1666667   0.2775465), wk =   0.0219479
        k(    9) = (   0.0555556   0.1666667   0.3885651), wk =   0.0219479
        k(   10) = (   0.0555556   0.1666667  -0.4995837), wk =   0.0109739
        k(   11) = (   0.0555556   0.2777778   0.0555093), wk =   0.0219479
        k(   12) = (   0.0555556   0.2777778   0.1665279), wk =   0.0219479
        k(   13) = (   0.0555556   0.2777778   0.2775465), wk =   0.0219479
        k(   14) = (   0.0555556   0.2777778   0.3885651), wk =   0.0219479
        k(   15) = (   0.0555556   0.2777778  -0.4995837), wk =   0.0109739
        k(   16) = (   0.0555556   0.3888889   0.0555093), wk =   0.0219479
        k(   17) = (   0.0555556   0.3888889   0.1665279), wk =   0.0219479
        k(   18) = (   0.0555556   0.3888889   0.2775465), wk =   0.0219479
        k(   19) = (   0.0555556   0.3888889   0.3885651), wk =   0.0219479
        k(   20) = (   0.0555556   0.3888889  -0.4995837), wk =   0.0109739
        k(   21) = (   0.0555556  -0.5000000   0.0555093), wk =   0.0109739
        k(   22) = (   0.0555556  -0.5000000   0.1665279), wk =   0.0109739
        k(   23) = (   0.0555556  -0.5000000   0.2775465), wk =   0.0109739
        k(   24) = (   0.0555556  -0.5000000   0.3885651), wk =   0.0109739
        k(   25) = (   0.0555556  -0.5000000  -0.4995837), wk =   0.0054870
        k(   26) = (   0.1666667   0.1666667   0.0555093), wk =   0.0109739
        k(   27) = (   0.1666667   0.1666667   0.1665279), wk =   0.0109739
        k(   28) = (   0.1666667   0.1666667   0.2775465), wk =   0.0109739
        k(   29) = (   0.1666667   0.1666667   0.3885651), wk =   0.0109739
        k(   30) = (   0.1666667   0.1666667  -0.4995837), wk =   0.0054870
        k(   31) = (   0.1666667   0.2777778   0.0555093), wk =   0.0219479
        k(   32) = (   0.1666667   0.2777778   0.1665279), wk =   0.0219479
        k(   33) = (   0.1666667   0.2777778   0.2775465), wk =   0.0219479
        k(   34) = (   0.1666667   0.2777778   0.3885651), wk =   0.0219479
        k(   35) = (   0.1666667   0.2777778  -0.4995837), wk =   0.0109739
        k(   36) = (   0.1666667   0.3888889   0.0555093), wk =   0.0219479
        k(   37) = (   0.1666667   0.3888889   0.1665279), wk =   0.0219479
        k(   38) = (   0.1666667   0.3888889   0.2775465), wk =   0.0219479
        k(   39) = (   0.1666667   0.3888889   0.3885651), wk =   0.0219479
        k(   40) = (   0.1666667   0.3888889  -0.4995837), wk =   0.0109739
        k(   41) = (   0.1666667  -0.5000000   0.0555093), wk =   0.0109739
        k(   42) = (   0.1666667  -0.5000000   0.1665279), wk =   0.0109739
        k(   43) = (   0.1666667  -0.5000000   0.2775465), wk =   0.0109739
        k(   44) = (   0.1666667  -0.5000000   0.3885651), wk =   0.0109739
        k(   45) = (   0.1666667  -0.5000000  -0.4995837), wk =   0.0054870
        k(   46) = (   0.2777778   0.2777778   0.0555093), wk =   0.0109739
        k(   47) = (   0.2777778   0.2777778   0.1665279), wk =   0.0109739
        k(   48) = (   0.2777778   0.2777778   0.2775465), wk =   0.0109739
        k(   49) = (   0.2777778   0.2777778   0.3885651), wk =   0.0109739
        k(   50) = (   0.2777778   0.2777778  -0.4995837), wk =   0.0054870
        k(   51) = (   0.2777778   0.3888889   0.0555093), wk =   0.0219479
        k(   52) = (   0.2777778   0.3888889   0.1665279), wk =   0.0219479
        k(   53) = (   0.2777778   0.3888889   0.2775465), wk =   0.0219479
        k(   54) = (   0.2777778   0.3888889   0.3885651), wk =   0.0219479
        k(   55) = (   0.2777778   0.3888889  -0.4995837), wk =   0.0109739
        k(   56) = (   0.2777778  -0.5000000   0.0555093), wk =   0.0109739
        k(   57) = (   0.2777778  -0.5000000   0.1665279), wk =   0.0109739
        k(   58) = (   0.2777778  -0.5000000   0.2775465), wk =   0.0109739
        k(   59) = (   0.2777778  -0.5000000   0.3885651), wk =   0.0109739
        k(   60) = (   0.2777778  -0.5000000  -0.4995837), wk =   0.0054870
        k(   61) = (   0.3888889   0.3888889   0.0555093), wk =   0.0109739
        k(   62) = (   0.3888889   0.3888889   0.1665279), wk =   0.0109739
        k(   63) = (   0.3888889   0.3888889   0.2775465), wk =   0.0109739
        k(   64) = (   0.3888889   0.3888889   0.3885651), wk =   0.0109739
        k(   65) = (   0.3888889   0.3888889  -0.4995837), wk =   0.0054870
        k(   66) = (   0.3888889  -0.5000000   0.0555093), wk =   0.0109739
        k(   67) = (   0.3888889  -0.5000000   0.1665279), wk =   0.0109739
        k(   68) = (   0.3888889  -0.5000000   0.2775465), wk =   0.0109739
        k(   69) = (   0.3888889  -0.5000000   0.3885651), wk =   0.0109739
        k(   70) = (   0.3888889  -0.5000000  -0.4995837), wk =   0.0054870
        k(   71) = (  -0.5000000  -0.5000000   0.0555093), wk =   0.0027435
        k(   72) = (  -0.5000000  -0.5000000   0.1665279), wk =   0.0027435
        k(   73) = (  -0.5000000  -0.5000000   0.2775465), wk =   0.0027435
        k(   74) = (  -0.5000000  -0.5000000   0.3885651), wk =   0.0027435
        k(   75) = (  -0.5000000  -0.5000000  -0.4995837), wk =   0.0013717

     Dense  grid:   179109 G-vectors     FFT dimensions: (  72,  72,  72)

     Smooth grid:    96129 G-vectors     FFT dimensions: (  60,  60,  60)

     Estimated max dynamical RAM per process >     144.88 MB

     Estimated total dynamical RAM >       5.66 GB
     Generating pointlists ...
     new r_m :   0.1787 (alat units)  1.8927 (a.u.) for type    1
     new r_m :   0.1787 (alat units)  1.8927 (a.u.) for type    2

     Check: negative/imaginary core charge=   -0.000006    0.000000

     Initial potential from superposition of free atoms

     starting charge  255.99300, renormalised to  256.00000
     Starting wfcs are  160 randomized atomic wfcs
     Checking if some PAW data can be deallocated... 

     total cpu time spent up to now is       16.3 secs

     Self-consistent Calculation

     iteration #  1     ecut=    71.00 Ry     beta= 0.10
     Davidson diagonalization with overlap
     ethr =  1.00E-02,  avg # of iterations =  3.4

     Threshold (ethr) on eigenvalues was too large:
     Diagonalizing with lowered threshold

     Davidson diagonalization with overlap
     ethr =  2.10E-04,  avg # of iterations =  3.5

     total cpu time spent up to now is      133.1 secs

     total energy              =   -5268.00856866 Ry
     Harris-Foulkes estimate   =   -5268.07031830 Ry
     estimated scf accuracy    <       0.61890534 Ry

     total magnetization       =    27.95 Bohr mag/cell
     absolute magnetization    =    28.06 Bohr mag/cell

     iteration #  2     ecut=    71.00 Ry     beta= 0.10
     Davidson diagonalization with overlap
     ethr =  2.42E-04,  avg # of iterations =  1.0

     total cpu time spent up to now is      166.4 secs

     total energy              =   -5267.97676762 Ry
     Harris-Foulkes estimate   =   -5268.02090070 Ry
     estimated scf accuracy    <       0.36182557 Ry

     total magnetization       =    28.61 Bohr mag/cell
     absolute magnetization    =    28.75 Bohr mag/cell

     iteration #  3     ecut=    71.00 Ry     beta= 0.10
     Davidson diagonalization with overlap
     ethr =  1.41E-04,  avg # of iterations =  3.0

     total cpu time spent up to now is      220.4 secs

     total energy              =   -5268.02723571 Ry
     Harris-Foulkes estimate   =   -5268.03186468 Ry
     estimated scf accuracy    <       0.41006701 Ry

     total magnetization       =    29.74 Bohr mag/cell
     absolute magnetization    =    30.04 Bohr mag/cell

     iteration #  4     ecut=    71.00 Ry     beta= 0.10
     Davidson diagonalization with overlap
     ethr =  1.41E-04,  avg # of iterations =  1.0

     total cpu time spent up to now is      254.2 secs

     total energy              =   -5268.04478418 Ry
     Harris-Foulkes estimate   =   -5268.04046597 Ry
     estimated scf accuracy    <       0.12174373 Ry

     total magnetization       =    30.15 Bohr mag/cell
     absolute magnetization    =    30.49 Bohr mag/cell

     iteration #  5     ecut=    71.00 Ry     beta= 0.10
     Davidson diagonalization with overlap
     ethr =  4.76E-05,  avg # of iterations =  1.0

     total cpu time spent up to now is      288.1 secs

     total energy              =   -5268.11364853 Ry
     Harris-Foulkes estimate   =   -5268.04649717 Ry
     estimated scf accuracy    <       0.10586828 Ry

     total magnetization       =    30.21 Bohr mag/cell
     absolute magnetization    =    30.57 Bohr mag/cell

     iteration #  6     ecut=    71.00 Ry     beta= 0.10
     Davidson diagonalization with overlap
     ethr =  4.14E-05,  avg # of iterations =  3.5

     negative rho (up, down):  0.000E+00 1.103E-03

     total cpu time spent up to now is      353.5 secs

     total energy              =   -5268.16110169 Ry
     Harris-Foulkes estimate   =   -5268.16159136 Ry
     estimated scf accuracy    <       0.20103715 Ry

     total magnetization       =    30.99 Bohr mag/cell
     absolute magnetization    =    31.75 Bohr mag/cell

     iteration #  7     ecut=    71.00 Ry     beta= 0.10
     Davidson diagonalization with overlap
     ethr =  4.14E-05,  avg # of iterations =  2.6

     negative rho (up, down):  0.000E+00 1.532E-03

     total cpu time spent up to now is      406.7 secs

     total energy              =   -5268.18121049 Ry
     Harris-Foulkes estimate   =   -5268.18316268 Ry
     estimated scf accuracy    <       0.04710527 Ry

     total magnetization       =    31.91 Bohr mag/cell
     absolute magnetization    =    33.13 Bohr mag/cell

     iteration #  8     ecut=    71.00 Ry     beta= 0.10
     Davidson diagonalization with overlap
     ethr =  1.84E-05,  avg # of iterations =  1.2

     negative rho (up, down):  0.000E+00 1.213E-03

     total cpu time spent up to now is      443.3 secs

     total energy              =   -5268.17946792 Ry
     Harris-Foulkes estimate   =   -5268.18318503 Ry
     estimated scf accuracy    <       0.02882897 Ry

     total magnetization       =    32.07 Bohr mag/cell
     absolute magnetization    =    33.33 Bohr mag/cell

     iteration #  9     ecut=    71.00 Ry     beta= 0.10
     Davidson diagonalization with overlap
     ethr =  1.13E-05,  avg # of iterations =  2.3

     negative rho (up, down):  0.000E+00 1.538E-03

     total cpu time spent up to now is      487.1 secs

     total energy              =   -5268.18365953 Ry
     Harris-Foulkes estimate   =   -5268.18079259 Ry
     estimated scf accuracy    <       0.01782922 Ry

     total magnetization       =    32.17 Bohr mag/cell
     absolute magnetization    =    33.47 Bohr mag/cell

     iteration # 10     ecut=    71.00 Ry     beta= 0.10
     Davidson diagonalization with overlap
     ethr =  6.96E-06,  avg # of iterations =  1.9

     negative rho (up, down):  0.000E+00 2.355E-03

     total cpu time spent up to now is      527.8 secs

     total energy              =   -5268.18759949 Ry
     Harris-Foulkes estimate   =   -5268.18467835 Ry
     estimated scf accuracy    <       0.00582715 Ry

     total magnetization       =    32.37 Bohr mag/cell
     absolute magnetization    =    33.78 Bohr mag/cell

     iteration # 11     ecut=    71.00 Ry     beta= 0.10
     Davidson diagonalization with overlap
     ethr =  2.28E-06,  avg # of iterations =  3.5

     negative rho (up, down):  0.000E+00 2.319E-03

     total cpu time spent up to now is      587.7 secs

     total energy              =   -5268.18895879 Ry
     Harris-Foulkes estimate   =   -5268.18890933 Ry
     estimated scf accuracy    <       0.00102898 Ry

     total magnetization       =    32.63 Bohr mag/cell
     absolute magnetization    =    34.25 Bohr mag/cell

     iteration # 12     ecut=    71.00 Ry     beta= 0.10
     Davidson diagonalization with overlap
     ethr =  4.02E-07,  avg # of iterations =  1.2

     negative rho (up, down):  0.000E+00 2.208E-03

     total cpu time spent up to now is      622.4 secs

     total energy              =   -5268.18925168 Ry
     Harris-Foulkes estimate   =   -5268.18897620 Ry
     estimated scf accuracy    <       0.00086659 Ry

     total magnetization       =    32.65 Bohr mag/cell
     absolute magnetization    =    34.27 Bohr mag/cell

     iteration # 13     ecut=    71.00 Ry     beta= 0.10
     Davidson diagonalization with overlap
     ethr =  3.39E-07,  avg # of iterations =  2.4

     negative rho (up, down):  0.000E+00 2.324E-03

     total cpu time spent up to now is      669.1 secs

     total energy              =   -5268.18957390 Ry
     Harris-Foulkes estimate   =   -5268.18937096 Ry
     estimated scf accuracy    <       0.00058872 Ry

     total magnetization       =    32.71 Bohr mag/cell
     absolute magnetization    =    34.37 Bohr mag/cell

     iteration # 14     ecut=    71.00 Ry     beta= 0.10
     Davidson diagonalization with overlap
     ethr =  2.30E-07,  avg # of iterations =  2.4

     negative rho (up, down):  0.000E+00 2.457E-03

     total cpu time spent up to now is      715.3 secs

     total energy              =   -5268.18965185 Ry
     Harris-Foulkes estimate   =   -5268.18963857 Ry
     estimated scf accuracy    <       0.00024556 Ry

     total magnetization       =    32.78 Bohr mag/cell
     absolute magnetization    =    34.49 Bohr mag/cell

     iteration # 15     ecut=    71.00 Ry     beta= 0.10
     Davidson diagonalization with overlap
     ethr =  9.59E-08,  avg # of iterations =  3.1

     negative rho (up, down):  0.000E+00 2.388E-03

     total cpu time spent up to now is      768.5 secs

     total energy              =   -5268.18972920 Ry
     Harris-Foulkes estimate   =   -5268.18968816 Ry
     estimated scf accuracy    <       0.00009913 Ry

     total magnetization       =    32.83 Bohr mag/cell
     absolute magnetization    =    34.57 Bohr mag/cell

     iteration # 16     ecut=    71.00 Ry     beta= 0.10
     Davidson diagonalization with overlap
     ethr =  3.87E-08,  avg # of iterations =  2.1

     negative rho (up, down):  0.000E+00 2.475E-03

     total cpu time spent up to now is      811.9 secs

     total energy              =   -5268.18972602 Ry
     Harris-Foulkes estimate   =   -5268.18974032 Ry
     estimated scf accuracy    <       0.00009579 Ry

     total magnetization       =    32.84 Bohr mag/cell
     absolute magnetization    =    34.58 Bohr mag/cell

     iteration # 17     ecut=    71.00 Ry     beta= 0.10
     Davidson diagonalization with overlap
     ethr =  3.74E-08,  avg # of iterations =  2.9

     negative rho (up, down):  0.000E+00 2.436E-03

     total cpu time spent up to now is      862.9 secs

     total energy              =   -5268.18976569 Ry
     Harris-Foulkes estimate   =   -5268.18974169 Ry
     estimated scf accuracy    <       0.00007311 Ry

     total magnetization       =    32.86 Bohr mag/cell
     absolute magnetization    =    34.62 Bohr mag/cell

     iteration # 18     ecut=    71.00 Ry     beta= 0.10
     Davidson diagonalization with overlap
     ethr =  2.86E-08,  avg # of iterations =  2.4

     negative rho (up, down):  0.000E+00 2.438E-03

     total cpu time spent up to now is      909.4 secs

     total energy              =   -5268.18978082 Ry
     Harris-Foulkes estimate   =   -5268.18977744 Ry
     estimated scf accuracy    <       0.00001649 Ry

     total magnetization       =    32.89 Bohr mag/cell
     absolute magnetization    =    34.65 Bohr mag/cell

     iteration # 19     ecut=    71.00 Ry     beta= 0.10
     Davidson diagonalization with overlap
     ethr =  6.44E-09,  avg # of iterations =  2.1

     negative rho (up, down):  0.000E+00 2.454E-03

     total cpu time spent up to now is      950.4 secs

     total energy              =   -5268.18978278 Ry
     Harris-Foulkes estimate   =   -5268.18978184 Ry
     estimated scf accuracy    <       0.00001064 Ry

     total magnetization       =    32.89 Bohr mag/cell
     absolute magnetization    =    34.66 Bohr mag/cell

     iteration # 20     ecut=    71.00 Ry     beta= 0.10
     Davidson diagonalization with overlap
     ethr =  4.16E-09,  avg # of iterations =  2.7

     negative rho (up, down):  0.000E+00 2.454E-03

     total cpu time spent up to now is      999.2 secs

     total energy              =   -5268.18978540 Ry
     Harris-Foulkes estimate   =   -5268.18978493 Ry
     estimated scf accuracy    <       0.00000269 Ry

     total magnetization       =    32.91 Bohr mag/cell
     absolute magnetization    =    34.67 Bohr mag/cell

     iteration # 21     ecut=    71.00 Ry     beta= 0.10
     Davidson diagonalization with overlap
     ethr =  1.05E-09,  avg # of iterations =  2.4

     negative rho (up, down):  0.000E+00 2.469E-03
 
     Magnetic moment per site:
     atom:    1    charge:   14.3674    magn:    2.1001    constr:    0.0000
     atom:    2    charge:   14.3671    magn:    2.1020    constr:    0.0000
     atom:    3    charge:   14.3670    magn:    2.1013    constr:    0.0000
     atom:    4    charge:   14.3671    magn:    2.1020    constr:    0.0000
     atom:    5    charge:   14.3669    magn:    2.1004    constr:    0.0000
     atom:    6    charge:   14.3671    magn:    2.1020    constr:    0.0000
     atom:    7    charge:   14.3670    magn:    2.1012    constr:    0.0000
     atom:    8    charge:   14.3671    magn:    2.1020    constr:    0.0000
     atom:    9    charge:   14.3669    magn:    2.1004    constr:    0.0000
     atom:   10    charge:   14.3671    magn:    2.1020    constr:    0.0000
     atom:   11    charge:   14.3670    magn:    2.1012    constr:    0.0000
     atom:   12    charge:   14.3671    magn:    2.1020    constr:    0.0000
     atom:   13    charge:   14.3672    magn:    2.1007    constr:    0.0000
     atom:   14    charge:   14.3671    magn:    2.1020    constr:    0.0000
     atom:   15    charge:   14.3673    magn:    2.1015    constr:    0.0000
     atom:   16    charge:   14.3671    magn:    2.1020    constr:    0.0000

     total cpu time spent up to now is     1044.8 secs

     End of self-consistent calculation

     Number of k-points >= 100: set verbosity='high' to print the bands.

     the Fermi energy is    18.9544 ev

!    total energy              =   -5268.18978726 Ry
     Harris-Foulkes estimate   =   -5268.18978579 Ry
     estimated scf accuracy    <       0.00000099 Ry

     total all-electron energy =    -40728.934316 Ry

     The total energy is the sum of the following terms:

     one-electron contribution =   -1708.66556695 Ry
     hartree contribution      =    1022.72160639 Ry
     xc contribution           =    -444.25066042 Ry
     ewald contribution        =   -2813.44865078 Ry
     one-center paw contrib.   =   -1324.67103522 Ry
     smearing contrib. (-TS)   =       0.12451972 Ry

     total magnetization       =    32.91 Bohr mag/cell
     absolute magnetization    =    34.68 Bohr mag/cell

     convergence has been achieved in  21 iterations

     negative rho (up, down):  0.000E+00 2.469E-03

     Forces acting on atoms (cartesian axes, Ry/au):

     atom    1 type  1   force =     0.00000000    0.00000000    0.00000000
     atom    2 type  2   force =     0.00003201    0.00003201    0.00015756
     atom    3 type  1   force =     0.00000000    0.00000000    0.00000000
     atom    4 type  2   force =     0.00003201    0.00003201   -0.00015756
     atom    5 type  1   force =     0.00000000    0.00000000    0.00000000
     atom    6 type  2   force =     0.00003201   -0.00003201    0.00015756
     atom    7 type  1   force =     0.00000000    0.00000000    0.00000000
     atom    8 type  2   force =     0.00003201   -0.00003201   -0.00015756
     atom    9 type  1   force =     0.00000000    0.00000000    0.00000000
     atom   10 type  2   force =    -0.00003201    0.00003201    0.00015756
     atom   11 type  1   force =     0.00000000    0.00000000    0.00000000
     atom   12 type  2   force =    -0.00003201    0.00003201   -0.00015756
     atom   13 type  1   force =     0.00000000    0.00000000    0.00000000
     atom   14 type  2   force =    -0.00003201   -0.00003201    0.00015756
     atom   15 type  1   force =     0.00000000    0.00000000    0.00000000
     atom   16 type  2   force =    -0.00003201   -0.00003201   -0.00015756

     Total force =     0.000464     Total SCF correction =     0.002943
     SCF correction compared to forces is large: reduce conv_thr to get better values


     Computing stress (Cartesian axis) and pressure


     negative rho (up, down):  0.000E+00 2.469E-03
          total   stress  (Ry/bohr**3)                   (kbar)     P=   -4.34
  -0.00002709   0.00000000   0.00000000         -3.99      0.00      0.00
   0.00000000  -0.00002709   0.00000000          0.00     -3.99      0.00
   0.00000000   0.00000000  -0.00003425          0.00      0.00     -5.04


     Writing output data file QfrsJEVIOzOsfhWc.save/
 
     init_run     :     14.04s CPU     14.76s WALL (       1 calls)
     electrons    :    998.14s CPU   1028.57s WALL (       1 calls)
     forces       :      4.88s CPU      5.34s WALL (       1 calls)
     stress       :     13.05s CPU     13.18s WALL (       1 calls)

     Called by init_run:
     wfcinit      :     13.56s CPU     14.17s WALL (       1 calls)
     potinit      :      0.22s CPU      0.25s WALL (       1 calls)
     hinit0       :      0.12s CPU      0.13s WALL (       1 calls)

     Called by electrons:
     c_bands      :    899.83s CPU    924.96s WALL (      22 calls)
     sum_band     :     93.79s CPU     98.63s WALL (      22 calls)
     v_of_rho     :      0.34s CPU      0.34s WALL (      22 calls)
     newd         :      0.76s CPU      0.93s WALL (      22 calls)
     PAW_pot      :      3.40s CPU      3.60s WALL (      22 calls)
     mix_rho      :      0.13s CPU      0.14s WALL (      22 calls)

     Called by c_bands:
     init_us_2    :      4.84s CPU      4.90s WALL (    7050 calls)
     cegterg      :    875.63s CPU    900.53s WALL (    3300 calls)

     Called by sum_band:
     sum_band:bec :      1.36s CPU      1.39s WALL (    3300 calls)
     addusdens    :      1.18s CPU      1.34s WALL (      22 calls)

     Called by *egterg:
     h_psi        :    367.41s CPU    382.73s WALL (   11191 calls)
     s_psi        :     20.40s CPU     20.53s WALL (   11191 calls)
     g_psi        :      0.84s CPU      0.85s WALL (    7741 calls)
     cdiaghg      :    401.07s CPU    402.35s WALL (   10891 calls)

     Called by h_psi:
     h_psi:pot    :    365.24s CPU    380.54s WALL (   11191 calls)
     h_psi:calbec :     30.65s CPU     35.47s WALL (   11191 calls)
     vloc_psi     :    314.12s CPU    324.47s WALL (   11191 calls)
     add_vuspsi   :     20.37s CPU     20.52s WALL (   11191 calls)

     General routines
     calbec       :     46.95s CPU     54.54s WALL (   15241 calls)
     fft          :      0.41s CPU      0.43s WALL (     592 calls)
     ffts         :      0.06s CPU      0.23s WALL (      88 calls)
     fftw         :    366.71s CPU    378.65s WALL ( 2769370 calls)
     interpolate  :      0.07s CPU      0.15s WALL (      44 calls)
 
     Parallel routines
     fft_scatt_xy :     24.16s CPU     24.89s WALL ( 2770050 calls)
     fft_scatt_yz :    246.06s CPU    254.35s WALL ( 2770050 calls)
 
     PWSCF        : 17m19.88s CPU    18m17.98s WALL

 
   This run was terminated on:  14:57:53   9Sep2020            

=------------------------------------------------------------------------------=
   JOB DONE.
=------------------------------------------------------------------------------=
