--------------------------------------------------------------------------
WARNING: No preset parameters were found for the device that Open MPI
detected:

  Local host:            bear-pg0206u39a
  Device name:           mlx5_0
  Device vendor ID:      0x02c9
  Device vendor part ID: 4123

Default device parameters will be used, which may result in lower
performance.  You can edit any of the files specified by the
btl_openib_device_param_files MCA parameter to set values for your
device.

NOTE: You can turn off this warning by setting the MCA parameter
      btl_openib_warn_no_device_params_found to 0.
--------------------------------------------------------------------------
--------------------------------------------------------------------------
WARNING: There was an error initializing an OpenFabrics device.

  Local host:   bear-pg0206u39a
  Local device: mlx5_0
--------------------------------------------------------------------------

     Program PWSCF v.6.3 starts on  9Sep2020 at 16:12:54 

     This program is part of the open-source Quantum ESPRESSO suite
     for quantum simulation of materials; please cite
         "P. Giannozzi et al., J. Phys.:Condens. Matter 21 395502 (2009);
         "P. Giannozzi et al., J. Phys.:Condens. Matter 29 465901 (2017);
          URL http://www.quantum-espresso.org", 
     in publications or presentations arising from this work. More details at
     http://www.quantum-espresso.org/quote

     Parallel version (MPI & OpenMP), running on      40 processor cores
     Number of MPI processes:                40
     Threads/MPI process:                     1

     MPI processes distributed on     1 nodes
     R & G space division:  proc/nbgrp/npool/nimage =      40
     Reading input from wd/ec/ec_3_007.in
Warning: card &IONS ignored
Warning: card ION_DYNAMICS = 'BFGS', ignored
Warning: card / ignored
Warning: card &CELL ignored
Warning: card CELL_DYNAMICS = 'BFGS', ignored
Warning: card CELL_FACTOR = 2.0, ignored
Warning: card PRESS = 0.0, ignored
Warning: card / ignored

     Current dimensions of program PWSCF are:
     Max number of different atomic species (ntypx) = 10
     Max number of k-points (npk) =  40000
     Max angular momentum in pseudopotentials (lmaxx) =  3
               file Fe.pbe-spn-kjpaw_psl.1.0.0.UPF: wavefunction(s)  3P 3D renormalized
               file Fe.pbe-spn-kjpaw_psl.1.0.0.UPF: wavefunction(s)  3P 3D renormalized

     Subspace diagonalization in iterative solution of the eigenvalue problem:
     a serial algorithm will be used

     Found symmetry operation: I + (  0.0000  0.0000 -0.5000)
     This is a supercell, fractional translations are disabled
 
     Parallelization info
     --------------------
     sticks:   dense  smooth     PW     G-vecs:    dense   smooth      PW
     Min          95      63     17                 4495     2415     357
     Max          96      64     18                 4500     2420     362
     Sum        3833    2537    717               179903    96681   14387
 


     bravais-lattice index     =            0
     lattice parameter (alat)  =      10.5935  a.u.
     unit-cell volume          =    1194.7771 (a.u.)^3
     number of atoms/cell      =           16
     number of atomic types    =            2
     number of electrons       =       256.00
     number of Kohn-Sham states=          154
     kinetic-energy cutoff     =      71.0000  Ry
     charge density cutoff     =     430.0000  Ry
     convergence threshold     =      1.0E-06
     mixing beta               =       0.1000
     number of iterations used =           10  plain     mixing
     Exchange-correlation      = SLA PW PBX PBC ( 1  4  3  4 0 0)

     celldm(1)=  10.593520  celldm(2)=   0.000000  celldm(3)=   0.000000
     celldm(4)=   0.000000  celldm(5)=   0.000000  celldm(6)=   0.000000

     crystal axes: (cart. coord. in units of alat)
               a(1) = (   1.000000   0.000000   0.000000 )  
               a(2) = (   0.000000   1.000000   0.000000 )  
               a(3) = (   0.000000   0.000000   1.005000 )  

     reciprocal axes: (cart. coord. in units 2 pi/alat)
               b(1) = (  1.000000  0.000000  0.000000 )  
               b(2) = (  0.000000  1.000000  0.000000 )  
               b(3) = (  0.000000  0.000000  0.995025 )  


     PseudoPot. # 1 for Fe read from file:
     /rds/homes/b/bxp912/pp/Fe.pbe-spn-kjpaw_psl.1.0.0.UPF
     MD5 check sum: 42f43b795421b414b0dc916aa790dbcb
     Pseudo is Projector augmented-wave + core cor, Zval = 16.0
     Generated using "atomic" code by A. Dal Corso v.6.3
     Shape of augmentation charge: PSQ
     Using radial grid of 1191 points,  6 beta functions with: 
                l(1) =   0
                l(2) =   0
                l(3) =   1
                l(4) =   1
                l(5) =   2
                l(6) =   2
     Q(r) pseudized with 0 coefficients 


     PseudoPot. # 2 for Fe read from file:
     /rds/homes/b/bxp912/pp/Fe.pbe-spn-kjpaw_psl.1.0.0.UPF
     MD5 check sum: 42f43b795421b414b0dc916aa790dbcb
     Pseudo is Projector augmented-wave + core cor, Zval = 16.0
     Generated using "atomic" code by A. Dal Corso v.6.3
     Shape of augmentation charge: PSQ
     Using radial grid of 1191 points,  6 beta functions with: 
                l(1) =   0
                l(2) =   0
                l(3) =   1
                l(4) =   1
                l(5) =   2
                l(6) =   2
     Q(r) pseudized with 0 coefficients 


     atomic species   valence    mass     pseudopotential
        Fe1           16.00    55.84500     Fe( 1.00)
        Fe2           16.00    55.84500     Fe( 1.00)

     Starting magnetic structure 
     atomic species   magnetization
        Fe1          0.100
        Fe2          0.100

     16 Sym. Ops., with inversion, found



   Cartesian axes

     site n.     atom                  positions (alat units)
         1           Fe1 tau(   1) = (   0.0000000   0.0000000   0.0000000  )
         2           Fe2 tau(   2) = (   0.2500004   0.2500004   0.2512504  )
         3           Fe1 tau(   3) = (   0.0000000   0.0000000   0.5025000  )
         4           Fe2 tau(   4) = (   0.2500004   0.2500004   0.7537496  )
         5           Fe1 tau(   5) = (   0.0000000   0.5000000   0.0000000  )
         6           Fe2 tau(   6) = (   0.2500004   0.7499996   0.2512504  )
         7           Fe1 tau(   7) = (   0.0000000   0.5000000   0.5025000  )
         8           Fe2 tau(   8) = (   0.2500004   0.7499996   0.7537496  )
         9           Fe1 tau(   9) = (   0.5000000   0.0000000   0.0000000  )
        10           Fe2 tau(  10) = (   0.7499996   0.2500004   0.2512504  )
        11           Fe1 tau(  11) = (   0.5000000   0.0000000   0.5025000  )
        12           Fe2 tau(  12) = (   0.7499996   0.2500004   0.7537496  )
        13           Fe1 tau(  13) = (   0.5000000   0.5000000   0.0000000  )
        14           Fe2 tau(  14) = (   0.7499996   0.7499996   0.2512504  )
        15           Fe1 tau(  15) = (   0.5000000   0.5000000   0.5025000  )
        16           Fe2 tau(  16) = (   0.7499996   0.7499996   0.7537496  )

     number of k points=    75  Marzari-Vanderbilt smearing, width (Ry)=  0.0400
                       cart. coord. in units 2pi/alat
        k(    1) = (   0.0555556   0.0555556   0.0552792), wk =   0.0109739
        k(    2) = (   0.0555556   0.0555556   0.1658375), wk =   0.0109739
        k(    3) = (   0.0555556   0.0555556   0.2763958), wk =   0.0109739
        k(    4) = (   0.0555556   0.0555556   0.3869541), wk =   0.0109739
        k(    5) = (   0.0555556   0.0555556  -0.4975124), wk =   0.0054870
        k(    6) = (   0.0555556   0.1666667   0.0552792), wk =   0.0219479
        k(    7) = (   0.0555556   0.1666667   0.1658375), wk =   0.0219479
        k(    8) = (   0.0555556   0.1666667   0.2763958), wk =   0.0219479
        k(    9) = (   0.0555556   0.1666667   0.3869541), wk =   0.0219479
        k(   10) = (   0.0555556   0.1666667  -0.4975124), wk =   0.0109739
        k(   11) = (   0.0555556   0.2777778   0.0552792), wk =   0.0219479
        k(   12) = (   0.0555556   0.2777778   0.1658375), wk =   0.0219479
        k(   13) = (   0.0555556   0.2777778   0.2763958), wk =   0.0219479
        k(   14) = (   0.0555556   0.2777778   0.3869541), wk =   0.0219479
        k(   15) = (   0.0555556   0.2777778  -0.4975124), wk =   0.0109739
        k(   16) = (   0.0555556   0.3888889   0.0552792), wk =   0.0219479
        k(   17) = (   0.0555556   0.3888889   0.1658375), wk =   0.0219479
        k(   18) = (   0.0555556   0.3888889   0.2763958), wk =   0.0219479
        k(   19) = (   0.0555556   0.3888889   0.3869541), wk =   0.0219479
        k(   20) = (   0.0555556   0.3888889  -0.4975124), wk =   0.0109739
        k(   21) = (   0.0555556  -0.5000000   0.0552792), wk =   0.0109739
        k(   22) = (   0.0555556  -0.5000000   0.1658375), wk =   0.0109739
        k(   23) = (   0.0555556  -0.5000000   0.2763958), wk =   0.0109739
        k(   24) = (   0.0555556  -0.5000000   0.3869541), wk =   0.0109739
        k(   25) = (   0.0555556  -0.5000000  -0.4975124), wk =   0.0054870
        k(   26) = (   0.1666667   0.1666667   0.0552792), wk =   0.0109739
        k(   27) = (   0.1666667   0.1666667   0.1658375), wk =   0.0109739
        k(   28) = (   0.1666667   0.1666667   0.2763958), wk =   0.0109739
        k(   29) = (   0.1666667   0.1666667   0.3869541), wk =   0.0109739
        k(   30) = (   0.1666667   0.1666667  -0.4975124), wk =   0.0054870
        k(   31) = (   0.1666667   0.2777778   0.0552792), wk =   0.0219479
        k(   32) = (   0.1666667   0.2777778   0.1658375), wk =   0.0219479
        k(   33) = (   0.1666667   0.2777778   0.2763958), wk =   0.0219479
        k(   34) = (   0.1666667   0.2777778   0.3869541), wk =   0.0219479
        k(   35) = (   0.1666667   0.2777778  -0.4975124), wk =   0.0109739
        k(   36) = (   0.1666667   0.3888889   0.0552792), wk =   0.0219479
        k(   37) = (   0.1666667   0.3888889   0.1658375), wk =   0.0219479
        k(   38) = (   0.1666667   0.3888889   0.2763958), wk =   0.0219479
        k(   39) = (   0.1666667   0.3888889   0.3869541), wk =   0.0219479
        k(   40) = (   0.1666667   0.3888889  -0.4975124), wk =   0.0109739
        k(   41) = (   0.1666667  -0.5000000   0.0552792), wk =   0.0109739
        k(   42) = (   0.1666667  -0.5000000   0.1658375), wk =   0.0109739
        k(   43) = (   0.1666667  -0.5000000   0.2763958), wk =   0.0109739
        k(   44) = (   0.1666667  -0.5000000   0.3869541), wk =   0.0109739
        k(   45) = (   0.1666667  -0.5000000  -0.4975124), wk =   0.0054870
        k(   46) = (   0.2777778   0.2777778   0.0552792), wk =   0.0109739
        k(   47) = (   0.2777778   0.2777778   0.1658375), wk =   0.0109739
        k(   48) = (   0.2777778   0.2777778   0.2763958), wk =   0.0109739
        k(   49) = (   0.2777778   0.2777778   0.3869541), wk =   0.0109739
        k(   50) = (   0.2777778   0.2777778  -0.4975124), wk =   0.0054870
        k(   51) = (   0.2777778   0.3888889   0.0552792), wk =   0.0219479
        k(   52) = (   0.2777778   0.3888889   0.1658375), wk =   0.0219479
        k(   53) = (   0.2777778   0.3888889   0.2763958), wk =   0.0219479
        k(   54) = (   0.2777778   0.3888889   0.3869541), wk =   0.0219479
        k(   55) = (   0.2777778   0.3888889  -0.4975124), wk =   0.0109739
        k(   56) = (   0.2777778  -0.5000000   0.0552792), wk =   0.0109739
        k(   57) = (   0.2777778  -0.5000000   0.1658375), wk =   0.0109739
        k(   58) = (   0.2777778  -0.5000000   0.2763958), wk =   0.0109739
        k(   59) = (   0.2777778  -0.5000000   0.3869541), wk =   0.0109739
        k(   60) = (   0.2777778  -0.5000000  -0.4975124), wk =   0.0054870
        k(   61) = (   0.3888889   0.3888889   0.0552792), wk =   0.0109739
        k(   62) = (   0.3888889   0.3888889   0.1658375), wk =   0.0109739
        k(   63) = (   0.3888889   0.3888889   0.2763958), wk =   0.0109739
        k(   64) = (   0.3888889   0.3888889   0.3869541), wk =   0.0109739
        k(   65) = (   0.3888889   0.3888889  -0.4975124), wk =   0.0054870
        k(   66) = (   0.3888889  -0.5000000   0.0552792), wk =   0.0109739
        k(   67) = (   0.3888889  -0.5000000   0.1658375), wk =   0.0109739
        k(   68) = (   0.3888889  -0.5000000   0.2763958), wk =   0.0109739
        k(   69) = (   0.3888889  -0.5000000   0.3869541), wk =   0.0109739
        k(   70) = (   0.3888889  -0.5000000  -0.4975124), wk =   0.0054870
        k(   71) = (  -0.5000000  -0.5000000   0.0552792), wk =   0.0027435
        k(   72) = (  -0.5000000  -0.5000000   0.1658375), wk =   0.0027435
        k(   73) = (  -0.5000000  -0.5000000   0.2763958), wk =   0.0027435
        k(   74) = (  -0.5000000  -0.5000000   0.3869541), wk =   0.0027435
        k(   75) = (  -0.5000000  -0.5000000  -0.4975124), wk =   0.0013717

     Dense  grid:   179903 G-vectors     FFT dimensions: (  72,  72,  72)

     Smooth grid:    96681 G-vectors     FFT dimensions: (  60,  60,  60)

     Estimated max dynamical RAM per process >     145.29 MB

     Estimated total dynamical RAM >       5.68 GB
     Generating pointlists ...
     new r_m :   0.1789 (alat units)  1.8953 (a.u.) for type    1
     new r_m :   0.1789 (alat units)  1.8953 (a.u.) for type    2

     Check: negative/imaginary core charge=   -0.000006    0.000000

     Initial potential from superposition of free atoms

     starting charge  255.99300, renormalised to  256.00000
     Starting wfcs are  160 randomized atomic wfcs
     Checking if some PAW data can be deallocated... 

     total cpu time spent up to now is       15.1 secs

     Self-consistent Calculation

     iteration #  1     ecut=    71.00 Ry     beta= 0.10
     Davidson diagonalization with overlap
     ethr =  1.00E-02,  avg # of iterations =  3.3

     Threshold (ethr) on eigenvalues was too large:
     Diagonalizing with lowered threshold

     Davidson diagonalization with overlap
     ethr =  2.07E-04,  avg # of iterations =  3.6

     total cpu time spent up to now is      129.8 secs

     total energy              =   -5268.00761641 Ry
     Harris-Foulkes estimate   =   -5268.06824870 Ry
     estimated scf accuracy    <       0.61420076 Ry

     total magnetization       =    28.02 Bohr mag/cell
     absolute magnetization    =    28.13 Bohr mag/cell

     iteration #  2     ecut=    71.00 Ry     beta= 0.10
     Davidson diagonalization with overlap
     ethr =  2.40E-04,  avg # of iterations =  1.0

     total cpu time spent up to now is      163.4 secs

     total energy              =   -5267.97742945 Ry
     Harris-Foulkes estimate   =   -5268.01986757 Ry
     estimated scf accuracy    <       0.35983349 Ry

     total magnetization       =    28.68 Bohr mag/cell
     absolute magnetization    =    28.82 Bohr mag/cell

     iteration #  3     ecut=    71.00 Ry     beta= 0.10
     Davidson diagonalization with overlap
     ethr =  1.41E-04,  avg # of iterations =  3.0

     total cpu time spent up to now is      217.2 secs

     total energy              =   -5268.02732945 Ry
     Harris-Foulkes estimate   =   -5268.03164301 Ry
     estimated scf accuracy    <       0.41032923 Ry

     total magnetization       =    29.80 Bohr mag/cell
     absolute magnetization    =    30.11 Bohr mag/cell

     iteration #  4     ecut=    71.00 Ry     beta= 0.10
     Davidson diagonalization with overlap
     ethr =  1.41E-04,  avg # of iterations =  1.0

     total cpu time spent up to now is      252.9 secs

     total energy              =   -5268.04503655 Ry
     Harris-Foulkes estimate   =   -5268.04059082 Ry
     estimated scf accuracy    <       0.12263190 Ry

     total magnetization       =    30.22 Bohr mag/cell
     absolute magnetization    =    30.56 Bohr mag/cell

     iteration #  5     ecut=    71.00 Ry     beta= 0.10
     Davidson diagonalization with overlap
     ethr =  4.79E-05,  avg # of iterations =  1.0

     total cpu time spent up to now is      286.4 secs

     total energy              =   -5268.11475030 Ry
     Harris-Foulkes estimate   =   -5268.04676088 Ry
     estimated scf accuracy    <       0.10692824 Ry

     total magnetization       =    30.28 Bohr mag/cell
     absolute magnetization    =    30.65 Bohr mag/cell

     iteration #  6     ecut=    71.00 Ry     beta= 0.10
     Davidson diagonalization with overlap
     ethr =  4.18E-05,  avg # of iterations =  3.5

     negative rho (up, down):  0.000E+00 1.088E-03

     total cpu time spent up to now is      352.8 secs

     total energy              =   -5268.16345746 Ry
     Harris-Foulkes estimate   =   -5268.16313531 Ry
     estimated scf accuracy    <       0.20293953 Ry

     total magnetization       =    31.06 Bohr mag/cell
     absolute magnetization    =    31.83 Bohr mag/cell

     iteration #  7     ecut=    71.00 Ry     beta= 0.10
     Davidson diagonalization with overlap
     ethr =  4.18E-05,  avg # of iterations =  2.6

     negative rho (up, down):  0.000E+00 1.601E-03

     total cpu time spent up to now is      405.5 secs

     total energy              =   -5268.18265546 Ry
     Harris-Foulkes estimate   =   -5268.18474722 Ry
     estimated scf accuracy    <       0.05085957 Ry

     total magnetization       =    31.97 Bohr mag/cell
     absolute magnetization    =    33.20 Bohr mag/cell

     iteration #  8     ecut=    71.00 Ry     beta= 0.10
     Davidson diagonalization with overlap
     ethr =  1.99E-05,  avg # of iterations =  1.4

     negative rho (up, down):  0.000E+00 1.263E-03

     total cpu time spent up to now is      441.3 secs

     total energy              =   -5268.18088556 Ry
     Harris-Foulkes estimate   =   -5268.18490551 Ry
     estimated scf accuracy    <       0.02881184 Ry

     total magnetization       =    32.14 Bohr mag/cell
     absolute magnetization    =    33.42 Bohr mag/cell

     iteration #  9     ecut=    71.00 Ry     beta= 0.10
     Davidson diagonalization with overlap
     ethr =  1.13E-05,  avg # of iterations =  2.3

     negative rho (up, down):  0.000E+00 1.538E-03

     total cpu time spent up to now is      484.6 secs

     total energy              =   -5268.18462167 Ry
     Harris-Foulkes estimate   =   -5268.18218232 Ry
     estimated scf accuracy    <       0.01869209 Ry

     total magnetization       =    32.23 Bohr mag/cell
     absolute magnetization    =    33.54 Bohr mag/cell

     iteration # 10     ecut=    71.00 Ry     beta= 0.10
     Davidson diagonalization with overlap
     ethr =  7.30E-06,  avg # of iterations =  1.9

     negative rho (up, down):  0.000E+00 2.374E-03

     total cpu time spent up to now is      525.3 secs

     total energy              =   -5268.18873085 Ry
     Harris-Foulkes estimate   =   -5268.18570413 Ry
     estimated scf accuracy    <       0.00603184 Ry

     total magnetization       =    32.44 Bohr mag/cell
     absolute magnetization    =    33.85 Bohr mag/cell

     iteration # 11     ecut=    71.00 Ry     beta= 0.10
     Davidson diagonalization with overlap
     ethr =  2.36E-06,  avg # of iterations =  3.5

     negative rho (up, down):  0.000E+00 2.331E-03

     total cpu time spent up to now is      585.2 secs

     total energy              =   -5268.19015406 Ry
     Harris-Foulkes estimate   =   -5268.19009409 Ry
     estimated scf accuracy    <       0.00106438 Ry

     total magnetization       =    32.70 Bohr mag/cell
     absolute magnetization    =    34.34 Bohr mag/cell

     iteration # 12     ecut=    71.00 Ry     beta= 0.10
     Davidson diagonalization with overlap
     ethr =  4.16E-07,  avg # of iterations =  1.3

     negative rho (up, down):  0.000E+00 2.233E-03

     total cpu time spent up to now is      620.7 secs

     total energy              =   -5268.19046110 Ry
     Harris-Foulkes estimate   =   -5268.19017356 Ry
     estimated scf accuracy    <       0.00086671 Ry

     total magnetization       =    32.72 Bohr mag/cell
     absolute magnetization    =    34.36 Bohr mag/cell

     iteration # 13     ecut=    71.00 Ry     beta= 0.10
     Davidson diagonalization with overlap
     ethr =  3.39E-07,  avg # of iterations =  2.3

     negative rho (up, down):  0.000E+00 2.348E-03

     total cpu time spent up to now is      667.2 secs

     total energy              =   -5268.19077850 Ry
     Harris-Foulkes estimate   =   -5268.19058624 Ry
     estimated scf accuracy    <       0.00059844 Ry

     total magnetization       =    32.78 Bohr mag/cell
     absolute magnetization    =    34.46 Bohr mag/cell

     iteration # 14     ecut=    71.00 Ry     beta= 0.10
     Davidson diagonalization with overlap
     ethr =  2.34E-07,  avg # of iterations =  2.4

     negative rho (up, down):  0.000E+00 2.469E-03

     total cpu time spent up to now is      713.4 secs

     total energy              =   -5268.19086198 Ry
     Harris-Foulkes estimate   =   -5268.19084483 Ry
     estimated scf accuracy    <       0.00024770 Ry

     total magnetization       =    32.86 Bohr mag/cell
     absolute magnetization    =    34.58 Bohr mag/cell

     iteration # 15     ecut=    71.00 Ry     beta= 0.10
     Davidson diagonalization with overlap
     ethr =  9.68E-08,  avg # of iterations =  3.1

     negative rho (up, down):  0.000E+00 2.410E-03

     total cpu time spent up to now is      765.1 secs

     total energy              =   -5268.19093649 Ry
     Harris-Foulkes estimate   =   -5268.19089434 Ry
     estimated scf accuracy    <       0.00010405 Ry

     total magnetization       =    32.90 Bohr mag/cell
     absolute magnetization    =    34.66 Bohr mag/cell

     iteration # 16     ecut=    71.00 Ry     beta= 0.10
     Davidson diagonalization with overlap
     ethr =  4.06E-08,  avg # of iterations =  2.0

     negative rho (up, down):  0.000E+00 2.499E-03

     total cpu time spent up to now is      807.0 secs

     total energy              =   -5268.19093283 Ry
     Harris-Foulkes estimate   =   -5268.19094709 Ry
     estimated scf accuracy    <       0.00009797 Ry

     total magnetization       =    32.91 Bohr mag/cell
     absolute magnetization    =    34.67 Bohr mag/cell

     iteration # 17     ecut=    71.00 Ry     beta= 0.10
     Davidson diagonalization with overlap
     ethr =  3.83E-08,  avg # of iterations =  3.0

     negative rho (up, down):  0.000E+00 2.461E-03

     total cpu time spent up to now is      858.8 secs

     total energy              =   -5268.19097445 Ry
     Harris-Foulkes estimate   =   -5268.19094927 Ry
     estimated scf accuracy    <       0.00007490 Ry

     total magnetization       =    32.94 Bohr mag/cell
     absolute magnetization    =    34.72 Bohr mag/cell

     iteration # 18     ecut=    71.00 Ry     beta= 0.10
     Davidson diagonalization with overlap
     ethr =  2.93E-08,  avg # of iterations =  2.4

     negative rho (up, down):  0.000E+00 2.460E-03

     total cpu time spent up to now is      904.5 secs

     total energy              =   -5268.19098984 Ry
     Harris-Foulkes estimate   =   -5268.19098588 Ry
     estimated scf accuracy    <       0.00001843 Ry

     total magnetization       =    32.96 Bohr mag/cell
     absolute magnetization    =    34.75 Bohr mag/cell

     iteration # 19     ecut=    71.00 Ry     beta= 0.10
     Davidson diagonalization with overlap
     ethr =  7.20E-09,  avg # of iterations =  2.0

     negative rho (up, down):  0.000E+00 2.479E-03

     total cpu time spent up to now is      945.2 secs

     total energy              =   -5268.19099147 Ry
     Harris-Foulkes estimate   =   -5268.19099080 Ry
     estimated scf accuracy    <       0.00001237 Ry

     total magnetization       =    32.97 Bohr mag/cell
     absolute magnetization    =    34.75 Bohr mag/cell

     iteration # 20     ecut=    71.00 Ry     beta= 0.10
     Davidson diagonalization with overlap
     ethr =  4.83E-09,  avg # of iterations =  2.8

     negative rho (up, down):  0.000E+00 2.477E-03

     total cpu time spent up to now is      993.9 secs

     total energy              =   -5268.19099495 Ry
     Harris-Foulkes estimate   =   -5268.19099383 Ry
     estimated scf accuracy    <       0.00000542 Ry

     total magnetization       =    32.98 Bohr mag/cell
     absolute magnetization    =    34.77 Bohr mag/cell

     iteration # 21     ecut=    71.00 Ry     beta= 0.10
     Davidson diagonalization with overlap
     ethr =  2.12E-09,  avg # of iterations =  1.8

     negative rho (up, down):  0.000E+00 2.478E-03

     total cpu time spent up to now is     1032.6 secs

     total energy              =   -5268.19099598 Ry
     Harris-Foulkes estimate   =   -5268.19099544 Ry
     estimated scf accuracy    <       0.00000277 Ry

     total magnetization       =    32.98 Bohr mag/cell
     absolute magnetization    =    34.77 Bohr mag/cell

     iteration # 22     ecut=    71.00 Ry     beta= 0.10
     Davidson diagonalization with overlap
     ethr =  1.08E-09,  avg # of iterations =  2.1

     negative rho (up, down):  0.000E+00 2.491E-03
 
     Magnetic moment per site:
     atom:    1    charge:   14.3704    magn:    2.1057    constr:    0.0000
     atom:    2    charge:   14.3704    magn:    2.1076    constr:    0.0000
     atom:    3    charge:   14.3703    magn:    2.1069    constr:    0.0000
     atom:    4    charge:   14.3704    magn:    2.1076    constr:    0.0000
     atom:    5    charge:   14.3706    magn:    2.1059    constr:    0.0000
     atom:    6    charge:   14.3704    magn:    2.1076    constr:    0.0000
     atom:    7    charge:   14.3706    magn:    2.1068    constr:    0.0000
     atom:    8    charge:   14.3704    magn:    2.1076    constr:    0.0000
     atom:    9    charge:   14.3706    magn:    2.1059    constr:    0.0000
     atom:   10    charge:   14.3704    magn:    2.1076    constr:    0.0000
     atom:   11    charge:   14.3706    magn:    2.1068    constr:    0.0000
     atom:   12    charge:   14.3704    magn:    2.1076    constr:    0.0000
     atom:   13    charge:   14.3705    magn:    2.1062    constr:    0.0000
     atom:   14    charge:   14.3704    magn:    2.1076    constr:    0.0000
     atom:   15    charge:   14.3705    magn:    2.1072    constr:    0.0000
     atom:   16    charge:   14.3704    magn:    2.1076    constr:    0.0000

     total cpu time spent up to now is     1073.9 secs

     End of self-consistent calculation

     Number of k-points >= 100: set verbosity='high' to print the bands.

     the Fermi energy is    18.8551 ev

!    total energy              =   -5268.19099745 Ry
     Harris-Foulkes estimate   =   -5268.19099616 Ry
     estimated scf accuracy    <       0.00000092 Ry

     total all-electron energy =    -40728.935526 Ry

     The total energy is the sum of the following terms:

     one-electron contribution =   -1714.82489546 Ry
     hartree contribution      =    1024.93714061 Ry
     xc contribution           =    -444.20561845 Ry
     ewald contribution        =   -2809.55393331 Ry
     one-center paw contrib.   =   -1324.67004296 Ry
     smearing contrib. (-TS)   =       0.12635212 Ry

     total magnetization       =    32.99 Bohr mag/cell
     absolute magnetization    =    34.78 Bohr mag/cell

     convergence has been achieved in  22 iterations

     negative rho (up, down):  0.000E+00 2.491E-03

     Forces acting on atoms (cartesian axes, Ry/au):

     atom    1 type  1   force =     0.00000000    0.00000000    0.00000000
     atom    2 type  2   force =     0.00000874    0.00000874    0.00013666
     atom    3 type  1   force =     0.00000000    0.00000000    0.00000000
     atom    4 type  2   force =     0.00000874    0.00000874   -0.00013666
     atom    5 type  1   force =     0.00000000    0.00000000    0.00000000
     atom    6 type  2   force =     0.00000874   -0.00000874    0.00013666
     atom    7 type  1   force =     0.00000000    0.00000000    0.00000000
     atom    8 type  2   force =     0.00000874   -0.00000874   -0.00013666
     atom    9 type  1   force =     0.00000000    0.00000000    0.00000000
     atom   10 type  2   force =    -0.00000874    0.00000874    0.00013666
     atom   11 type  1   force =     0.00000000    0.00000000    0.00000000
     atom   12 type  2   force =    -0.00000874    0.00000874   -0.00013666
     atom   13 type  1   force =     0.00000000    0.00000000    0.00000000
     atom   14 type  2   force =    -0.00000874   -0.00000874    0.00013666
     atom   15 type  1   force =     0.00000000    0.00000000    0.00000000
     atom   16 type  2   force =    -0.00000874   -0.00000874   -0.00013666

     Total force =     0.000388     Total SCF correction =     0.004909
     SCF correction compared to forces is large: reduce conv_thr to get better values


     Computing stress (Cartesian axis) and pressure


     negative rho (up, down):  0.000E+00 2.491E-03
          total   stress  (Ry/bohr**3)                   (kbar)     P=  -14.65
  -0.00008531   0.00000000   0.00000000        -12.55      0.00      0.00
   0.00000000  -0.00008531   0.00000000          0.00    -12.55      0.00
   0.00000000   0.00000000  -0.00012812          0.00      0.00    -18.85


     Writing output data file xmfyMcLIVOmgHzTl.save/
 
     init_run     :     13.12s CPU     13.66s WALL (       1 calls)
     electrons    :   1026.77s CPU   1058.89s WALL (       1 calls)
     forces       :      4.86s CPU      5.28s WALL (       1 calls)
     stress       :     13.00s CPU     13.12s WALL (       1 calls)

     Called by init_run:
     wfcinit      :     12.62s CPU     13.10s WALL (       1 calls)
     potinit      :      0.20s CPU      0.22s WALL (       1 calls)
     hinit0       :      0.18s CPU      0.19s WALL (       1 calls)

     Called by electrons:
     c_bands      :    924.59s CPU    950.89s WALL (      23 calls)
     sum_band     :     97.52s CPU    102.78s WALL (      23 calls)
     v_of_rho     :      0.36s CPU      0.37s WALL (      23 calls)
     newd         :      0.75s CPU      0.95s WALL (      23 calls)
     PAW_pot      :      3.50s CPU      3.77s WALL (      23 calls)
     mix_rho      :      0.13s CPU      0.14s WALL (      23 calls)

     Called by c_bands:
     init_us_2    :      5.32s CPU      5.42s WALL (    7350 calls)
     cegterg      :    899.20s CPU    925.18s WALL (    3450 calls)

     Called by sum_band:
     sum_band:bec :      1.44s CPU      1.46s WALL (    3450 calls)
     addusdens    :      1.23s CPU      1.41s WALL (      23 calls)

     Called by *egterg:
     h_psi        :    379.84s CPU    395.84s WALL (   11574 calls)
     s_psi        :     21.38s CPU     21.51s WALL (   11574 calls)
     g_psi        :      0.88s CPU      0.90s WALL (    7974 calls)
     cdiaghg      :    409.01s CPU    410.39s WALL (   11274 calls)

     Called by h_psi:
     h_psi:pot    :    377.74s CPU    393.71s WALL (   11574 calls)
     h_psi:calbec :     31.46s CPU     36.46s WALL (   11574 calls)
     vloc_psi     :    324.22s CPU    335.05s WALL (   11574 calls)
     add_vuspsi   :     21.96s CPU     22.12s WALL (   11574 calls)

     General routines
     calbec       :     48.39s CPU     56.21s WALL (   15774 calls)
     fft          :      0.41s CPU      0.43s WALL (     617 calls)
     ffts         :      0.04s CPU      0.22s WALL (      92 calls)
     fftw         :    378.21s CPU    390.84s WALL ( 2875176 calls)
     interpolate  :      0.06s CPU      0.14s WALL (      46 calls)
 
     Parallel routines
     fft_scatt_xy :     25.23s CPU     26.05s WALL ( 2875885 calls)
     fft_scatt_yz :    252.01s CPU    260.65s WALL ( 2875885 calls)
 
     PWSCF        : 17m47.27s CPU    18m47.36s WALL

 
   This run was terminated on:  16:31:42   9Sep2020            

=------------------------------------------------------------------------------=
   JOB DONE.
=------------------------------------------------------------------------------=
