--------------------------------------------------------------------------
WARNING: No preset parameters were found for the device that Open MPI
detected:

  Local host:            bear-pg0206u39a
  Device name:           mlx5_0
  Device vendor ID:      0x02c9
  Device vendor part ID: 4123

Default device parameters will be used, which may result in lower
performance.  You can edit any of the files specified by the
btl_openib_device_param_files MCA parameter to set values for your
device.

NOTE: You can turn off this warning by setting the MCA parameter
      btl_openib_warn_no_device_params_found to 0.
--------------------------------------------------------------------------
--------------------------------------------------------------------------
WARNING: There was an error initializing an OpenFabrics device.

  Local host:   bear-pg0206u39a
  Local device: mlx5_0
--------------------------------------------------------------------------

     Program PWSCF v.6.3 starts on  9Sep2020 at 18:39:20 

     This program is part of the open-source Quantum ESPRESSO suite
     for quantum simulation of materials; please cite
         "P. Giannozzi et al., J. Phys.:Condens. Matter 21 395502 (2009);
         "P. Giannozzi et al., J. Phys.:Condens. Matter 29 465901 (2017);
          URL http://www.quantum-espresso.org", 
     in publications or presentations arising from this work. More details at
     http://www.quantum-espresso.org/quote

     Parallel version (MPI & OpenMP), running on      40 processor cores
     Number of MPI processes:                40
     Threads/MPI process:                     1

     MPI processes distributed on     1 nodes
     R & G space division:  proc/nbgrp/npool/nimage =      40
     Reading input from wd/ec/ec_4_006.in
Warning: card &IONS ignored
Warning: card ION_DYNAMICS = 'BFGS', ignored
Warning: card / ignored
Warning: card &CELL ignored
Warning: card CELL_DYNAMICS = 'BFGS', ignored
Warning: card CELL_FACTOR = 2.0, ignored
Warning: card PRESS = 0.0, ignored
Warning: card / ignored

     Current dimensions of program PWSCF are:
     Max number of different atomic species (ntypx) = 10
     Max number of k-points (npk) =  40000
     Max angular momentum in pseudopotentials (lmaxx) =  3
               file Fe.pbe-spn-kjpaw_psl.1.0.0.UPF: wavefunction(s)  3P 3D renormalized
               file Fe.pbe-spn-kjpaw_psl.1.0.0.UPF: wavefunction(s)  3P 3D renormalized

     Subspace diagonalization in iterative solution of the eigenvalue problem:
     a serial algorithm will be used

     Found symmetry operation: I + (  0.0000  0.0000 -0.5000)
     This is a supercell, fractional translations are disabled
 
     Parallelization info
     --------------------
     sticks:   dense  smooth     PW     G-vecs:    dense   smooth      PW
     Min          95      63     17                 4472     2401     355
     Max          96      64     18                 4478     2406     359
     Sum        3833    2537    717               179017    96129   14307
 


     bravais-lattice index     =            0
     lattice parameter (alat)  =      10.5935  a.u.
     unit-cell volume          =    1188.8329 (a.u.)^3
     number of atoms/cell      =           16
     number of atomic types    =            2
     number of electrons       =       256.00
     number of Kohn-Sham states=          154
     kinetic-energy cutoff     =      71.0000  Ry
     charge density cutoff     =     430.0000  Ry
     convergence threshold     =      1.0E-06
     mixing beta               =       0.1000
     number of iterations used =           10  plain     mixing
     Exchange-correlation      = SLA PW PBX PBC ( 1  4  3  4 0 0)

     celldm(1)=  10.593520  celldm(2)=   0.000000  celldm(3)=   0.000000
     celldm(4)=   0.000000  celldm(5)=   0.000000  celldm(6)=   0.000000

     crystal axes: (cart. coord. in units of alat)
               a(1) = (   1.000006   0.000000   0.000000 )  
               a(2) = (   0.000000   1.000006   0.004167 )  
               a(3) = (   0.000000   0.004167   1.000006 )  

     reciprocal axes: (cart. coord. in units 2 pi/alat)
               b(1) = (  0.999994  0.000000  0.000000 )  
               b(2) = (  0.000000  1.000012 -0.004167 )  
               b(3) = (  0.000000 -0.004167  1.000012 )  


     PseudoPot. # 1 for Fe read from file:
     /rds/homes/b/bxp912/pp/Fe.pbe-spn-kjpaw_psl.1.0.0.UPF
     MD5 check sum: 42f43b795421b414b0dc916aa790dbcb
     Pseudo is Projector augmented-wave + core cor, Zval = 16.0
     Generated using "atomic" code by A. Dal Corso v.6.3
     Shape of augmentation charge: PSQ
     Using radial grid of 1191 points,  6 beta functions with: 
                l(1) =   0
                l(2) =   0
                l(3) =   1
                l(4) =   1
                l(5) =   2
                l(6) =   2
     Q(r) pseudized with 0 coefficients 


     PseudoPot. # 2 for Fe read from file:
     /rds/homes/b/bxp912/pp/Fe.pbe-spn-kjpaw_psl.1.0.0.UPF
     MD5 check sum: 42f43b795421b414b0dc916aa790dbcb
     Pseudo is Projector augmented-wave + core cor, Zval = 16.0
     Generated using "atomic" code by A. Dal Corso v.6.3
     Shape of augmentation charge: PSQ
     Using radial grid of 1191 points,  6 beta functions with: 
                l(1) =   0
                l(2) =   0
                l(3) =   1
                l(4) =   1
                l(5) =   2
                l(6) =   2
     Q(r) pseudized with 0 coefficients 


     atomic species   valence    mass     pseudopotential
        Fe1           16.00    55.84500     Fe( 1.00)
        Fe2           16.00    55.84500     Fe( 1.00)

     Starting magnetic structure 
     atomic species   magnetization
        Fe1          0.100
        Fe2          0.100

      8 Sym. Ops., with inversion, found



   Cartesian axes

     site n.     atom                  positions (alat units)
         1           Fe1 tau(   1) = (   0.0000000   0.0000000   0.0000000  )
         2           Fe2 tau(   2) = (   0.2500019   0.2510436   0.2510436  )
         3           Fe1 tau(   3) = (   0.0000000   0.0020833   0.5000029  )
         4           Fe2 tau(   4) = (   0.2500019   0.2531269   0.7510456  )
         5           Fe1 tau(   5) = (   0.0000000   0.5000029   0.0020833  )
         6           Fe2 tau(   6) = (   0.2500019   0.7510456   0.2531269  )
         7           Fe1 tau(   7) = (   0.0000000   0.5020862   0.5020862  )
         8           Fe2 tau(   8) = (   0.2500019   0.7531289   0.7531289  )
         9           Fe1 tau(   9) = (   0.5000029   0.0000000   0.0000000  )
        10           Fe2 tau(  10) = (   0.7500039   0.2510436   0.2510436  )
        11           Fe1 tau(  11) = (   0.5000029   0.0020833   0.5000029  )
        12           Fe2 tau(  12) = (   0.7500039   0.2531269   0.7510456  )
        13           Fe1 tau(  13) = (   0.5000029   0.5000029   0.0020833  )
        14           Fe2 tau(  14) = (   0.7500039   0.7510456   0.2531269  )
        15           Fe1 tau(  15) = (   0.5000029   0.5020862   0.5020862  )
        16           Fe2 tau(  16) = (   0.7500039   0.7531289   0.7531289  )

     number of k points=   125  Marzari-Vanderbilt smearing, width (Ry)=  0.0400

     Number of k-points >= 100: set verbosity='high' to print them.

     Dense  grid:   179017 G-vectors     FFT dimensions: (  72,  72,  72)

     Smooth grid:    96129 G-vectors     FFT dimensions: (  60,  60,  60)

     Estimated max dynamical RAM per process >     215.38 MB

     Estimated total dynamical RAM >       8.41 GB
     Generating pointlists ...
     new r_m :   0.1781 (alat units)  1.8869 (a.u.) for type    1
     new r_m :   0.1781 (alat units)  1.8869 (a.u.) for type    2

     Check: negative/imaginary core charge=   -0.000006    0.000000

     Initial potential from superposition of free atoms

     starting charge  255.99300, renormalised to  256.00000
     Starting wfcs are  160 randomized atomic wfcs
     Checking if some PAW data can be deallocated... 

     total cpu time spent up to now is       23.3 secs

     Self-consistent Calculation

     iteration #  1     ecut=    71.00 Ry     beta= 0.10
     Davidson diagonalization with overlap
     ethr =  1.00E-02,  avg # of iterations =  3.4

     Threshold (ethr) on eigenvalues was too large:
     Diagonalizing with lowered threshold

     Davidson diagonalization with overlap
     ethr =  2.83E-04,  avg # of iterations =  3.3

     total cpu time spent up to now is      209.3 secs

     total energy              =   -5268.17164611 Ry
     Harris-Foulkes estimate   =   -5268.32046005 Ry
     estimated scf accuracy    <       0.81955553 Ry

     total magnetization       =    28.03 Bohr mag/cell
     absolute magnetization    =    28.39 Bohr mag/cell

     iteration #  2     ecut=    71.00 Ry     beta= 0.10
     Davidson diagonalization with overlap
     ethr =  3.20E-04,  avg # of iterations =  1.0

     total cpu time spent up to now is      264.5 secs

     total energy              =   -5268.05661809 Ry
     Harris-Foulkes estimate   =   -5268.18968653 Ry
     estimated scf accuracy    <       0.48891256 Ry

     total magnetization       =    28.66 Bohr mag/cell
     absolute magnetization    =    28.95 Bohr mag/cell

     iteration #  3     ecut=    71.00 Ry     beta= 0.10
     Davidson diagonalization with overlap
     ethr =  1.91E-04,  avg # of iterations =  2.6

     total cpu time spent up to now is      343.8 secs

     total energy              =   -5268.04103538 Ry
     Harris-Foulkes estimate   =   -5268.10785153 Ry
     estimated scf accuracy    <       0.55229784 Ry

     total magnetization       =    29.46 Bohr mag/cell
     absolute magnetization    =    29.80 Bohr mag/cell

     iteration #  4     ecut=    71.00 Ry     beta= 0.10
     Davidson diagonalization with overlap
     ethr =  1.91E-04,  avg # of iterations =  1.5

     total cpu time spent up to now is      405.3 secs

     total energy              =   -5268.06895067 Ry
     Harris-Foulkes estimate   =   -5268.07155113 Ry
     estimated scf accuracy    <       0.16088481 Ry

     total magnetization       =    30.22 Bohr mag/cell
     absolute magnetization    =    30.58 Bohr mag/cell

     iteration #  5     ecut=    71.00 Ry     beta= 0.10
     Davidson diagonalization with overlap
     ethr =  6.28E-05,  avg # of iterations =  1.5

     total cpu time spent up to now is      468.9 secs

     total energy              =   -5268.08781979 Ry
     Harris-Foulkes estimate   =   -5268.07272753 Ry
     estimated scf accuracy    <       0.11159021 Ry

     total magnetization       =    30.30 Bohr mag/cell
     absolute magnetization    =    30.70 Bohr mag/cell

     iteration #  6     ecut=    71.00 Ry     beta= 0.10
     Davidson diagonalization with overlap
     ethr =  4.36E-05,  avg # of iterations =  3.3

     total cpu time spent up to now is      573.2 secs

     total energy              =   -5268.14577613 Ry
     Harris-Foulkes estimate   =   -5268.12667058 Ry
     estimated scf accuracy    <       0.13917597 Ry

     total magnetization       =    30.92 Bohr mag/cell
     absolute magnetization    =    31.62 Bohr mag/cell

     iteration #  7     ecut=    71.00 Ry     beta= 0.10
     Davidson diagonalization with overlap
     ethr =  4.36E-05,  avg # of iterations =  2.0

     total cpu time spent up to now is      643.9 secs

     total energy              =   -5268.15129877 Ry
     Harris-Foulkes estimate   =   -5268.15346153 Ry
     estimated scf accuracy    <       0.10642636 Ry

     total magnetization       =    31.43 Bohr mag/cell
     absolute magnetization    =    32.33 Bohr mag/cell

     iteration #  8     ecut=    71.00 Ry     beta= 0.10
     Davidson diagonalization with overlap
     ethr =  4.16E-05,  avg # of iterations =  1.0

     negative rho (up, down):  0.000E+00 2.240E-03

     total cpu time spent up to now is      699.1 secs

     total energy              =   -5268.16693749 Ry
     Harris-Foulkes estimate   =   -5268.15233318 Ry
     estimated scf accuracy    <       0.08266221 Ry

     total magnetization       =    31.55 Bohr mag/cell
     absolute magnetization    =    32.50 Bohr mag/cell

     iteration #  9     ecut=    71.00 Ry     beta= 0.10
     Davidson diagonalization with overlap
     ethr =  3.23E-05,  avg # of iterations =  2.8

     negative rho (up, down):  0.000E+00 2.359E-03

     total cpu time spent up to now is      795.7 secs

     total energy              =   -5268.18944576 Ry
     Harris-Foulkes estimate   =   -5268.19250723 Ry
     estimated scf accuracy    <       0.02618600 Ry

     total magnetization       =    32.47 Bohr mag/cell
     absolute magnetization    =    33.95 Bohr mag/cell

     iteration # 10     ecut=    71.00 Ry     beta= 0.10
     Davidson diagonalization with overlap
     ethr =  1.02E-05,  avg # of iterations =  1.3

     negative rho (up, down):  0.000E+00 2.464E-03

     total cpu time spent up to now is      854.8 secs

     total energy              =   -5268.18800476 Ry
     Harris-Foulkes estimate   =   -5268.18999308 Ry
     estimated scf accuracy    <       0.00870898 Ry

     total magnetization       =    32.57 Bohr mag/cell
     absolute magnetization    =    34.10 Bohr mag/cell

     iteration # 11     ecut=    71.00 Ry     beta= 0.10
     Davidson diagonalization with overlap
     ethr =  3.40E-06,  avg # of iterations =  2.5

     negative rho (up, down):  0.000E+00 2.558E-03

     total cpu time spent up to now is      933.4 secs

     total energy              =   -5268.18827115 Ry
     Harris-Foulkes estimate   =   -5268.18847828 Ry
     estimated scf accuracy    <       0.00130039 Ry

     total magnetization       =    32.66 Bohr mag/cell
     absolute magnetization    =    34.29 Bohr mag/cell

     iteration # 12     ecut=    71.00 Ry     beta= 0.10
     Davidson diagonalization with overlap
     ethr =  5.08E-07,  avg # of iterations =  1.9

     negative rho (up, down):  0.000E+00 2.648E-03

     total cpu time spent up to now is     1000.3 secs

     total energy              =   -5268.18829806 Ry
     Harris-Foulkes estimate   =   -5268.18833053 Ry
     estimated scf accuracy    <       0.00063917 Ry

     total magnetization       =    32.71 Bohr mag/cell
     absolute magnetization    =    34.36 Bohr mag/cell

     iteration # 13     ecut=    71.00 Ry     beta= 0.10
     Davidson diagonalization with overlap
     ethr =  2.50E-07,  avg # of iterations =  2.9

     negative rho (up, down):  0.000E+00 2.433E-03

     total cpu time spent up to now is     1086.5 secs

     total energy              =   -5268.18872979 Ry
     Harris-Foulkes estimate   =   -5268.18840189 Ry
     estimated scf accuracy    <       0.00087812 Ry

     total magnetization       =    32.77 Bohr mag/cell
     absolute magnetization    =    34.47 Bohr mag/cell

     iteration # 14     ecut=    71.00 Ry     beta= 0.10
     Davidson diagonalization with overlap
     ethr =  2.50E-07,  avg # of iterations =  3.3

     negative rho (up, down):  0.000E+00 2.462E-03

     total cpu time spent up to now is     1188.4 secs

     total energy              =   -5268.18897914 Ry
     Harris-Foulkes estimate   =   -5268.18897407 Ry
     estimated scf accuracy    <       0.00046587 Ry

     total magnetization       =    32.78 Bohr mag/cell
     absolute magnetization    =    34.49 Bohr mag/cell

     iteration # 15     ecut=    71.00 Ry     beta= 0.10
     Davidson diagonalization with overlap
     ethr =  1.82E-07,  avg # of iterations =  1.8

     negative rho (up, down):  0.000E+00 2.440E-03

     total cpu time spent up to now is     1254.9 secs

     total energy              =   -5268.18905178 Ry
     Harris-Foulkes estimate   =   -5268.18901144 Ry
     estimated scf accuracy    <       0.00010674 Ry

     total magnetization       =    32.82 Bohr mag/cell
     absolute magnetization    =    34.55 Bohr mag/cell

     iteration # 16     ecut=    71.00 Ry     beta= 0.10
     Davidson diagonalization with overlap
     ethr =  4.17E-08,  avg # of iterations =  2.5

     negative rho (up, down):  0.000E+00 2.399E-03

     total cpu time spent up to now is     1336.9 secs

     total energy              =   -5268.18907706 Ry
     Harris-Foulkes estimate   =   -5268.18906658 Ry
     estimated scf accuracy    <       0.00006554 Ry

     total magnetization       =    32.84 Bohr mag/cell
     absolute magnetization    =    34.58 Bohr mag/cell

     iteration # 17     ecut=    71.00 Ry     beta= 0.10
     Davidson diagonalization with overlap
     ethr =  2.56E-08,  avg # of iterations =  2.1

     negative rho (up, down):  0.000E+00 2.412E-03

     total cpu time spent up to now is     1412.8 secs

     total energy              =   -5268.18909743 Ry
     Harris-Foulkes estimate   =   -5268.18908566 Ry
     estimated scf accuracy    <       0.00004719 Ry

     total magnetization       =    32.85 Bohr mag/cell
     absolute magnetization    =    34.59 Bohr mag/cell

     iteration # 18     ecut=    71.00 Ry     beta= 0.10
     Davidson diagonalization with overlap
     ethr =  1.84E-08,  avg # of iterations =  3.0

     negative rho (up, down):  0.000E+00 2.460E-03

     total cpu time spent up to now is     1499.8 secs

     total energy              =   -5268.18910052 Ry
     Harris-Foulkes estimate   =   -5268.18910542 Ry
     estimated scf accuracy    <       0.00002187 Ry

     total magnetization       =    32.87 Bohr mag/cell
     absolute magnetization    =    34.63 Bohr mag/cell

     iteration # 19     ecut=    71.00 Ry     beta= 0.10
     Davidson diagonalization with overlap
     ethr =  8.54E-09,  avg # of iterations =  3.1

     negative rho (up, down):  0.000E+00 2.460E-03

     total cpu time spent up to now is     1592.0 secs

     total energy              =   -5268.18910820 Ry
     Harris-Foulkes estimate   =   -5268.18910494 Ry
     estimated scf accuracy    <       0.00001051 Ry

     total magnetization       =    32.89 Bohr mag/cell
     absolute magnetization    =    34.66 Bohr mag/cell

     iteration # 20     ecut=    71.00 Ry     beta= 0.10
     Davidson diagonalization with overlap
     ethr =  4.10E-09,  avg # of iterations =  1.0

     negative rho (up, down):  0.000E+00 2.462E-03

     total cpu time spent up to now is     1647.9 secs

     total energy              =   -5268.18911205 Ry
     Harris-Foulkes estimate   =   -5268.18910848 Ry
     estimated scf accuracy    <       0.00000729 Ry

     total magnetization       =    32.89 Bohr mag/cell
     absolute magnetization    =    34.66 Bohr mag/cell

     iteration # 21     ecut=    71.00 Ry     beta= 0.10
     Davidson diagonalization with overlap
     ethr =  2.85E-09,  avg # of iterations =  1.9

     negative rho (up, down):  0.000E+00 2.461E-03

     total cpu time spent up to now is     1713.9 secs

     total energy              =   -5268.18911382 Ry
     Harris-Foulkes estimate   =   -5268.18911275 Ry
     estimated scf accuracy    <       0.00000375 Ry

     total magnetization       =    32.90 Bohr mag/cell
     absolute magnetization    =    34.67 Bohr mag/cell

     iteration # 22     ecut=    71.00 Ry     beta= 0.10
     Davidson diagonalization with overlap
     ethr =  1.47E-09,  avg # of iterations =  1.8

     negative rho (up, down):  0.000E+00 2.454E-03

     total cpu time spent up to now is     1778.0 secs

     total energy              =   -5268.18911531 Ry
     Harris-Foulkes estimate   =   -5268.18911413 Ry
     estimated scf accuracy    <       0.00000381 Ry

     total magnetization       =    32.90 Bohr mag/cell
     absolute magnetization    =    34.67 Bohr mag/cell

     iteration # 23     ecut=    71.00 Ry     beta= 0.10
     Davidson diagonalization with overlap
     ethr =  1.47E-09,  avg # of iterations =  2.5

     negative rho (up, down):  0.000E+00 2.453E-03

     total cpu time spent up to now is     1858.1 secs

     total energy              =   -5268.18911647 Ry
     Harris-Foulkes estimate   =   -5268.18911586 Ry
     estimated scf accuracy    <       0.00000102 Ry

     total magnetization       =    32.90 Bohr mag/cell
     absolute magnetization    =    34.67 Bohr mag/cell

     iteration # 24     ecut=    71.00 Ry     beta= 0.10
     Davidson diagonalization with overlap
     ethr =  3.99E-10,  avg # of iterations =  2.1

     negative rho (up, down):  0.000E+00 2.465E-03
 
     Magnetic moment per site:
     atom:    1    charge:   14.3496    magn:    2.0991    constr:    0.0000
     atom:    2    charge:   14.3495    magn:    2.1015    constr:    0.0000
     atom:    3    charge:   14.3496    magn:    2.0999    constr:    0.0000
     atom:    4    charge:   14.3495    magn:    2.1015    constr:    0.0000
     atom:    5    charge:   14.3496    magn:    2.0999    constr:    0.0000
     atom:    6    charge:   14.3495    magn:    2.1015    constr:    0.0000
     atom:    7    charge:   14.3495    magn:    2.1004    constr:    0.0000
     atom:    8    charge:   14.3495    magn:    2.1015    constr:    0.0000
     atom:    9    charge:   14.3495    magn:    2.0982    constr:    0.0000
     atom:   10    charge:   14.3495    magn:    2.1015    constr:    0.0000
     atom:   11    charge:   14.3497    magn:    2.0988    constr:    0.0000
     atom:   12    charge:   14.3495    magn:    2.1015    constr:    0.0000
     atom:   13    charge:   14.3497    magn:    2.0988    constr:    0.0000
     atom:   14    charge:   14.3495    magn:    2.1015    constr:    0.0000
     atom:   15    charge:   14.3496    magn:    2.0995    constr:    0.0000
     atom:   16    charge:   14.3495    magn:    2.1015    constr:    0.0000

     total cpu time spent up to now is     1927.4 secs

     End of self-consistent calculation

     Number of k-points >= 100: set verbosity='high' to print the bands.

     the Fermi energy is    18.9744 ev

!    total energy              =   -5268.18911833 Ry
     Harris-Foulkes estimate   =   -5268.18911654 Ry
     estimated scf accuracy    <       0.00000051 Ry

     total all-electron energy =    -40728.933647 Ry

     The total energy is the sum of the following terms:

     one-electron contribution =   -1707.47323907 Ry
     hartree contribution      =    1022.30284665 Ry
     xc contribution           =    -444.26184862 Ry
     ewald contribution        =   -2814.21004819 Ry
     one-center paw contrib.   =   -1324.67095713 Ry
     smearing contrib. (-TS)   =       0.12412803 Ry

     total magnetization       =    32.91 Bohr mag/cell
     absolute magnetization    =    34.67 Bohr mag/cell

     convergence has been achieved in  24 iterations

     negative rho (up, down):  0.000E+00 2.465E-03

     Forces acting on atoms (cartesian axes, Ry/au):

     atom    1 type  1   force =     0.00000000    0.00000000    0.00000000
     atom    2 type  2   force =    -0.00015473    0.00009894    0.00009894
     atom    3 type  1   force =     0.00000000    0.00000000    0.00000000
     atom    4 type  2   force =     0.00003224    0.00011666   -0.00011666
     atom    5 type  1   force =     0.00000000    0.00000000    0.00000000
     atom    6 type  2   force =     0.00003224   -0.00011666    0.00011666
     atom    7 type  1   force =     0.00000000    0.00000000    0.00000000
     atom    8 type  2   force =    -0.00015473   -0.00009894   -0.00009894
     atom    9 type  1   force =     0.00000000    0.00000000    0.00000000
     atom   10 type  2   force =     0.00015473    0.00009894    0.00009894
     atom   11 type  1   force =     0.00000000    0.00000000    0.00000000
     atom   12 type  2   force =    -0.00003224    0.00011666   -0.00011666
     atom   13 type  1   force =     0.00000000    0.00000000    0.00000000
     atom   14 type  2   force =    -0.00003224   -0.00011666    0.00011666
     atom   15 type  1   force =     0.00000000    0.00000000    0.00000000
     atom   16 type  2   force =     0.00015473   -0.00009894   -0.00009894

     Total force =     0.000536     Total SCF correction =     0.005383
     SCF correction compared to forces is large: reduce conv_thr to get better values


     Computing stress (Cartesian axis) and pressure


     negative rho (up, down):  0.000E+00 2.465E-03
          total   stress  (Ry/bohr**3)                   (kbar)     P=   -2.04
  -0.00001370   0.00000000   0.00000000         -2.01      0.00      0.00
   0.00000000  -0.00001394  -0.00007733          0.00     -2.05    -11.38
   0.00000000  -0.00007733  -0.00001394          0.00    -11.38     -2.05


     Writing output data file WnxAdvpbdFjKahke.save/
 
     init_run     :     21.11s CPU     21.99s WALL (       1 calls)
     electrons    :   1846.75s CPU   1904.12s WALL (       1 calls)
     forces       :      7.71s CPU      8.37s WALL (       1 calls)
     stress       :     21.51s CPU     21.75s WALL (       1 calls)

     Called by init_run:
     wfcinit      :     20.58s CPU     21.40s WALL (       1 calls)
     potinit      :      0.23s CPU      0.25s WALL (       1 calls)
     hinit0       :      0.20s CPU      0.21s WALL (       1 calls)

     Called by electrons:
     c_bands      :   1664.92s CPU   1712.62s WALL (      25 calls)
     sum_band     :    176.94s CPU    185.88s WALL (      25 calls)
     v_of_rho     :      0.37s CPU      0.39s WALL (      25 calls)
     newd         :      0.78s CPU      1.03s WALL (      25 calls)
     PAW_pot      :      3.68s CPU      4.04s WALL (      25 calls)
     mix_rho      :      0.14s CPU      0.16s WALL (      25 calls)

     Called by c_bands:
     init_us_2    :      8.97s CPU      9.11s WALL (   13250 calls)
     cegterg      :   1619.30s CPU   1666.43s WALL (    6250 calls)

     Called by sum_band:
     sum_band:bec :      2.61s CPU      2.65s WALL (    6250 calls)
     addusdens    :      1.28s CPU      1.47s WALL (      25 calls)

     Called by *egterg:
     h_psi        :    682.83s CPU    711.75s WALL (   20565 calls)
     s_psi        :     37.70s CPU     37.94s WALL (   20565 calls)
     g_psi        :      1.55s CPU      1.57s WALL (   14065 calls)
     cdiaghg      :    735.05s CPU    737.55s WALL (   20065 calls)

     Called by h_psi:
     h_psi:pot    :    678.52s CPU    707.41s WALL (   20565 calls)
     h_psi:calbec :     56.24s CPU     65.22s WALL (   20565 calls)
     vloc_psi     :    584.23s CPU    603.88s WALL (   20565 calls)
     add_vuspsi   :     37.89s CPU     38.18s WALL (   20565 calls)

     General routines
     calbec       :     85.75s CPU     99.63s WALL (   28065 calls)
     fft          :      0.42s CPU      0.45s WALL (     667 calls)
     ffts         :      0.05s CPU      0.24s WALL (     100 calls)
     fftw         :    685.00s CPU    707.70s WALL ( 5213656 calls)
     interpolate  :      0.07s CPU      0.15s WALL (      50 calls)
 
     Parallel routines
     fft_scatt_xy :     45.61s CPU     47.08s WALL ( 5214423 calls)
     fft_scatt_yz :    456.45s CPU    471.83s WALL ( 5214423 calls)
 
     PWSCF        : 31m52.15s CPU    33m39.61s WALL

 
   This run was terminated on:  19:13: 0   9Sep2020            

=------------------------------------------------------------------------------=
   JOB DONE.
=------------------------------------------------------------------------------=
