--------------------------------------------------------------------------
WARNING: No preset parameters were found for the device that Open MPI
detected:

  Local host:            bear-pg0206u39a
  Device name:           mlx5_0
  Device vendor ID:      0x02c9
  Device vendor part ID: 4123

Default device parameters will be used, which may result in lower
performance.  You can edit any of the files specified by the
btl_openib_device_param_files MCA parameter to set values for your
device.

NOTE: You can turn off this warning by setting the MCA parameter
      btl_openib_warn_no_device_params_found to 0.
--------------------------------------------------------------------------
--------------------------------------------------------------------------
WARNING: There was an error initializing an OpenFabrics device.

  Local host:   bear-pg0206u39a
  Local device: mlx5_0
--------------------------------------------------------------------------

     Program PWSCF v.6.3 starts on  9Sep2020 at 19:13: 2 

     This program is part of the open-source Quantum ESPRESSO suite
     for quantum simulation of materials; please cite
         "P. Giannozzi et al., J. Phys.:Condens. Matter 21 395502 (2009);
         "P. Giannozzi et al., J. Phys.:Condens. Matter 29 465901 (2017);
          URL http://www.quantum-espresso.org", 
     in publications or presentations arising from this work. More details at
     http://www.quantum-espresso.org/quote

     Parallel version (MPI & OpenMP), running on      40 processor cores
     Number of MPI processes:                40
     Threads/MPI process:                     1

     MPI processes distributed on     1 nodes
     R & G space division:  proc/nbgrp/npool/nimage =      40
     Reading input from wd/ec/ec_4_007.in
Warning: card &IONS ignored
Warning: card ION_DYNAMICS = 'BFGS', ignored
Warning: card / ignored
Warning: card &CELL ignored
Warning: card CELL_DYNAMICS = 'BFGS', ignored
Warning: card CELL_FACTOR = 2.0, ignored
Warning: card PRESS = 0.0, ignored
Warning: card / ignored

     Current dimensions of program PWSCF are:
     Max number of different atomic species (ntypx) = 10
     Max number of k-points (npk) =  40000
     Max angular momentum in pseudopotentials (lmaxx) =  3
               file Fe.pbe-spn-kjpaw_psl.1.0.0.UPF: wavefunction(s)  3P 3D renormalized
               file Fe.pbe-spn-kjpaw_psl.1.0.0.UPF: wavefunction(s)  3P 3D renormalized

     Subspace diagonalization in iterative solution of the eigenvalue problem:
     a serial algorithm will be used

     Found symmetry operation: I + (  0.0000  0.0000 -0.5000)
     This is a supercell, fractional translations are disabled
 
     Parallelization info
     --------------------
     sticks:   dense  smooth     PW     G-vecs:    dense   smooth      PW
     Min          95      63     17                 4472     2402     355
     Max          96      64     18                 4477     2407     359
     Sum        3833    2537    717               178997    96147   14303
 


     bravais-lattice index     =            0
     lattice parameter (alat)  =      10.5935  a.u.
     unit-cell volume          =    1188.8329 (a.u.)^3
     number of atoms/cell      =           16
     number of atomic types    =            2
     number of electrons       =       256.00
     number of Kohn-Sham states=          154
     kinetic-energy cutoff     =      71.0000  Ry
     charge density cutoff     =     430.0000  Ry
     convergence threshold     =      1.0E-06
     mixing beta               =       0.1000
     number of iterations used =           10  plain     mixing
     Exchange-correlation      = SLA PW PBX PBC ( 1  4  3  4 0 0)

     celldm(1)=  10.593520  celldm(2)=   0.000000  celldm(3)=   0.000000
     celldm(4)=   0.000000  celldm(5)=   0.000000  celldm(6)=   0.000000

     crystal axes: (cart. coord. in units of alat)
               a(1) = (   1.000008   0.000000   0.000000 )  
               a(2) = (   0.000000   1.000008   0.005000 )  
               a(3) = (   0.000000   0.005000   1.000008 )  

     reciprocal axes: (cart. coord. in units 2 pi/alat)
               b(1) = (  0.999992  0.000000  0.000000 )  
               b(2) = (  0.000000  1.000017 -0.005000 )  
               b(3) = (  0.000000 -0.005000  1.000017 )  


     PseudoPot. # 1 for Fe read from file:
     /rds/homes/b/bxp912/pp/Fe.pbe-spn-kjpaw_psl.1.0.0.UPF
     MD5 check sum: 42f43b795421b414b0dc916aa790dbcb
     Pseudo is Projector augmented-wave + core cor, Zval = 16.0
     Generated using "atomic" code by A. Dal Corso v.6.3
     Shape of augmentation charge: PSQ
     Using radial grid of 1191 points,  6 beta functions with: 
                l(1) =   0
                l(2) =   0
                l(3) =   1
                l(4) =   1
                l(5) =   2
                l(6) =   2
     Q(r) pseudized with 0 coefficients 


     PseudoPot. # 2 for Fe read from file:
     /rds/homes/b/bxp912/pp/Fe.pbe-spn-kjpaw_psl.1.0.0.UPF
     MD5 check sum: 42f43b795421b414b0dc916aa790dbcb
     Pseudo is Projector augmented-wave + core cor, Zval = 16.0
     Generated using "atomic" code by A. Dal Corso v.6.3
     Shape of augmentation charge: PSQ
     Using radial grid of 1191 points,  6 beta functions with: 
                l(1) =   0
                l(2) =   0
                l(3) =   1
                l(4) =   1
                l(5) =   2
                l(6) =   2
     Q(r) pseudized with 0 coefficients 


     atomic species   valence    mass     pseudopotential
        Fe1           16.00    55.84500     Fe( 1.00)
        Fe2           16.00    55.84500     Fe( 1.00)

     Starting magnetic structure 
     atomic species   magnetization
        Fe1          0.100
        Fe2          0.100

      8 Sym. Ops., with inversion, found



   Cartesian axes

     site n.     atom                  positions (alat units)
         1           Fe1 tau(   1) = (   0.0000000   0.0000000   0.0000000  )
         2           Fe2 tau(   2) = (   0.2500025   0.2512525   0.2512525  )
         3           Fe1 tau(   3) = (   0.0000000   0.0025000   0.5000042  )
         4           Fe2 tau(   4) = (   0.2500025   0.2537525   0.7512558  )
         5           Fe1 tau(   5) = (   0.0000000   0.5000042   0.0025000  )
         6           Fe2 tau(   6) = (   0.2500025   0.7512558   0.2537525  )
         7           Fe1 tau(   7) = (   0.0000000   0.5025042   0.5025042  )
         8           Fe2 tau(   8) = (   0.2500025   0.7537558   0.7537558  )
         9           Fe1 tau(   9) = (   0.5000042   0.0000000   0.0000000  )
        10           Fe2 tau(  10) = (   0.7500058   0.2512525   0.2512525  )
        11           Fe1 tau(  11) = (   0.5000042   0.0025000   0.5000042  )
        12           Fe2 tau(  12) = (   0.7500058   0.2537525   0.7512558  )
        13           Fe1 tau(  13) = (   0.5000042   0.5000042   0.0025000  )
        14           Fe2 tau(  14) = (   0.7500058   0.7512558   0.2537525  )
        15           Fe1 tau(  15) = (   0.5000042   0.5025042   0.5025042  )
        16           Fe2 tau(  16) = (   0.7500058   0.7537558   0.7537558  )

     number of k points=   125  Marzari-Vanderbilt smearing, width (Ry)=  0.0400

     Number of k-points >= 100: set verbosity='high' to print them.

     Dense  grid:   178997 G-vectors     FFT dimensions: (  72,  72,  72)

     Smooth grid:    96147 G-vectors     FFT dimensions: (  60,  60,  60)

     Estimated max dynamical RAM per process >     215.38 MB

     Estimated total dynamical RAM >       8.41 GB
     Generating pointlists ...
     new r_m :   0.1780 (alat units)  1.8859 (a.u.) for type    1
     new r_m :   0.1780 (alat units)  1.8859 (a.u.) for type    2

     Check: negative/imaginary core charge=   -0.000006    0.000000

     Initial potential from superposition of free atoms

     starting charge  255.99300, renormalised to  256.00000
     Starting wfcs are  160 randomized atomic wfcs
     Checking if some PAW data can be deallocated... 

     total cpu time spent up to now is       23.6 secs

     Self-consistent Calculation

     iteration #  1     ecut=    71.00 Ry     beta= 0.10
     Davidson diagonalization with overlap
     ethr =  1.00E-02,  avg # of iterations =  3.4

     Threshold (ethr) on eigenvalues was too large:
     Diagonalizing with lowered threshold

     Davidson diagonalization with overlap
     ethr =  2.83E-04,  avg # of iterations =  3.4

     total cpu time spent up to now is      211.5 secs

     total energy              =   -5268.17149229 Ry
     Harris-Foulkes estimate   =   -5268.32022741 Ry
     estimated scf accuracy    <       0.81903140 Ry

     total magnetization       =    28.03 Bohr mag/cell
     absolute magnetization    =    28.39 Bohr mag/cell

     iteration #  2     ecut=    71.00 Ry     beta= 0.10
     Davidson diagonalization with overlap
     ethr =  3.20E-04,  avg # of iterations =  1.0

     total cpu time spent up to now is      269.2 secs

     total energy              =   -5268.05653233 Ry
     Harris-Foulkes estimate   =   -5268.18952572 Ry
     estimated scf accuracy    <       0.48867916 Ry

     total magnetization       =    28.66 Bohr mag/cell
     absolute magnetization    =    28.95 Bohr mag/cell

     iteration #  3     ecut=    71.00 Ry     beta= 0.10
     Davidson diagonalization with overlap
     ethr =  1.91E-04,  avg # of iterations =  2.6

     total cpu time spent up to now is      348.4 secs

     total energy              =   -5268.04084044 Ry
     Harris-Foulkes estimate   =   -5268.10767512 Ry
     estimated scf accuracy    <       0.55178293 Ry

     total magnetization       =    29.46 Bohr mag/cell
     absolute magnetization    =    29.80 Bohr mag/cell

     iteration #  4     ecut=    71.00 Ry     beta= 0.10
     Davidson diagonalization with overlap
     ethr =  1.91E-04,  avg # of iterations =  1.5

     total cpu time spent up to now is      410.3 secs

     total energy              =   -5268.06875471 Ry
     Harris-Foulkes estimate   =   -5268.07135240 Ry
     estimated scf accuracy    <       0.16086999 Ry

     total magnetization       =    30.22 Bohr mag/cell
     absolute magnetization    =    30.58 Bohr mag/cell

     iteration #  5     ecut=    71.00 Ry     beta= 0.10
     Davidson diagonalization with overlap
     ethr =  6.28E-05,  avg # of iterations =  1.6

     total cpu time spent up to now is      472.4 secs

     total energy              =   -5268.08761230 Ry
     Harris-Foulkes estimate   =   -5268.07253086 Ry
     estimated scf accuracy    <       0.11156347 Ry

     total magnetization       =    30.30 Bohr mag/cell
     absolute magnetization    =    30.70 Bohr mag/cell

     iteration #  6     ecut=    71.00 Ry     beta= 0.10
     Davidson diagonalization with overlap
     ethr =  4.36E-05,  avg # of iterations =  3.3

     total cpu time spent up to now is      576.1 secs

     total energy              =   -5268.14566619 Ry
     Harris-Foulkes estimate   =   -5268.12632207 Ry
     estimated scf accuracy    <       0.13885228 Ry

     total magnetization       =    30.92 Bohr mag/cell
     absolute magnetization    =    31.62 Bohr mag/cell

     iteration #  7     ecut=    71.00 Ry     beta= 0.10
     Davidson diagonalization with overlap
     ethr =  4.36E-05,  avg # of iterations =  2.0

     total cpu time spent up to now is      647.2 secs

     total energy              =   -5268.15120166 Ry
     Harris-Foulkes estimate   =   -5268.15341211 Ry
     estimated scf accuracy    <       0.10655051 Ry

     total magnetization       =    31.43 Bohr mag/cell
     absolute magnetization    =    32.33 Bohr mag/cell

     iteration #  8     ecut=    71.00 Ry     beta= 0.10
     Davidson diagonalization with overlap
     ethr =  4.16E-05,  avg # of iterations =  1.0

     negative rho (up, down):  0.000E+00 2.232E-03

     total cpu time spent up to now is      703.4 secs

     total energy              =   -5268.16682501 Ry
     Harris-Foulkes estimate   =   -5268.15222965 Ry
     estimated scf accuracy    <       0.08277480 Ry

     total magnetization       =    31.55 Bohr mag/cell
     absolute magnetization    =    32.50 Bohr mag/cell

     iteration #  9     ecut=    71.00 Ry     beta= 0.10
     Davidson diagonalization with overlap
     ethr =  3.23E-05,  avg # of iterations =  2.8

     negative rho (up, down):  0.000E+00 2.356E-03

     total cpu time spent up to now is      798.5 secs

     total energy              =   -5268.18958948 Ry
     Harris-Foulkes estimate   =   -5268.19225010 Ry
     estimated scf accuracy    <       0.02634554 Ry

     total magnetization       =    32.47 Bohr mag/cell
     absolute magnetization    =    33.95 Bohr mag/cell

     iteration # 10     ecut=    71.00 Ry     beta= 0.10
     Davidson diagonalization with overlap
     ethr =  1.03E-05,  avg # of iterations =  1.2

     negative rho (up, down):  0.000E+00 2.463E-03

     total cpu time spent up to now is      856.5 secs

     total energy              =   -5268.18781545 Ry
     Harris-Foulkes estimate   =   -5268.19008315 Ry
     estimated scf accuracy    <       0.00993015 Ry

     total magnetization       =    32.56 Bohr mag/cell
     absolute magnetization    =    34.09 Bohr mag/cell

     iteration # 11     ecut=    71.00 Ry     beta= 0.10
     Davidson diagonalization with overlap
     ethr =  3.88E-06,  avg # of iterations =  2.6

     negative rho (up, down):  0.000E+00 2.554E-03

     total cpu time spent up to now is      935.7 secs

     total energy              =   -5268.18809060 Ry
     Harris-Foulkes estimate   =   -5268.18833131 Ry
     estimated scf accuracy    <       0.00137161 Ry

     total magnetization       =    32.66 Bohr mag/cell
     absolute magnetization    =    34.28 Bohr mag/cell

     iteration # 12     ecut=    71.00 Ry     beta= 0.10
     Davidson diagonalization with overlap
     ethr =  5.36E-07,  avg # of iterations =  2.0

     negative rho (up, down):  0.000E+00 2.648E-03

     total cpu time spent up to now is     1004.6 secs

     total energy              =   -5268.18810982 Ry
     Harris-Foulkes estimate   =   -5268.18815419 Ry
     estimated scf accuracy    <       0.00065241 Ry

     total magnetization       =    32.71 Bohr mag/cell
     absolute magnetization    =    34.36 Bohr mag/cell

     iteration # 13     ecut=    71.00 Ry     beta= 0.10
     Davidson diagonalization with overlap
     ethr =  2.55E-07,  avg # of iterations =  2.9

     negative rho (up, down):  0.000E+00 2.437E-03

     total cpu time spent up to now is     1091.5 secs

     total energy              =   -5268.18856684 Ry
     Harris-Foulkes estimate   =   -5268.18821706 Ry
     estimated scf accuracy    <       0.00087355 Ry

     total magnetization       =    32.77 Bohr mag/cell
     absolute magnetization    =    34.47 Bohr mag/cell

     iteration # 14     ecut=    71.00 Ry     beta= 0.10
     Davidson diagonalization with overlap
     ethr =  2.55E-07,  avg # of iterations =  3.2

     negative rho (up, down):  0.000E+00 2.463E-03

     total cpu time spent up to now is     1194.1 secs

     total energy              =   -5268.18881003 Ry
     Harris-Foulkes estimate   =   -5268.18880486 Ry
     estimated scf accuracy    <       0.00045432 Ry

     total magnetization       =    32.78 Bohr mag/cell
     absolute magnetization    =    34.50 Bohr mag/cell

     iteration # 15     ecut=    71.00 Ry     beta= 0.10
     Davidson diagonalization with overlap
     ethr =  1.77E-07,  avg # of iterations =  1.8

     negative rho (up, down):  0.000E+00 2.400E-03

     total cpu time spent up to now is     1260.5 secs

     total energy              =   -5268.18888584 Ry
     Harris-Foulkes estimate   =   -5268.18884104 Ry
     estimated scf accuracy    <       0.00010394 Ry

     total magnetization       =    32.82 Bohr mag/cell
     absolute magnetization    =    34.56 Bohr mag/cell

     iteration # 16     ecut=    71.00 Ry     beta= 0.10
     Davidson diagonalization with overlap
     ethr =  4.06E-08,  avg # of iterations =  3.0

     negative rho (up, down):  0.000E+00 2.410E-03

     total cpu time spent up to now is     1355.9 secs

     total energy              =   -5268.18891508 Ry
     Harris-Foulkes estimate   =   -5268.18891825 Ry
     estimated scf accuracy    <       0.00008196 Ry

     total magnetization       =    32.85 Bohr mag/cell
     absolute magnetization    =    34.59 Bohr mag/cell

     iteration # 17     ecut=    71.00 Ry     beta= 0.10
     Davidson diagonalization with overlap
     ethr =  3.20E-08,  avg # of iterations =  1.9

     negative rho (up, down):  0.000E+00 2.449E-03

     total cpu time spent up to now is     1423.6 secs

     total energy              =   -5268.18892404 Ry
     Harris-Foulkes estimate   =   -5268.18892169 Ry
     estimated scf accuracy    <       0.00003713 Ry

     total magnetization       =    32.86 Bohr mag/cell
     absolute magnetization    =    34.61 Bohr mag/cell

     iteration # 18     ecut=    71.00 Ry     beta= 0.10
     Davidson diagonalization with overlap
     ethr =  1.45E-08,  avg # of iterations =  3.0

     negative rho (up, down):  0.000E+00 2.440E-03

     total cpu time spent up to now is     1514.3 secs

     total energy              =   -5268.18893581 Ry
     Harris-Foulkes estimate   =   -5268.18893086 Ry
     estimated scf accuracy    <       0.00001567 Ry

     total magnetization       =    32.89 Bohr mag/cell
     absolute magnetization    =    34.65 Bohr mag/cell

     iteration # 19     ecut=    71.00 Ry     beta= 0.10
     Davidson diagonalization with overlap
     ethr =  6.12E-09,  avg # of iterations =  2.9

     negative rho (up, down):  0.000E+00 2.445E-03

     total cpu time spent up to now is     1596.7 secs

     total energy              =   -5268.18893931 Ry
     Harris-Foulkes estimate   =   -5268.18893818 Ry
     estimated scf accuracy    <       0.00001072 Ry

     total magnetization       =    32.89 Bohr mag/cell
     absolute magnetization    =    34.66 Bohr mag/cell

     iteration # 20     ecut=    71.00 Ry     beta= 0.10
     Davidson diagonalization with overlap
     ethr =  4.19E-09,  avg # of iterations =  1.7

     negative rho (up, down):  0.000E+00 2.453E-03

     total cpu time spent up to now is     1661.2 secs

     total energy              =   -5268.18894181 Ry
     Harris-Foulkes estimate   =   -5268.18894034 Ry
     estimated scf accuracy    <       0.00000545 Ry

     total magnetization       =    32.90 Bohr mag/cell
     absolute magnetization    =    34.66 Bohr mag/cell

     iteration # 21     ecut=    71.00 Ry     beta= 0.10
     Davidson diagonalization with overlap
     ethr =  2.13E-09,  avg # of iterations =  2.6

     negative rho (up, down):  0.000E+00 2.453E-03

     total cpu time spent up to now is     1738.2 secs

     total energy              =   -5268.18894340 Ry
     Harris-Foulkes estimate   =   -5268.18894252 Ry
     estimated scf accuracy    <       0.00000107 Ry

     total magnetization       =    32.91 Bohr mag/cell
     absolute magnetization    =    34.67 Bohr mag/cell

     iteration # 22     ecut=    71.00 Ry     beta= 0.10
     Davidson diagonalization with overlap
     ethr =  4.18E-10,  avg # of iterations =  2.3

     negative rho (up, down):  0.000E+00 2.466E-03
 
     Magnetic moment per site:
     atom:    1    charge:   14.3462    magn:    2.0990    constr:    0.0000
     atom:    2    charge:   14.3462    magn:    2.1017    constr:    0.0000
     atom:    3    charge:   14.3462    magn:    2.1000    constr:    0.0000
     atom:    4    charge:   14.3461    magn:    2.1016    constr:    0.0000
     atom:    5    charge:   14.3462    magn:    2.1000    constr:    0.0000
     atom:    6    charge:   14.3461    magn:    2.1016    constr:    0.0000
     atom:    7    charge:   14.3461    magn:    2.1005    constr:    0.0000
     atom:    8    charge:   14.3462    magn:    2.1017    constr:    0.0000
     atom:    9    charge:   14.3463    magn:    2.0981    constr:    0.0000
     atom:   10    charge:   14.3462    magn:    2.1017    constr:    0.0000
     atom:   11    charge:   14.3461    magn:    2.0987    constr:    0.0000
     atom:   12    charge:   14.3461    magn:    2.1016    constr:    0.0000
     atom:   13    charge:   14.3461    magn:    2.0987    constr:    0.0000
     atom:   14    charge:   14.3461    magn:    2.1016    constr:    0.0000
     atom:   15    charge:   14.3463    magn:    2.0995    constr:    0.0000
     atom:   16    charge:   14.3462    magn:    2.1017    constr:    0.0000

     total cpu time spent up to now is     1809.1 secs

     End of self-consistent calculation

     Number of k-points >= 100: set verbosity='high' to print the bands.

     the Fermi energy is    18.9745 ev

!    total energy              =   -5268.18894629 Ry
     Harris-Foulkes estimate   =   -5268.18894345 Ry
     estimated scf accuracy    <       0.00000084 Ry

     total all-electron energy =    -40728.933475 Ry

     The total energy is the sum of the following terms:

     one-electron contribution =   -1707.49022296 Ry
     hartree contribution      =    1022.31181839 Ry
     xc contribution           =    -444.26245670 Ry
     ewald contribution        =   -2814.20127672 Ry
     one-center paw contrib.   =   -1324.67090090 Ry
     smearing contrib. (-TS)   =       0.12409260 Ry

     total magnetization       =    32.91 Bohr mag/cell
     absolute magnetization    =    34.67 Bohr mag/cell

     convergence has been achieved in  22 iterations

     negative rho (up, down):  0.000E+00 2.466E-03

     Forces acting on atoms (cartesian axes, Ry/au):

     atom    1 type  1   force =     0.00000000    0.00000000    0.00000000
     atom    2 type  2   force =    -0.00012640    0.00010347    0.00010347
     atom    3 type  1   force =     0.00000000    0.00000000    0.00000000
     atom    4 type  2   force =     0.00006234    0.00012095   -0.00012095
     atom    5 type  1   force =     0.00000000    0.00000000    0.00000000
     atom    6 type  2   force =     0.00006234   -0.00012095    0.00012095
     atom    7 type  1   force =     0.00000000    0.00000000    0.00000000
     atom    8 type  2   force =    -0.00012640   -0.00010347   -0.00010347
     atom    9 type  1   force =     0.00000000    0.00000000    0.00000000
     atom   10 type  2   force =     0.00012640    0.00010347    0.00010347
     atom   11 type  1   force =    -0.00000000    0.00000000    0.00000000
     atom   12 type  2   force =    -0.00006234    0.00012095   -0.00012095
     atom   13 type  1   force =     0.00000000    0.00000000    0.00000000
     atom   14 type  2   force =    -0.00006234   -0.00012095    0.00012095
     atom   15 type  1   force =     0.00000000    0.00000000    0.00000000
     atom   16 type  2   force =     0.00012640   -0.00010347   -0.00010347

     Total force =     0.000531     Total SCF correction =     0.005902
     SCF correction compared to forces is large: reduce conv_thr to get better values


     Computing stress (Cartesian axis) and pressure


     negative rho (up, down):  0.000E+00 2.466E-03
          total   stress  (Ry/bohr**3)                   (kbar)     P=   -2.03
  -0.00001359   0.00000000   0.00000000         -2.00      0.00      0.00
   0.00000000  -0.00001392  -0.00009264          0.00     -2.05    -13.63
   0.00000000  -0.00009264  -0.00001392          0.00    -13.63     -2.05


     Writing output data file ASiqCDptWJBatwtG.save/
 
     init_run     :     21.38s CPU     22.29s WALL (       1 calls)
     electrons    :   1732.84s CPU   1785.53s WALL (       1 calls)
     forces       :      7.64s CPU      8.38s WALL (       1 calls)
     stress       :     21.24s CPU     21.44s WALL (       1 calls)

     Called by init_run:
     wfcinit      :     20.84s CPU     21.70s WALL (       1 calls)
     potinit      :      0.23s CPU      0.25s WALL (       1 calls)
     hinit0       :      0.20s CPU      0.21s WALL (       1 calls)

     Called by electrons:
     c_bands      :   1568.63s CPU   1612.40s WALL (      23 calls)
     sum_band     :    159.59s CPU    167.92s WALL (      23 calls)
     v_of_rho     :      0.36s CPU      0.37s WALL (      23 calls)
     newd         :      0.72s CPU      0.92s WALL (      23 calls)
     PAW_pot      :      3.46s CPU      3.75s WALL (      23 calls)
     mix_rho      :      0.18s CPU      0.19s WALL (      23 calls)

     Called by c_bands:
     init_us_2    :      8.53s CPU      8.68s WALL (   12250 calls)
     cegterg      :   1527.01s CPU   1570.19s WALL (    5750 calls)

     Called by sum_band:
     sum_band:bec :      2.39s CPU      2.42s WALL (    5750 calls)
     addusdens    :      1.26s CPU      1.44s WALL (      23 calls)

     Called by *egterg:
     h_psi        :    636.79s CPU    663.17s WALL (   19421 calls)
     s_psi        :     35.02s CPU     35.21s WALL (   19421 calls)
     g_psi        :      1.42s CPU      1.43s WALL (   13421 calls)
     cdiaghg      :    704.14s CPU    706.52s WALL (   18921 calls)

     Called by h_psi:
     h_psi:pot    :    633.20s CPU    659.55s WALL (   19421 calls)
     h_psi:calbec :     52.31s CPU     60.64s WALL (   19421 calls)
     vloc_psi     :    545.25s CPU    563.05s WALL (   19421 calls)
     add_vuspsi   :     35.47s CPU     35.73s WALL (   19421 calls)

     General routines
     calbec       :     79.62s CPU     92.67s WALL (   26421 calls)
     fft          :      0.41s CPU      0.43s WALL (     617 calls)
     ffts         :      0.05s CPU      0.22s WALL (      92 calls)
     fftw         :    634.26s CPU    654.87s WALL ( 4812650 calls)
     interpolate  :      0.07s CPU      0.14s WALL (      46 calls)
 
     Parallel routines
     fft_scatt_xy :     42.62s CPU     43.94s WALL ( 4813359 calls)
     fft_scatt_yz :    422.52s CPU    436.53s WALL ( 4813359 calls)
 
     PWSCF        : 29m58.33s CPU    31m41.04s WALL

 
   This run was terminated on:  19:44:43   9Sep2020            

=------------------------------------------------------------------------------=
   JOB DONE.
=------------------------------------------------------------------------------=
