--------------------------------------------------------------------------
WARNING: No preset parameters were found for the device that Open MPI
detected:

  Local host:            bear-pg0206u39a
  Device name:           mlx5_0
  Device vendor ID:      0x02c9
  Device vendor part ID: 4123

Default device parameters will be used, which may result in lower
performance.  You can edit any of the files specified by the
btl_openib_device_param_files MCA parameter to set values for your
device.

NOTE: You can turn off this warning by setting the MCA parameter
      btl_openib_warn_no_device_params_found to 0.
--------------------------------------------------------------------------
--------------------------------------------------------------------------
WARNING: There was an error initializing an OpenFabrics device.

  Local host:   bear-pg0206u39a
  Local device: mlx5_0
--------------------------------------------------------------------------

     Program PWSCF v.6.3 starts on  9Sep2020 at 17:34:41 

     This program is part of the open-source Quantum ESPRESSO suite
     for quantum simulation of materials; please cite
         "P. Giannozzi et al., J. Phys.:Condens. Matter 21 395502 (2009);
         "P. Giannozzi et al., J. Phys.:Condens. Matter 29 465901 (2017);
          URL http://www.quantum-espresso.org", 
     in publications or presentations arising from this work. More details at
     http://www.quantum-espresso.org/quote

     Parallel version (MPI & OpenMP), running on      40 processor cores
     Number of MPI processes:                40
     Threads/MPI process:                     1

     MPI processes distributed on     1 nodes
     R & G space division:  proc/nbgrp/npool/nimage =      40
     Reading input from wd/ec/ec_4_004.in
Warning: card &IONS ignored
Warning: card ION_DYNAMICS = 'BFGS', ignored
Warning: card / ignored
Warning: card &CELL ignored
Warning: card CELL_DYNAMICS = 'BFGS', ignored
Warning: card CELL_FACTOR = 2.0, ignored
Warning: card PRESS = 0.0, ignored
Warning: card / ignored

     Current dimensions of program PWSCF are:
     Max number of different atomic species (ntypx) = 10
     Max number of k-points (npk) =  40000
     Max angular momentum in pseudopotentials (lmaxx) =  3
               file Fe.pbe-spn-kjpaw_psl.1.0.0.UPF: wavefunction(s)  3P 3D renormalized
               file Fe.pbe-spn-kjpaw_psl.1.0.0.UPF: wavefunction(s)  3P 3D renormalized

     Subspace diagonalization in iterative solution of the eigenvalue problem:
     a serial algorithm will be used

     Found symmetry operation: I + (  0.0000 -0.0000  0.5000)
     This is a supercell, fractional translations are disabled
 
     Parallelization info
     --------------------
     sticks:   dense  smooth     PW     G-vecs:    dense   smooth      PW
     Min          95      63     17                 4472     2401     355
     Max          96      64     18                 4477     2406     359
     Sum        3833    2537    717               178985    96109   14307
 


     bravais-lattice index     =            0
     lattice parameter (alat)  =      10.5935  a.u.
     unit-cell volume          =    1188.8329 (a.u.)^3
     number of atoms/cell      =           16
     number of atomic types    =            2
     number of electrons       =       256.00
     number of Kohn-Sham states=          154
     kinetic-energy cutoff     =      71.0000  Ry
     charge density cutoff     =     430.0000  Ry
     convergence threshold     =      1.0E-06
     mixing beta               =       0.1000
     number of iterations used =           10  plain     mixing
     Exchange-correlation      = SLA PW PBX PBC ( 1  4  3  4 0 0)

     celldm(1)=  10.593520  celldm(2)=   0.000000  celldm(3)=   0.000000
     celldm(4)=   0.000000  celldm(5)=   0.000000  celldm(6)=   0.000000

     crystal axes: (cart. coord. in units of alat)
               a(1) = (   1.000002   0.000000   0.000000 )  
               a(2) = (   0.000000   1.000002   0.002500 )  
               a(3) = (   0.000000   0.002500   1.000002 )  

     reciprocal axes: (cart. coord. in units 2 pi/alat)
               b(1) = (  0.999998  0.000000  0.000000 )  
               b(2) = (  0.000000  1.000004 -0.002500 )  
               b(3) = (  0.000000 -0.002500  1.000004 )  


     PseudoPot. # 1 for Fe read from file:
     /rds/homes/b/bxp912/pp/Fe.pbe-spn-kjpaw_psl.1.0.0.UPF
     MD5 check sum: 42f43b795421b414b0dc916aa790dbcb
     Pseudo is Projector augmented-wave + core cor, Zval = 16.0
     Generated using "atomic" code by A. Dal Corso v.6.3
     Shape of augmentation charge: PSQ
     Using radial grid of 1191 points,  6 beta functions with: 
                l(1) =   0
                l(2) =   0
                l(3) =   1
                l(4) =   1
                l(5) =   2
                l(6) =   2
     Q(r) pseudized with 0 coefficients 


     PseudoPot. # 2 for Fe read from file:
     /rds/homes/b/bxp912/pp/Fe.pbe-spn-kjpaw_psl.1.0.0.UPF
     MD5 check sum: 42f43b795421b414b0dc916aa790dbcb
     Pseudo is Projector augmented-wave + core cor, Zval = 16.0
     Generated using "atomic" code by A. Dal Corso v.6.3
     Shape of augmentation charge: PSQ
     Using radial grid of 1191 points,  6 beta functions with: 
                l(1) =   0
                l(2) =   0
                l(3) =   1
                l(4) =   1
                l(5) =   2
                l(6) =   2
     Q(r) pseudized with 0 coefficients 


     atomic species   valence    mass     pseudopotential
        Fe1           16.00    55.84500     Fe( 1.00)
        Fe2           16.00    55.84500     Fe( 1.00)

     Starting magnetic structure 
     atomic species   magnetization
        Fe1          0.100
        Fe2          0.100

      8 Sym. Ops., with inversion, found



   Cartesian axes

     site n.     atom                  positions (alat units)
         1           Fe1 tau(   1) = (   0.0000000   0.0000000   0.0000000  )
         2           Fe2 tau(   2) = (   0.2500010   0.2506260   0.2506260  )
         3           Fe1 tau(   3) = (   0.0000000   0.0012500   0.5000010  )
         4           Fe2 tau(   4) = (   0.2500010   0.2518760   0.7506261  )
         5           Fe1 tau(   5) = (   0.0000000   0.5000010   0.0012500  )
         6           Fe2 tau(   6) = (   0.2500010   0.7506261   0.2518760  )
         7           Fe1 tau(   7) = (   0.0000000   0.5012510   0.5012510  )
         8           Fe2 tau(   8) = (   0.2500010   0.7518761   0.7518761  )
         9           Fe1 tau(   9) = (   0.5000010   0.0000000   0.0000000  )
        10           Fe2 tau(  10) = (   0.7500011   0.2506260   0.2506260  )
        11           Fe1 tau(  11) = (   0.5000010   0.0012500   0.5000010  )
        12           Fe2 tau(  12) = (   0.7500011   0.2518760   0.7506261  )
        13           Fe1 tau(  13) = (   0.5000010   0.5000010   0.0012500  )
        14           Fe2 tau(  14) = (   0.7500011   0.7506261   0.2518760  )
        15           Fe1 tau(  15) = (   0.5000010   0.5012510   0.5012510  )
        16           Fe2 tau(  16) = (   0.7500011   0.7518761   0.7518761  )

     number of k points=   125  Marzari-Vanderbilt smearing, width (Ry)=  0.0400

     Number of k-points >= 100: set verbosity='high' to print them.

     Dense  grid:   178985 G-vectors     FFT dimensions: (  72,  72,  72)

     Smooth grid:    96109 G-vectors     FFT dimensions: (  60,  60,  60)

     Estimated max dynamical RAM per process >     215.38 MB

     Estimated total dynamical RAM >       8.41 GB
     Generating pointlists ...
     new r_m :   0.1783 (alat units)  1.8890 (a.u.) for type    1
     new r_m :   0.1783 (alat units)  1.8890 (a.u.) for type    2

     Check: negative/imaginary core charge=   -0.000006    0.000000

     Initial potential from superposition of free atoms

     starting charge  255.99300, renormalised to  256.00000
     Starting wfcs are  160 randomized atomic wfcs
     Checking if some PAW data can be deallocated... 

     total cpu time spent up to now is       23.7 secs

     Self-consistent Calculation

     iteration #  1     ecut=    71.00 Ry     beta= 0.10
     Davidson diagonalization with overlap
     ethr =  1.00E-02,  avg # of iterations =  3.4

     Threshold (ethr) on eigenvalues was too large:
     Diagonalizing with lowered threshold

     Davidson diagonalization with overlap
     ethr =  2.83E-04,  avg # of iterations =  3.4

     total cpu time spent up to now is      211.0 secs

     total energy              =   -5268.17189803 Ry
     Harris-Foulkes estimate   =   -5268.32074182 Ry
     estimated scf accuracy    <       0.81979803 Ry

     total magnetization       =    28.03 Bohr mag/cell
     absolute magnetization    =    28.39 Bohr mag/cell

     iteration #  2     ecut=    71.00 Ry     beta= 0.10
     Davidson diagonalization with overlap
     ethr =  3.20E-04,  avg # of iterations =  1.0

     total cpu time spent up to now is      267.0 secs

     total energy              =   -5268.05686996 Ry
     Harris-Foulkes estimate   =   -5268.18996042 Ry
     estimated scf accuracy    <       0.48895814 Ry

     total magnetization       =    28.66 Bohr mag/cell
     absolute magnetization    =    28.95 Bohr mag/cell

     iteration #  3     ecut=    71.00 Ry     beta= 0.10
     Davidson diagonalization with overlap
     ethr =  1.91E-04,  avg # of iterations =  2.7

     total cpu time spent up to now is      346.0 secs

     total energy              =   -5268.04134875 Ry
     Harris-Foulkes estimate   =   -5268.10813322 Ry
     estimated scf accuracy    <       0.55224508 Ry

     total magnetization       =    29.46 Bohr mag/cell
     absolute magnetization    =    29.80 Bohr mag/cell

     iteration #  4     ecut=    71.00 Ry     beta= 0.10
     Davidson diagonalization with overlap
     ethr =  1.91E-04,  avg # of iterations =  1.5

     total cpu time spent up to now is      407.2 secs

     total energy              =   -5268.06923711 Ry
     Harris-Foulkes estimate   =   -5268.07183909 Ry
     estimated scf accuracy    <       0.16089021 Ry

     total magnetization       =    30.22 Bohr mag/cell
     absolute magnetization    =    30.58 Bohr mag/cell

     iteration #  5     ecut=    71.00 Ry     beta= 0.10
     Davidson diagonalization with overlap
     ethr =  6.28E-05,  avg # of iterations =  1.5

     total cpu time spent up to now is      467.9 secs

     total energy              =   -5268.08813407 Ry
     Harris-Foulkes estimate   =   -5268.07299125 Ry
     estimated scf accuracy    <       0.11153322 Ry

     total magnetization       =    30.30 Bohr mag/cell
     absolute magnetization    =    30.70 Bohr mag/cell

     iteration #  6     ecut=    71.00 Ry     beta= 0.10
     Davidson diagonalization with overlap
     ethr =  4.36E-05,  avg # of iterations =  3.3

     total cpu time spent up to now is      571.7 secs

     total energy              =   -5268.14600691 Ry
     Harris-Foulkes estimate   =   -5268.12721512 Ry
     estimated scf accuracy    <       0.13899941 Ry

     total magnetization       =    30.92 Bohr mag/cell
     absolute magnetization    =    31.63 Bohr mag/cell

     iteration #  7     ecut=    71.00 Ry     beta= 0.10
     Davidson diagonalization with overlap
     ethr =  4.36E-05,  avg # of iterations =  2.0

     total cpu time spent up to now is      642.6 secs

     total energy              =   -5268.15156446 Ry
     Harris-Foulkes estimate   =   -5268.15357289 Ry
     estimated scf accuracy    <       0.10569311 Ry

     total magnetization       =    31.43 Bohr mag/cell
     absolute magnetization    =    32.33 Bohr mag/cell

     iteration #  8     ecut=    71.00 Ry     beta= 0.10
     Davidson diagonalization with overlap
     ethr =  4.13E-05,  avg # of iterations =  1.0

     negative rho (up, down):  0.000E+00 2.227E-03

     total cpu time spent up to now is      698.5 secs

     total energy              =   -5268.16729925 Ry
     Harris-Foulkes estimate   =   -5268.15260016 Ry
     estimated scf accuracy    <       0.08225289 Ry

     total magnetization       =    31.55 Bohr mag/cell
     absolute magnetization    =    32.50 Bohr mag/cell

     iteration #  9     ecut=    71.00 Ry     beta= 0.10
     Davidson diagonalization with overlap
     ethr =  3.21E-05,  avg # of iterations =  2.7

     negative rho (up, down):  0.000E+00 2.348E-03

     total cpu time spent up to now is      794.8 secs

     total energy              =   -5268.19022986 Ry
     Harris-Foulkes estimate   =   -5268.19261236 Ry
     estimated scf accuracy    <       0.02636463 Ry

     total magnetization       =    32.46 Bohr mag/cell
     absolute magnetization    =    33.94 Bohr mag/cell

     iteration # 10     ecut=    71.00 Ry     beta= 0.10
     Davidson diagonalization with overlap
     ethr =  1.03E-05,  avg # of iterations =  1.2

     negative rho (up, down):  0.000E+00 2.461E-03

     total cpu time spent up to now is      853.1 secs

     total energy              =   -5268.18816541 Ry
     Harris-Foulkes estimate   =   -5268.19069142 Ry
     estimated scf accuracy    <       0.01088672 Ry

     total magnetization       =    32.55 Bohr mag/cell
     absolute magnetization    =    34.07 Bohr mag/cell

     iteration # 11     ecut=    71.00 Ry     beta= 0.10
     Davidson diagonalization with overlap
     ethr =  4.25E-06,  avg # of iterations =  2.4

     negative rho (up, down):  0.000E+00 2.565E-03

     total cpu time spent up to now is      929.2 secs

     total energy              =   -5268.18851398 Ry
     Harris-Foulkes estimate   =   -5268.18874205 Ry
     estimated scf accuracy    <       0.00132439 Ry

     total magnetization       =    32.65 Bohr mag/cell
     absolute magnetization    =    34.28 Bohr mag/cell

     iteration # 12     ecut=    71.00 Ry     beta= 0.10
     Davidson diagonalization with overlap
     ethr =  5.17E-07,  avg # of iterations =  2.3

     negative rho (up, down):  0.000E+00 2.641E-03

     total cpu time spent up to now is     1001.2 secs

     total energy              =   -5268.18857034 Ry
     Harris-Foulkes estimate   =   -5268.18858656 Ry
     estimated scf accuracy    <       0.00062025 Ry

     total magnetization       =    32.70 Bohr mag/cell
     absolute magnetization    =    34.36 Bohr mag/cell

     iteration # 13     ecut=    71.00 Ry     beta= 0.10
     Davidson diagonalization with overlap
     ethr =  2.42E-07,  avg # of iterations =  3.0

     negative rho (up, down):  0.000E+00 2.431E-03

     total cpu time spent up to now is     1088.2 secs

     total energy              =   -5268.18899438 Ry
     Harris-Foulkes estimate   =   -5268.18866786 Ry
     estimated scf accuracy    <       0.00088686 Ry

     total magnetization       =    32.77 Bohr mag/cell
     absolute magnetization    =    34.47 Bohr mag/cell

     iteration # 14     ecut=    71.00 Ry     beta= 0.10
     Davidson diagonalization with overlap
     c_bands:  2 eigenvalues not converged
     ethr =  2.42E-07,  avg # of iterations =  3.3

     negative rho (up, down):  0.000E+00 2.463E-03

     total cpu time spent up to now is     1191.6 secs

     total energy              =   -5268.18923239 Ry
     Harris-Foulkes estimate   =   -5268.18923177 Ry
     estimated scf accuracy    <       0.00044616 Ry

     total magnetization       =    32.78 Bohr mag/cell
     absolute magnetization    =    34.49 Bohr mag/cell

     iteration # 15     ecut=    71.00 Ry     beta= 0.10
     Davidson diagonalization with overlap
     ethr =  1.74E-07,  avg # of iterations =  1.8

     negative rho (up, down):  0.000E+00 2.406E-03

     total cpu time spent up to now is     1258.5 secs

     total energy              =   -5268.18931150 Ry
     Harris-Foulkes estimate   =   -5268.18926343 Ry
     estimated scf accuracy    <       0.00010351 Ry

     total magnetization       =    32.81 Bohr mag/cell
     absolute magnetization    =    34.55 Bohr mag/cell

     iteration # 16     ecut=    71.00 Ry     beta= 0.10
     Davidson diagonalization with overlap
     ethr =  4.04E-08,  avg # of iterations =  2.7

     negative rho (up, down):  0.000E+00 2.407E-03

     total cpu time spent up to now is     1348.0 secs

     total energy              =   -5268.18933949 Ry
     Harris-Foulkes estimate   =   -5268.18933927 Ry
     estimated scf accuracy    <       0.00007082 Ry

     total magnetization       =    32.84 Bohr mag/cell
     absolute magnetization    =    34.58 Bohr mag/cell

     iteration # 17     ecut=    71.00 Ry     beta= 0.10
     Davidson diagonalization with overlap
     ethr =  2.77E-08,  avg # of iterations =  2.3

     negative rho (up, down):  0.000E+00 2.439E-03

     total cpu time spent up to now is     1420.2 secs

     total energy              =   -5268.18934997 Ry
     Harris-Foulkes estimate   =   -5268.18934559 Ry
     estimated scf accuracy    <       0.00003658 Ry

     total magnetization       =    32.85 Bohr mag/cell
     absolute magnetization    =    34.60 Bohr mag/cell

     iteration # 18     ecut=    71.00 Ry     beta= 0.10
     Davidson diagonalization with overlap
     ethr =  1.43E-08,  avg # of iterations =  2.9

     negative rho (up, down):  0.000E+00 2.452E-03

     total cpu time spent up to now is     1508.3 secs

     total energy              =   -5268.18935929 Ry
     Harris-Foulkes estimate   =   -5268.18935647 Ry
     estimated scf accuracy    <       0.00001559 Ry

     total magnetization       =    32.88 Bohr mag/cell
     absolute magnetization    =    34.64 Bohr mag/cell

     iteration # 19     ecut=    71.00 Ry     beta= 0.10
     Davidson diagonalization with overlap
     ethr =  6.09E-09,  avg # of iterations =  1.6

     negative rho (up, down):  0.000E+00 2.454E-03

     total cpu time spent up to now is     1571.3 secs

     total energy              =   -5268.18936245 Ry
     Harris-Foulkes estimate   =   -5268.18936036 Ry
     estimated scf accuracy    <       0.00000905 Ry

     total magnetization       =    32.89 Bohr mag/cell
     absolute magnetization    =    34.65 Bohr mag/cell

     iteration # 20     ecut=    71.00 Ry     beta= 0.10
     Davidson diagonalization with overlap
     ethr =  3.54E-09,  avg # of iterations =  1.5

     negative rho (up, down):  0.000E+00 2.458E-03

     total cpu time spent up to now is     1634.6 secs

     total energy              =   -5268.18936560 Ry
     Harris-Foulkes estimate   =   -5268.18936311 Ry
     estimated scf accuracy    <       0.00000655 Ry

     total magnetization       =    32.89 Bohr mag/cell
     absolute magnetization    =    34.66 Bohr mag/cell

     iteration # 21     ecut=    71.00 Ry     beta= 0.10
     Davidson diagonalization with overlap
     ethr =  2.56E-09,  avg # of iterations =  2.4

     negative rho (up, down):  0.000E+00 2.452E-03

     total cpu time spent up to now is     1709.4 secs

     total energy              =   -5268.18936747 Ry
     Harris-Foulkes estimate   =   -5268.18936656 Ry
     estimated scf accuracy    <       0.00000171 Ry

     total magnetization       =    32.90 Bohr mag/cell
     absolute magnetization    =    34.67 Bohr mag/cell

     iteration # 22     ecut=    71.00 Ry     beta= 0.10
     Davidson diagonalization with overlap
     ethr =  6.69E-10,  avg # of iterations =  2.6

     negative rho (up, down):  0.000E+00 2.453E-03

     total cpu time spent up to now is     1789.0 secs

     total energy              =   -5268.18936846 Ry
     Harris-Foulkes estimate   =   -5268.18936768 Ry
     estimated scf accuracy    <       0.00000137 Ry

     total magnetization       =    32.90 Bohr mag/cell
     absolute magnetization    =    34.66 Bohr mag/cell

     iteration # 23     ecut=    71.00 Ry     beta= 0.10
     Davidson diagonalization with overlap
     ethr =  5.33E-10,  avg # of iterations =  1.0

     negative rho (up, down):  0.000E+00 2.464E-03
 
     Magnetic moment per site:
     atom:    1    charge:   14.3566    magn:    2.0989    constr:    0.0000
     atom:    2    charge:   14.3562    magn:    2.1015    constr:    0.0000
     atom:    3    charge:   14.3563    magn:    2.0998    constr:    0.0000
     atom:    4    charge:   14.3563    magn:    2.1014    constr:    0.0000
     atom:    5    charge:   14.3563    magn:    2.0998    constr:    0.0000
     atom:    6    charge:   14.3563    magn:    2.1014    constr:    0.0000
     atom:    7    charge:   14.3563    magn:    2.1003    constr:    0.0000
     atom:    8    charge:   14.3562    magn:    2.1015    constr:    0.0000
     atom:    9    charge:   14.3562    magn:    2.0980    constr:    0.0000
     atom:   10    charge:   14.3562    magn:    2.1015    constr:    0.0000
     atom:   11    charge:   14.3562    magn:    2.0986    constr:    0.0000
     atom:   12    charge:   14.3563    magn:    2.1014    constr:    0.0000
     atom:   13    charge:   14.3562    magn:    2.0986    constr:    0.0000
     atom:   14    charge:   14.3563    magn:    2.1014    constr:    0.0000
     atom:   15    charge:   14.3559    magn:    2.0994    constr:    0.0000
     atom:   16    charge:   14.3562    magn:    2.1015    constr:    0.0000

     total cpu time spent up to now is     1845.6 secs

     End of self-consistent calculation

     Number of k-points >= 100: set verbosity='high' to print the bands.

     the Fermi energy is    18.9743 ev

!    total energy              =   -5268.18937074 Ry
     Harris-Foulkes estimate   =   -5268.18936852 Ry
     estimated scf accuracy    <       0.00000097 Ry

     total all-electron energy =    -40728.933900 Ry

     The total energy is the sum of the following terms:

     one-electron contribution =   -1707.44568232 Ry
     hartree contribution      =    1022.28652815 Ry
     xc contribution           =    -444.26054246 Ry
     ewald contribution        =   -2814.22280639 Ry
     one-center paw contrib.   =   -1324.67101548 Ry
     smearing contrib. (-TS)   =       0.12414776 Ry

     total magnetization       =    32.90 Bohr mag/cell
     absolute magnetization    =    34.67 Bohr mag/cell

     convergence has been achieved in  23 iterations

     negative rho (up, down):  0.000E+00 2.464E-03

     Forces acting on atoms (cartesian axes, Ry/au):

     atom    1 type  1   force =     0.00000000    0.00000000    0.00000000
     atom    2 type  2   force =    -0.00007879    0.00011865    0.00011865
     atom    3 type  1   force =     0.00000000    0.00000000    0.00000000
     atom    4 type  2   force =     0.00008309    0.00013519   -0.00013519
     atom    5 type  1   force =     0.00000000    0.00000000    0.00000000
     atom    6 type  2   force =     0.00008309   -0.00013519    0.00013519
     atom    7 type  1   force =     0.00000000    0.00000000    0.00000000
     atom    8 type  2   force =    -0.00007879   -0.00011865   -0.00011865
     atom    9 type  1   force =     0.00000000    0.00000000    0.00000000
     atom   10 type  2   force =     0.00007879    0.00011865    0.00011865
     atom   11 type  1   force =     0.00000000    0.00000000    0.00000000
     atom   12 type  2   force =    -0.00008309    0.00013519   -0.00013519
     atom   13 type  1   force =    -0.00000000    0.00000000    0.00000000
     atom   14 type  2   force =    -0.00008309   -0.00013519    0.00013519
     atom   15 type  1   force =     0.00000000    0.00000000    0.00000000
     atom   16 type  2   force =     0.00007879   -0.00011865   -0.00011865

     Total force =     0.000558     Total SCF correction =     0.002978
     SCF correction compared to forces is large: reduce conv_thr to get better values


     Computing stress (Cartesian axis) and pressure


     negative rho (up, down):  0.000E+00 2.464E-03
          total   stress  (Ry/bohr**3)                   (kbar)     P=   -2.59
  -0.00001764   0.00000000   0.00000000         -2.60      0.00      0.00
   0.00000000  -0.00001758  -0.00004634          0.00     -2.59     -6.82
   0.00000000  -0.00004634  -0.00001758          0.00     -6.82     -2.59


     Writing output data file WqOrlfuQYASQCFVc.save/
 
     init_run     :     21.35s CPU     22.31s WALL (       1 calls)
     electrons    :   1767.93s CPU   1821.95s WALL (       1 calls)
     forces       :      7.66s CPU      8.49s WALL (       1 calls)
     stress       :     21.49s CPU     21.93s WALL (       1 calls)

     Called by init_run:
     wfcinit      :     20.86s CPU     21.72s WALL (       1 calls)
     potinit      :      0.23s CPU      0.25s WALL (       1 calls)
     hinit0       :      0.17s CPU      0.22s WALL (       1 calls)

     Called by electrons:
     c_bands      :   1595.39s CPU   1640.25s WALL (      24 calls)
     sum_band     :    167.54s CPU    176.19s WALL (      24 calls)
     v_of_rho     :      0.37s CPU      0.38s WALL (      24 calls)
     newd         :      0.77s CPU      0.98s WALL (      24 calls)
     PAW_pot      :      3.77s CPU      3.99s WALL (      24 calls)
     mix_rho      :      0.14s CPU      0.14s WALL (      24 calls)

     Called by c_bands:
     init_us_2    :      9.33s CPU      9.47s WALL (   12750 calls)
     cegterg      :   1551.11s CPU   1595.47s WALL (    6000 calls)

     Called by sum_band:
     sum_band:bec :      2.53s CPU      2.57s WALL (    6000 calls)
     addusdens    :      1.35s CPU      1.53s WALL (      24 calls)

     Called by *egterg:
     h_psi        :    658.20s CPU    685.81s WALL (   19659 calls)
     s_psi        :     36.39s CPU     36.60s WALL (   19659 calls)
     g_psi        :      1.52s CPU      1.54s WALL (   13409 calls)
     cdiaghg      :    700.21s CPU    702.26s WALL (   19159 calls)

     Called by h_psi:
     h_psi:pot    :    654.50s CPU    682.08s WALL (   19659 calls)
     h_psi:calbec :     53.91s CPU     62.39s WALL (   19659 calls)
     vloc_psi     :    563.66s CPU    582.54s WALL (   19659 calls)
     add_vuspsi   :     36.77s CPU     37.03s WALL (   19659 calls)

     General routines
     calbec       :     81.58s CPU     94.87s WALL (   26909 calls)
     fft          :      0.42s CPU      0.45s WALL (     642 calls)
     ffts         :      0.07s CPU      0.25s WALL (      96 calls)
     fftw         :    657.59s CPU    679.50s WALL ( 4997022 calls)
     interpolate  :      0.07s CPU      0.15s WALL (      48 calls)
 
     Parallel routines
     fft_scatt_xy :     43.61s CPU     45.06s WALL ( 4997760 calls)
     fft_scatt_yz :    439.82s CPU    454.75s WALL ( 4997760 calls)
 
     PWSCF        : 30m33.76s CPU    32m17.47s WALL

 
   This run was terminated on:  18: 6:58   9Sep2020            

=------------------------------------------------------------------------------=
   JOB DONE.
=------------------------------------------------------------------------------=
