--------------------------------------------------------------------------
WARNING: There was an error initializing an OpenFabrics device.

  Local host:   bear-pg0206u39a
  Local device: mlx5_0
--------------------------------------------------------------------------
--------------------------------------------------------------------------
WARNING: No preset parameters were found for the device that Open MPI
detected:

  Local host:            bear-pg0206u39a
  Device name:           mlx5_0
  Device vendor ID:      0x02c9
  Device vendor part ID: 4123

Default device parameters will be used, which may result in lower
performance.  You can edit any of the files specified by the
btl_openib_device_param_files MCA parameter to set values for your
device.

NOTE: You can turn off this warning by setting the MCA parameter
      btl_openib_warn_no_device_params_found to 0.
--------------------------------------------------------------------------

     Program PWSCF v.6.3 starts on  9Sep2020 at 17: 4: 1 

     This program is part of the open-source Quantum ESPRESSO suite
     for quantum simulation of materials; please cite
         "P. Giannozzi et al., J. Phys.:Condens. Matter 21 395502 (2009);
         "P. Giannozzi et al., J. Phys.:Condens. Matter 29 465901 (2017);
          URL http://www.quantum-espresso.org", 
     in publications or presentations arising from this work. More details at
     http://www.quantum-espresso.org/quote

     Parallel version (MPI & OpenMP), running on      40 processor cores
     Number of MPI processes:                40
     Threads/MPI process:                     1

     MPI processes distributed on     1 nodes
     R & G space division:  proc/nbgrp/npool/nimage =      40
     Reading input from wd/ec/ec_4_003.in
Warning: card &IONS ignored
Warning: card ION_DYNAMICS = 'BFGS', ignored
Warning: card / ignored
Warning: card &CELL ignored
Warning: card CELL_DYNAMICS = 'BFGS', ignored
Warning: card CELL_FACTOR = 2.0, ignored
Warning: card PRESS = 0.0, ignored
Warning: card / ignored

     Current dimensions of program PWSCF are:
     Max number of different atomic species (ntypx) = 10
     Max number of k-points (npk) =  40000
     Max angular momentum in pseudopotentials (lmaxx) =  3
               file Fe.pbe-spn-kjpaw_psl.1.0.0.UPF: wavefunction(s)  3P 3D renormalized
               file Fe.pbe-spn-kjpaw_psl.1.0.0.UPF: wavefunction(s)  3P 3D renormalized

     Subspace diagonalization in iterative solution of the eigenvalue problem:
     a serial algorithm will be used

     Found symmetry operation: I + (  0.0000  0.0000 -0.5000)
     This is a supercell, fractional translations are disabled
 
     Parallelization info
     --------------------
     sticks:   dense  smooth     PW     G-vecs:    dense   smooth      PW
     Min          95      63     17                 4471     2399     355
     Max          96      64     18                 4477     2404     359
     Sum        3833    2537    717               178977    96057   14323
 


     bravais-lattice index     =            0
     lattice parameter (alat)  =      10.5935  a.u.
     unit-cell volume          =    1188.8329 (a.u.)^3
     number of atoms/cell      =           16
     number of atomic types    =            2
     number of electrons       =       256.00
     number of Kohn-Sham states=          154
     kinetic-energy cutoff     =      71.0000  Ry
     charge density cutoff     =     430.0000  Ry
     convergence threshold     =      1.0E-06
     mixing beta               =       0.1000
     number of iterations used =           10  plain     mixing
     Exchange-correlation      = SLA PW PBX PBC ( 1  4  3  4 0 0)

     celldm(1)=  10.593520  celldm(2)=   0.000000  celldm(3)=   0.000000
     celldm(4)=   0.000000  celldm(5)=   0.000000  celldm(6)=   0.000000

     crystal axes: (cart. coord. in units of alat)
               a(1) = (   1.000001   0.000000   0.000000 )  
               a(2) = (   0.000000   1.000001   0.001667 )  
               a(3) = (   0.000000   0.001667   1.000001 )  

     reciprocal axes: (cart. coord. in units 2 pi/alat)
               b(1) = (  0.999999  0.000000  0.000000 )  
               b(2) = (  0.000000  1.000002 -0.001667 )  
               b(3) = (  0.000000 -0.001667  1.000002 )  


     PseudoPot. # 1 for Fe read from file:
     /rds/homes/b/bxp912/pp/Fe.pbe-spn-kjpaw_psl.1.0.0.UPF
     MD5 check sum: 42f43b795421b414b0dc916aa790dbcb
     Pseudo is Projector augmented-wave + core cor, Zval = 16.0
     Generated using "atomic" code by A. Dal Corso v.6.3
     Shape of augmentation charge: PSQ
     Using radial grid of 1191 points,  6 beta functions with: 
                l(1) =   0
                l(2) =   0
                l(3) =   1
                l(4) =   1
                l(5) =   2
                l(6) =   2
     Q(r) pseudized with 0 coefficients 


     PseudoPot. # 2 for Fe read from file:
     /rds/homes/b/bxp912/pp/Fe.pbe-spn-kjpaw_psl.1.0.0.UPF
     MD5 check sum: 42f43b795421b414b0dc916aa790dbcb
     Pseudo is Projector augmented-wave + core cor, Zval = 16.0
     Generated using "atomic" code by A. Dal Corso v.6.3
     Shape of augmentation charge: PSQ
     Using radial grid of 1191 points,  6 beta functions with: 
                l(1) =   0
                l(2) =   0
                l(3) =   1
                l(4) =   1
                l(5) =   2
                l(6) =   2
     Q(r) pseudized with 0 coefficients 


     atomic species   valence    mass     pseudopotential
        Fe1           16.00    55.84500     Fe( 1.00)
        Fe2           16.00    55.84500     Fe( 1.00)

     Starting magnetic structure 
     atomic species   magnetization
        Fe1          0.100
        Fe2          0.100

      8 Sym. Ops., with inversion, found



   Cartesian axes

     site n.     atom                  positions (alat units)
         1           Fe1 tau(   1) = (   0.0000000   0.0000000   0.0000000  )
         2           Fe2 tau(   2) = (   0.2500007   0.2504173   0.2504173  )
         3           Fe1 tau(   3) = (   0.0000000   0.0008333   0.5000005  )
         4           Fe2 tau(   4) = (   0.2500007   0.2512507   0.7504169  )
         5           Fe1 tau(   5) = (   0.0000000   0.5000005   0.0008333  )
         6           Fe2 tau(   6) = (   0.2500007   0.7504169   0.2512507  )
         7           Fe1 tau(   7) = (   0.0000000   0.5008338   0.5008338  )
         8           Fe2 tau(   8) = (   0.2500007   0.7512503   0.7512503  )
         9           Fe1 tau(   9) = (   0.5000005   0.0000000   0.0000000  )
        10           Fe2 tau(  10) = (   0.7500003   0.2504173   0.2504173  )
        11           Fe1 tau(  11) = (   0.5000005   0.0008333   0.5000005  )
        12           Fe2 tau(  12) = (   0.7500003   0.2512507   0.7504169  )
        13           Fe1 tau(  13) = (   0.5000005   0.5000005   0.0008333  )
        14           Fe2 tau(  14) = (   0.7500003   0.7504169   0.2512507  )
        15           Fe1 tau(  15) = (   0.5000005   0.5008338   0.5008338  )
        16           Fe2 tau(  16) = (   0.7500003   0.7512503   0.7512503  )

     number of k points=   125  Marzari-Vanderbilt smearing, width (Ry)=  0.0400

     Number of k-points >= 100: set verbosity='high' to print them.

     Dense  grid:   178977 G-vectors     FFT dimensions: (  72,  72,  72)

     Smooth grid:    96057 G-vectors     FFT dimensions: (  60,  60,  60)

     Estimated max dynamical RAM per process >     215.38 MB

     Estimated total dynamical RAM >       8.41 GB
     Generating pointlists ...
     new r_m :   0.1784 (alat units)  1.8901 (a.u.) for type    1
     new r_m :   0.1784 (alat units)  1.8901 (a.u.) for type    2

     Check: negative/imaginary core charge=   -0.000006    0.000000

     Initial potential from superposition of free atoms

     starting charge  255.99300, renormalised to  256.00000
     Starting wfcs are  160 randomized atomic wfcs
     Checking if some PAW data can be deallocated... 

     total cpu time spent up to now is       23.5 secs

     Self-consistent Calculation

     iteration #  1     ecut=    71.00 Ry     beta= 0.10
     Davidson diagonalization with overlap
     ethr =  1.00E-02,  avg # of iterations =  3.4

     Threshold (ethr) on eigenvalues was too large:
     Diagonalizing with lowered threshold

     Davidson diagonalization with overlap
     ethr =  2.83E-04,  avg # of iterations =  3.3

     total cpu time spent up to now is      210.5 secs

     total energy              =   -5268.17196544 Ry
     Harris-Foulkes estimate   =   -5268.32079662 Ry
     estimated scf accuracy    <       0.81965969 Ry

     total magnetization       =    28.03 Bohr mag/cell
     absolute magnetization    =    28.39 Bohr mag/cell

     iteration #  2     ecut=    71.00 Ry     beta= 0.10
     Davidson diagonalization with overlap
     ethr =  3.20E-04,  avg # of iterations =  1.0

     total cpu time spent up to now is      265.9 secs

     total energy              =   -5268.05694384 Ry
     Harris-Foulkes estimate   =   -5268.19002999 Ry
     estimated scf accuracy    <       0.48889634 Ry

     total magnetization       =    28.66 Bohr mag/cell
     absolute magnetization    =    28.95 Bohr mag/cell

     iteration #  3     ecut=    71.00 Ry     beta= 0.10
     Davidson diagonalization with overlap
     ethr =  1.91E-04,  avg # of iterations =  2.7

     total cpu time spent up to now is      345.2 secs

     total energy              =   -5268.04142087 Ry
     Harris-Foulkes estimate   =   -5268.10818581 Ry
     estimated scf accuracy    <       0.55185695 Ry

     total magnetization       =    29.46 Bohr mag/cell
     absolute magnetization    =    29.80 Bohr mag/cell

     iteration #  4     ecut=    71.00 Ry     beta= 0.10
     Davidson diagonalization with overlap
     ethr =  1.91E-04,  avg # of iterations =  1.5

     total cpu time spent up to now is      406.4 secs

     total energy              =   -5268.06927665 Ry
     Harris-Foulkes estimate   =   -5268.07187173 Ry
     estimated scf accuracy    <       0.16069968 Ry

     total magnetization       =    30.22 Bohr mag/cell
     absolute magnetization    =    30.58 Bohr mag/cell

     iteration #  5     ecut=    71.00 Ry     beta= 0.10
     Davidson diagonalization with overlap
     ethr =  6.28E-05,  avg # of iterations =  1.5

     total cpu time spent up to now is      467.5 secs

     total energy              =   -5268.08821488 Ry
     Harris-Foulkes estimate   =   -5268.07304251 Ry
     estimated scf accuracy    <       0.11152321 Ry

     total magnetization       =    30.30 Bohr mag/cell
     absolute magnetization    =    30.69 Bohr mag/cell

     iteration #  6     ecut=    71.00 Ry     beta= 0.10
     Davidson diagonalization with overlap
     ethr =  4.36E-05,  avg # of iterations =  3.2

     total cpu time spent up to now is      570.4 secs

     total energy              =   -5268.14611833 Ry
     Harris-Foulkes estimate   =   -5268.12740987 Ry
     estimated scf accuracy    <       0.13927966 Ry

     total magnetization       =    30.92 Bohr mag/cell
     absolute magnetization    =    31.63 Bohr mag/cell

     iteration #  7     ecut=    71.00 Ry     beta= 0.10
     Davidson diagonalization with overlap
     ethr =  4.36E-05,  avg # of iterations =  2.0

     total cpu time spent up to now is      641.2 secs

     total energy              =   -5268.15169706 Ry
     Harris-Foulkes estimate   =   -5268.15366477 Ry
     estimated scf accuracy    <       0.10579967 Ry

     total magnetization       =    31.43 Bohr mag/cell
     absolute magnetization    =    32.33 Bohr mag/cell

     iteration #  8     ecut=    71.00 Ry     beta= 0.10
     Davidson diagonalization with overlap
     ethr =  4.13E-05,  avg # of iterations =  1.0

     negative rho (up, down):  0.000E+00 2.228E-03

     total cpu time spent up to now is      696.4 secs

     total energy              =   -5268.16728627 Ry
     Harris-Foulkes estimate   =   -5268.15273209 Ry
     estimated scf accuracy    <       0.08241877 Ry

     total magnetization       =    31.54 Bohr mag/cell
     absolute magnetization    =    32.50 Bohr mag/cell

     iteration #  9     ecut=    71.00 Ry     beta= 0.10
     Davidson diagonalization with overlap
     ethr =  3.22E-05,  avg # of iterations =  2.7

     negative rho (up, down):  0.000E+00 2.348E-03

     total cpu time spent up to now is      793.4 secs

     total energy              =   -5268.19014402 Ry
     Harris-Foulkes estimate   =   -5268.19265781 Ry
     estimated scf accuracy    <       0.02622061 Ry

     total magnetization       =    32.46 Bohr mag/cell
     absolute magnetization    =    33.94 Bohr mag/cell

     iteration # 10     ecut=    71.00 Ry     beta= 0.10
     Davidson diagonalization with overlap
     ethr =  1.02E-05,  avg # of iterations =  1.2

     negative rho (up, down):  0.000E+00 2.463E-03

     total cpu time spent up to now is      851.4 secs

     total energy              =   -5268.18823152 Ry
     Harris-Foulkes estimate   =   -5268.19062503 Ry
     estimated scf accuracy    <       0.01035674 Ry

     total magnetization       =    32.55 Bohr mag/cell
     absolute magnetization    =    34.08 Bohr mag/cell

     iteration # 11     ecut=    71.00 Ry     beta= 0.10
     Davidson diagonalization with overlap
     ethr =  4.05E-06,  avg # of iterations =  2.4

     negative rho (up, down):  0.000E+00 2.570E-03

     total cpu time spent up to now is      927.7 secs

     total energy              =   -5268.18857250 Ry
     Harris-Foulkes estimate   =   -5268.18878982 Ry
     estimated scf accuracy    <       0.00130017 Ry

     total magnetization       =    32.65 Bohr mag/cell
     absolute magnetization    =    34.28 Bohr mag/cell

     iteration # 12     ecut=    71.00 Ry     beta= 0.10
     Davidson diagonalization with overlap
     ethr =  5.08E-07,  avg # of iterations =  2.3

     negative rho (up, down):  0.000E+00 2.641E-03

     total cpu time spent up to now is      999.3 secs

     total energy              =   -5268.18863953 Ry
     Harris-Foulkes estimate   =   -5268.18864528 Ry
     estimated scf accuracy    <       0.00061148 Ry

     total magnetization       =    32.70 Bohr mag/cell
     absolute magnetization    =    34.36 Bohr mag/cell

     iteration # 13     ecut=    71.00 Ry     beta= 0.10
     Davidson diagonalization with overlap
     ethr =  2.39E-07,  avg # of iterations =  3.0

     negative rho (up, down):  0.000E+00 2.430E-03

     total cpu time spent up to now is     1085.7 secs

     total energy              =   -5268.18904490 Ry
     Harris-Foulkes estimate   =   -5268.18873391 Ry
     estimated scf accuracy    <       0.00089508 Ry

     total magnetization       =    32.76 Bohr mag/cell
     absolute magnetization    =    34.47 Bohr mag/cell

     iteration # 14     ecut=    71.00 Ry     beta= 0.10
     Davidson diagonalization with overlap
     ethr =  2.39E-07,  avg # of iterations =  3.3

     negative rho (up, down):  0.000E+00 2.464E-03

     total cpu time spent up to now is     1189.2 secs

     total energy              =   -5268.18928469 Ry
     Harris-Foulkes estimate   =   -5268.18928425 Ry
     estimated scf accuracy    <       0.00045059 Ry

     total magnetization       =    32.77 Bohr mag/cell
     absolute magnetization    =    34.49 Bohr mag/cell

     iteration # 15     ecut=    71.00 Ry     beta= 0.10
     Davidson diagonalization with overlap
     ethr =  1.76E-07,  avg # of iterations =  1.9

     negative rho (up, down):  0.000E+00 2.391E-03

     total cpu time spent up to now is     1256.6 secs

     total energy              =   -5268.18936170 Ry
     Harris-Foulkes estimate   =   -5268.18931736 Ry
     estimated scf accuracy    <       0.00010263 Ry

     total magnetization       =    32.81 Bohr mag/cell
     absolute magnetization    =    34.55 Bohr mag/cell

     iteration # 16     ecut=    71.00 Ry     beta= 0.10
     Davidson diagonalization with overlap
     ethr =  4.01E-08,  avg # of iterations =  2.9

     negative rho (up, down):  0.000E+00 2.414E-03

     total cpu time spent up to now is     1349.0 secs

     total energy              =   -5268.18939594 Ry
     Harris-Foulkes estimate   =   -5268.18939789 Ry
     estimated scf accuracy    <       0.00008062 Ry

     total magnetization       =    32.84 Bohr mag/cell
     absolute magnetization    =    34.58 Bohr mag/cell

     iteration # 17     ecut=    71.00 Ry     beta= 0.10
     Davidson diagonalization with overlap
     ethr =  3.15E-08,  avg # of iterations =  2.0

     negative rho (up, down):  0.000E+00 2.447E-03

     total cpu time spent up to now is     1420.5 secs

     total energy              =   -5268.18940580 Ry
     Harris-Foulkes estimate   =   -5268.18940370 Ry
     estimated scf accuracy    <       0.00003098 Ry

     total magnetization       =    32.86 Bohr mag/cell
     absolute magnetization    =    34.61 Bohr mag/cell

     iteration # 18     ecut=    71.00 Ry     beta= 0.10
     Davidson diagonalization with overlap
     ethr =  1.21E-08,  avg # of iterations =  2.9

     negative rho (up, down):  0.000E+00 2.429E-03

     total cpu time spent up to now is     1506.8 secs

     total energy              =   -5268.18941510 Ry
     Harris-Foulkes estimate   =   -5268.18941048 Ry
     estimated scf accuracy    <       0.00001518 Ry

     total magnetization       =    32.88 Bohr mag/cell
     absolute magnetization    =    34.64 Bohr mag/cell

     iteration # 19     ecut=    71.00 Ry     beta= 0.10
     Davidson diagonalization with overlap
     ethr =  5.93E-09,  avg # of iterations =  3.3

     negative rho (up, down):  0.000E+00 2.438E-03

     total cpu time spent up to now is     1603.9 secs

     total energy              =   -5268.18941929 Ry
     Harris-Foulkes estimate   =   -5268.18941951 Ry
     estimated scf accuracy    <       0.00001164 Ry

     total magnetization       =    32.89 Bohr mag/cell
     absolute magnetization    =    34.65 Bohr mag/cell

     iteration # 20     ecut=    71.00 Ry     beta= 0.10
     Davidson diagonalization with overlap
     ethr =  4.55E-09,  avg # of iterations =  2.0

     negative rho (up, down):  0.000E+00 2.449E-03

     total cpu time spent up to now is     1676.9 secs

     total energy              =   -5268.18942171 Ry
     Harris-Foulkes estimate   =   -5268.18942034 Ry
     estimated scf accuracy    <       0.00000460 Ry

     total magnetization       =    32.89 Bohr mag/cell
     absolute magnetization    =    34.66 Bohr mag/cell

     iteration # 21     ecut=    71.00 Ry     beta= 0.10
     Davidson diagonalization with overlap
     ethr =  1.80E-09,  avg # of iterations =  1.9

     negative rho (up, down):  0.000E+00 2.464E-03
 
     Magnetic moment per site:
     atom:    1    charge:   14.3598    magn:    2.0988    constr:    0.0000
     atom:    2    charge:   14.3595    magn:    2.1016    constr:    0.0000
     atom:    3    charge:   14.3596    magn:    2.0998    constr:    0.0000
     atom:    4    charge:   14.3596    magn:    2.1015    constr:    0.0000
     atom:    5    charge:   14.3596    magn:    2.0998    constr:    0.0000
     atom:    6    charge:   14.3596    magn:    2.1015    constr:    0.0000
     atom:    7    charge:   14.3596    magn:    2.1003    constr:    0.0000
     atom:    8    charge:   14.3595    magn:    2.1016    constr:    0.0000
     atom:    9    charge:   14.3597    magn:    2.0978    constr:    0.0000
     atom:   10    charge:   14.3595    magn:    2.1016    constr:    0.0000
     atom:   11    charge:   14.3598    magn:    2.0984    constr:    0.0000
     atom:   12    charge:   14.3596    magn:    2.1015    constr:    0.0000
     atom:   13    charge:   14.3598    magn:    2.0984    constr:    0.0000
     atom:   14    charge:   14.3596    magn:    2.1015    constr:    0.0000
     atom:   15    charge:   14.3596    magn:    2.0993    constr:    0.0000
     atom:   16    charge:   14.3595    magn:    2.1016    constr:    0.0000

     total cpu time spent up to now is     1745.2 secs

     End of self-consistent calculation

     Number of k-points >= 100: set verbosity='high' to print the bands.

     the Fermi energy is    18.9743 ev

!    total energy              =   -5268.18942574 Ry
     Harris-Foulkes estimate   =   -5268.18942220 Ry
     estimated scf accuracy    <       0.00000098 Ry

     total all-electron energy =    -40728.933955 Ry

     The total energy is the sum of the following terms:

     one-electron contribution =   -1707.43986756 Ry
     hartree contribution      =    1022.28476220 Ry
     xc contribution           =    -444.26061709 Ry
     ewald contribution        =   -2814.22679325 Ry
     one-center paw contrib.   =   -1324.67106080 Ry
     smearing contrib. (-TS)   =       0.12415076 Ry

     total magnetization       =    32.90 Bohr mag/cell
     absolute magnetization    =    34.66 Bohr mag/cell

     convergence has been achieved in  21 iterations

     negative rho (up, down):  0.000E+00 2.464E-03

     Forces acting on atoms (cartesian axes, Ry/au):

     atom    1 type  1   force =     0.00000000    0.00000000    0.00000000
     atom    2 type  2   force =    -0.00014395    0.00012270    0.00012270
     atom    3 type  1   force =     0.00000000    0.00000000    0.00000000
     atom    4 type  2   force =     0.00006569    0.00013053   -0.00013053
     atom    5 type  1   force =     0.00000000    0.00000000    0.00000000
     atom    6 type  2   force =     0.00006569   -0.00013053    0.00013053
     atom    7 type  1   force =     0.00000000    0.00000000    0.00000000
     atom    8 type  2   force =    -0.00014395   -0.00012270   -0.00012270
     atom    9 type  1   force =     0.00000000    0.00000000    0.00000000
     atom   10 type  2   force =     0.00014395    0.00012270    0.00012270
     atom   11 type  1   force =     0.00000000    0.00000000    0.00000000
     atom   12 type  2   force =    -0.00006569    0.00013053   -0.00013053
     atom   13 type  1   force =     0.00000000    0.00000000    0.00000000
     atom   14 type  2   force =    -0.00006569   -0.00013053    0.00013053
     atom   15 type  1   force =     0.00000000    0.00000000    0.00000000
     atom   16 type  2   force =     0.00014395   -0.00012270   -0.00012270

     Total force =     0.000597     Total SCF correction =     0.006623
     SCF correction compared to forces is large: reduce conv_thr to get better values


     Computing stress (Cartesian axis) and pressure


     negative rho (up, down):  0.000E+00 2.464E-03
          total   stress  (Ry/bohr**3)                   (kbar)     P=   -2.19
  -0.00001501   0.00000000   0.00000000         -2.21      0.00      0.00
   0.00000000  -0.00001480  -0.00003078          0.00     -2.18     -4.53
   0.00000000  -0.00003078  -0.00001480          0.00     -4.53     -2.18


     Writing output data file kXOhfjcaShcypwig.save/
 
     init_run     :     21.16s CPU     22.15s WALL (       1 calls)
     electrons    :   1670.24s CPU   1721.72s WALL (       1 calls)
     forces       :      7.83s CPU      8.51s WALL (       1 calls)
     stress       :     21.62s CPU     21.83s WALL (       1 calls)

     Called by init_run:
     wfcinit      :     20.68s CPU     21.54s WALL (       1 calls)
     potinit      :      0.23s CPU      0.25s WALL (       1 calls)
     hinit0       :      0.15s CPU      0.16s WALL (       1 calls)

     Called by electrons:
     c_bands      :   1512.08s CPU   1555.00s WALL (      22 calls)
     sum_band     :    153.89s CPU    161.81s WALL (      22 calls)
     v_of_rho     :      0.33s CPU      0.34s WALL (      22 calls)
     newd         :      0.67s CPU      0.89s WALL (      22 calls)
     PAW_pot      :      3.23s CPU      3.57s WALL (      22 calls)
     mix_rho      :      0.12s CPU      0.13s WALL (      22 calls)

     Called by c_bands:
     init_us_2    :      8.01s CPU      8.10s WALL (   11750 calls)
     cegterg      :   1471.82s CPU   1514.33s WALL (    5500 calls)

     Called by sum_band:
     sum_band:bec :      2.28s CPU      2.31s WALL (    5500 calls)
     addusdens    :      1.21s CPU      1.40s WALL (      22 calls)

     Called by *egterg:
     h_psi        :    610.06s CPU    635.89s WALL (   18630 calls)
     s_psi        :     33.56s CPU     33.78s WALL (   18630 calls)
     g_psi        :      1.38s CPU      1.40s WALL (   12880 calls)
     cdiaghg      :    682.36s CPU    684.51s WALL (   18130 calls)

     Called by h_psi:
     h_psi:pot    :    606.55s CPU    632.35s WALL (   18630 calls)
     h_psi:calbec :     50.25s CPU     58.51s WALL (   18630 calls)
     vloc_psi     :    522.03s CPU    539.28s WALL (   18630 calls)
     add_vuspsi   :     34.11s CPU     34.44s WALL (   18630 calls)

     General routines
     calbec       :     76.59s CPU     89.29s WALL (   25380 calls)
     fft          :      0.36s CPU      0.38s WALL (     592 calls)
     ffts         :      0.04s CPU      0.21s WALL (      88 calls)
     fftw         :    608.64s CPU    628.60s WALL ( 4644164 calls)
     interpolate  :      0.06s CPU      0.13s WALL (      44 calls)
 
     Parallel routines
     fft_scatt_xy :     40.45s CPU     41.67s WALL ( 4644844 calls)
     fft_scatt_yz :    405.44s CPU    419.02s WALL ( 4644844 calls)
 
     PWSCF        : 28m56.04s CPU    30m37.87s WALL

 
   This run was terminated on:  17:34:39   9Sep2020            

=------------------------------------------------------------------------------=
   JOB DONE.
=------------------------------------------------------------------------------=
