--------------------------------------------------------------------------
WARNING: No preset parameters were found for the device that Open MPI
detected:

  Local host:            bear-pg0206u39a
  Device name:           mlx5_0
  Device vendor ID:      0x02c9
  Device vendor part ID: 4123

Default device parameters will be used, which may result in lower
performance.  You can edit any of the files specified by the
btl_openib_device_param_files MCA parameter to set values for your
device.

NOTE: You can turn off this warning by setting the MCA parameter
      btl_openib_warn_no_device_params_found to 0.
--------------------------------------------------------------------------
--------------------------------------------------------------------------
WARNING: There was an error initializing an OpenFabrics device.

  Local host:   bear-pg0206u39a
  Local device: mlx5_0
--------------------------------------------------------------------------

     Program PWSCF v.6.3 starts on  9Sep2020 at 16:31:44 

     This program is part of the open-source Quantum ESPRESSO suite
     for quantum simulation of materials; please cite
         "P. Giannozzi et al., J. Phys.:Condens. Matter 21 395502 (2009);
         "P. Giannozzi et al., J. Phys.:Condens. Matter 29 465901 (2017);
          URL http://www.quantum-espresso.org", 
     in publications or presentations arising from this work. More details at
     http://www.quantum-espresso.org/quote

     Parallel version (MPI & OpenMP), running on      40 processor cores
     Number of MPI processes:                40
     Threads/MPI process:                     1

     MPI processes distributed on     1 nodes
     R & G space division:  proc/nbgrp/npool/nimage =      40
     Reading input from wd/ec/ec_4_002.in
Warning: card &IONS ignored
Warning: card ION_DYNAMICS = 'BFGS', ignored
Warning: card / ignored
Warning: card &CELL ignored
Warning: card CELL_DYNAMICS = 'BFGS', ignored
Warning: card CELL_FACTOR = 2.0, ignored
Warning: card PRESS = 0.0, ignored
Warning: card / ignored

     Current dimensions of program PWSCF are:
     Max number of different atomic species (ntypx) = 10
     Max number of k-points (npk) =  40000
     Max angular momentum in pseudopotentials (lmaxx) =  3
               file Fe.pbe-spn-kjpaw_psl.1.0.0.UPF: wavefunction(s)  3P 3D renormalized
               file Fe.pbe-spn-kjpaw_psl.1.0.0.UPF: wavefunction(s)  3P 3D renormalized

     Subspace diagonalization in iterative solution of the eigenvalue problem:
     a serial algorithm will be used

     Found symmetry operation: I + (  0.0000  0.0000 -0.5000)
     This is a supercell, fractional translations are disabled
 
     Parallelization info
     --------------------
     sticks:   dense  smooth     PW     G-vecs:    dense   smooth      PW
     Min          95      63     17                 4471     2401     356
     Max          96      64     18                 4477     2406     361
     Sum        3833    2537    717               178977    96109   14339
 


     bravais-lattice index     =            0
     lattice parameter (alat)  =      10.5935  a.u.
     unit-cell volume          =    1188.8329 (a.u.)^3
     number of atoms/cell      =           16
     number of atomic types    =            2
     number of electrons       =       256.00
     number of Kohn-Sham states=          154
     kinetic-energy cutoff     =      71.0000  Ry
     charge density cutoff     =     430.0000  Ry
     convergence threshold     =      1.0E-06
     mixing beta               =       0.1000
     number of iterations used =           10  plain     mixing
     Exchange-correlation      = SLA PW PBX PBC ( 1  4  3  4 0 0)

     celldm(1)=  10.593520  celldm(2)=   0.000000  celldm(3)=   0.000000
     celldm(4)=   0.000000  celldm(5)=   0.000000  celldm(6)=   0.000000

     crystal axes: (cart. coord. in units of alat)
               a(1) = (   1.000000   0.000000   0.000000 )  
               a(2) = (   0.000000   1.000000   0.000833 )  
               a(3) = (   0.000000   0.000833   1.000000 )  

     reciprocal axes: (cart. coord. in units 2 pi/alat)
               b(1) = (  1.000000  0.000000  0.000000 )  
               b(2) = (  0.000000  1.000000 -0.000833 )  
               b(3) = (  0.000000 -0.000833  1.000000 )  


     PseudoPot. # 1 for Fe read from file:
     /rds/homes/b/bxp912/pp/Fe.pbe-spn-kjpaw_psl.1.0.0.UPF
     MD5 check sum: 42f43b795421b414b0dc916aa790dbcb
     Pseudo is Projector augmented-wave + core cor, Zval = 16.0
     Generated using "atomic" code by A. Dal Corso v.6.3
     Shape of augmentation charge: PSQ
     Using radial grid of 1191 points,  6 beta functions with: 
                l(1) =   0
                l(2) =   0
                l(3) =   1
                l(4) =   1
                l(5) =   2
                l(6) =   2
     Q(r) pseudized with 0 coefficients 


     PseudoPot. # 2 for Fe read from file:
     /rds/homes/b/bxp912/pp/Fe.pbe-spn-kjpaw_psl.1.0.0.UPF
     MD5 check sum: 42f43b795421b414b0dc916aa790dbcb
     Pseudo is Projector augmented-wave + core cor, Zval = 16.0
     Generated using "atomic" code by A. Dal Corso v.6.3
     Shape of augmentation charge: PSQ
     Using radial grid of 1191 points,  6 beta functions with: 
                l(1) =   0
                l(2) =   0
                l(3) =   1
                l(4) =   1
                l(5) =   2
                l(6) =   2
     Q(r) pseudized with 0 coefficients 


     atomic species   valence    mass     pseudopotential
        Fe1           16.00    55.84500     Fe( 1.00)
        Fe2           16.00    55.84500     Fe( 1.00)

     Starting magnetic structure 
     atomic species   magnetization
        Fe1          0.100
        Fe2          0.100

      8 Sym. Ops., with inversion, found



   Cartesian axes

     site n.     atom                  positions (alat units)
         1           Fe1 tau(   1) = (   0.0000000   0.0000000   0.0000000  )
         2           Fe2 tau(   2) = (   0.2500005   0.2502088   0.2502088  )
         3           Fe1 tau(   3) = (   0.0000000   0.0004167   0.5000001  )
         4           Fe2 tau(   4) = (   0.2500005   0.2506255   0.7502081  )
         5           Fe1 tau(   5) = (   0.0000000   0.5000001   0.0004167  )
         6           Fe2 tau(   6) = (   0.2500005   0.7502081   0.2506255  )
         7           Fe1 tau(   7) = (   0.0000000   0.5004168   0.5004168  )
         8           Fe2 tau(   8) = (   0.2500005   0.7506247   0.7506247  )
         9           Fe1 tau(   9) = (   0.5000001   0.0000000   0.0000000  )
        10           Fe2 tau(  10) = (   0.7499997   0.2502088   0.2502088  )
        11           Fe1 tau(  11) = (   0.5000001   0.0004167   0.5000001  )
        12           Fe2 tau(  12) = (   0.7499997   0.2506255   0.7502081  )
        13           Fe1 tau(  13) = (   0.5000001   0.5000001   0.0004167  )
        14           Fe2 tau(  14) = (   0.7499997   0.7502081   0.2506255  )
        15           Fe1 tau(  15) = (   0.5000001   0.5004168   0.5004168  )
        16           Fe2 tau(  16) = (   0.7499997   0.7506247   0.7506247  )

     number of k points=   125  Marzari-Vanderbilt smearing, width (Ry)=  0.0400

     Number of k-points >= 100: set verbosity='high' to print them.

     Dense  grid:   178977 G-vectors     FFT dimensions: (  72,  72,  72)

     Smooth grid:    96109 G-vectors     FFT dimensions: (  60,  60,  60)

     Estimated max dynamical RAM per process >     215.38 MB

     Estimated total dynamical RAM >       8.41 GB
     Generating pointlists ...
     new r_m :   0.1785 (alat units)  1.8911 (a.u.) for type    1
     new r_m :   0.1785 (alat units)  1.8911 (a.u.) for type    2

     Check: negative/imaginary core charge=   -0.000006    0.000000

     Initial potential from superposition of free atoms

     starting charge  255.99300, renormalised to  256.00000
     Starting wfcs are  160 randomized atomic wfcs
     Checking if some PAW data can be deallocated... 

     total cpu time spent up to now is       25.6 secs

     Self-consistent Calculation

     iteration #  1     ecut=    71.00 Ry     beta= 0.10
     Davidson diagonalization with overlap
     ethr =  1.00E-02,  avg # of iterations =  3.4

     Threshold (ethr) on eigenvalues was too large:
     Diagonalizing with lowered threshold

     Davidson diagonalization with overlap
     ethr =  2.83E-04,  avg # of iterations =  3.4

     total cpu time spent up to now is      212.5 secs

     total energy              =   -5268.17200511 Ry
     Harris-Foulkes estimate   =   -5268.32087389 Ry
     estimated scf accuracy    <       0.81991219 Ry

     total magnetization       =    28.03 Bohr mag/cell
     absolute magnetization    =    28.39 Bohr mag/cell

     iteration #  2     ecut=    71.00 Ry     beta= 0.10
     Davidson diagonalization with overlap
     ethr =  3.20E-04,  avg # of iterations =  1.0

     total cpu time spent up to now is      268.0 secs

     total energy              =   -5268.05692354 Ry
     Harris-Foulkes estimate   =   -5268.19006096 Ry
     estimated scf accuracy    <       0.48900287 Ry

     total magnetization       =    28.66 Bohr mag/cell
     absolute magnetization    =    28.95 Bohr mag/cell

     iteration #  3     ecut=    71.00 Ry     beta= 0.10
     Davidson diagonalization with overlap
     ethr =  1.91E-04,  avg # of iterations =  2.7

     total cpu time spent up to now is      347.4 secs

     total energy              =   -5268.04147895 Ry
     Harris-Foulkes estimate   =   -5268.10822221 Ry
     estimated scf accuracy    <       0.55221153 Ry

     total magnetization       =    29.46 Bohr mag/cell
     absolute magnetization    =    29.80 Bohr mag/cell

     iteration #  4     ecut=    71.00 Ry     beta= 0.10
     Davidson diagonalization with overlap
     ethr =  1.91E-04,  avg # of iterations =  1.5

     total cpu time spent up to now is      408.7 secs

     total energy              =   -5268.06933168 Ry
     Harris-Foulkes estimate   =   -5268.07193012 Ry
     estimated scf accuracy    <       0.16073537 Ry

     total magnetization       =    30.22 Bohr mag/cell
     absolute magnetization    =    30.58 Bohr mag/cell

     iteration #  5     ecut=    71.00 Ry     beta= 0.10
     Davidson diagonalization with overlap
     ethr =  6.28E-05,  avg # of iterations =  1.6

     total cpu time spent up to now is      470.6 secs

     total energy              =   -5268.08827854 Ry
     Harris-Foulkes estimate   =   -5268.07310221 Ry
     estimated scf accuracy    <       0.11153549 Ry

     total magnetization       =    30.30 Bohr mag/cell
     absolute magnetization    =    30.69 Bohr mag/cell

     iteration #  6     ecut=    71.00 Ry     beta= 0.10
     Davidson diagonalization with overlap
     ethr =  4.36E-05,  avg # of iterations =  3.3

     total cpu time spent up to now is      575.3 secs

     total energy              =   -5268.14617149 Ry
     Harris-Foulkes estimate   =   -5268.12760449 Ry
     estimated scf accuracy    <       0.13966980 Ry

     total magnetization       =    30.92 Bohr mag/cell
     absolute magnetization    =    31.63 Bohr mag/cell

     iteration #  7     ecut=    71.00 Ry     beta= 0.10
     Davidson diagonalization with overlap
     ethr =  4.36E-05,  avg # of iterations =  2.0

     total cpu time spent up to now is      645.9 secs

     total energy              =   -5268.15174324 Ry
     Harris-Foulkes estimate   =   -5268.15368593 Ry
     estimated scf accuracy    <       0.10591984 Ry

     total magnetization       =    31.42 Bohr mag/cell
     absolute magnetization    =    32.33 Bohr mag/cell

     iteration #  8     ecut=    71.00 Ry     beta= 0.10
     Davidson diagonalization with overlap
     ethr =  4.14E-05,  avg # of iterations =  1.0

     negative rho (up, down):  0.000E+00 2.235E-03

     total cpu time spent up to now is      701.6 secs

     total energy              =   -5268.16725657 Ry
     Harris-Foulkes estimate   =   -5268.15277957 Ry
     estimated scf accuracy    <       0.08253776 Ry

     total magnetization       =    31.54 Bohr mag/cell
     absolute magnetization    =    32.50 Bohr mag/cell

     iteration #  9     ecut=    71.00 Ry     beta= 0.10
     Davidson diagonalization with overlap
     ethr =  3.22E-05,  avg # of iterations =  2.7

     negative rho (up, down):  0.000E+00 2.353E-03

     total cpu time spent up to now is      795.9 secs

     total energy              =   -5268.19000225 Ry
     Harris-Foulkes estimate   =   -5268.19274366 Ry
     estimated scf accuracy    <       0.02615019 Ry

     total magnetization       =    32.46 Bohr mag/cell
     absolute magnetization    =    33.94 Bohr mag/cell

     iteration # 10     ecut=    71.00 Ry     beta= 0.10
     Davidson diagonalization with overlap
     ethr =  1.02E-05,  avg # of iterations =  1.3

     negative rho (up, down):  0.000E+00 2.467E-03

     total cpu time spent up to now is      855.4 secs

     total energy              =   -5268.18829964 Ry
     Harris-Foulkes estimate   =   -5268.19051603 Ry
     estimated scf accuracy    <       0.00963028 Ry

     total magnetization       =    32.55 Bohr mag/cell
     absolute magnetization    =    34.08 Bohr mag/cell

     iteration # 11     ecut=    71.00 Ry     beta= 0.10
     Davidson diagonalization with overlap
     ethr =  3.76E-06,  avg # of iterations =  2.4

     negative rho (up, down):  0.000E+00 2.577E-03

     total cpu time spent up to now is      934.2 secs

     total energy              =   -5268.18862368 Ry
     Harris-Foulkes estimate   =   -5268.18882856 Ry
     estimated scf accuracy    <       0.00127499 Ry

     total magnetization       =    32.65 Bohr mag/cell
     absolute magnetization    =    34.28 Bohr mag/cell

     iteration # 12     ecut=    71.00 Ry     beta= 0.10
     Davidson diagonalization with overlap
     ethr =  4.98E-07,  avg # of iterations =  2.3

     negative rho (up, down):  0.000E+00 2.642E-03

     total cpu time spent up to now is     1005.5 secs

     total energy              =   -5268.18870170 Ry
     Harris-Foulkes estimate   =   -5268.18869689 Ry
     estimated scf accuracy    <       0.00060353 Ry

     total magnetization       =    32.71 Bohr mag/cell
     absolute magnetization    =    34.36 Bohr mag/cell

     iteration # 13     ecut=    71.00 Ry     beta= 0.10
     Davidson diagonalization with overlap
     ethr =  2.36E-07,  avg # of iterations =  2.9

     negative rho (up, down):  0.000E+00 2.431E-03

     total cpu time spent up to now is     1091.0 secs

     total energy              =   -5268.18908597 Ry
     Harris-Foulkes estimate   =   -5268.18879209 Ry
     estimated scf accuracy    <       0.00089490 Ry

     total magnetization       =    32.76 Bohr mag/cell
     absolute magnetization    =    34.47 Bohr mag/cell

     iteration # 14     ecut=    71.00 Ry     beta= 0.10
     Davidson diagonalization with overlap
     ethr =  2.36E-07,  avg # of iterations =  3.3

     negative rho (up, down):  0.000E+00 2.468E-03

     total cpu time spent up to now is     1193.4 secs

     total energy              =   -5268.18932874 Ry
     Harris-Foulkes estimate   =   -5268.18932642 Ry
     estimated scf accuracy    <       0.00045261 Ry

     total magnetization       =    32.77 Bohr mag/cell
     absolute magnetization    =    34.49 Bohr mag/cell

     iteration # 15     ecut=    71.00 Ry     beta= 0.10
     Davidson diagonalization with overlap
     ethr =  1.77E-07,  avg # of iterations =  1.9

     negative rho (up, down):  0.000E+00 2.396E-03

     total cpu time spent up to now is     1262.2 secs

     total energy              =   -5268.18940785 Ry
     Harris-Foulkes estimate   =   -5268.18936250 Ry
     estimated scf accuracy    <       0.00010248 Ry

     total magnetization       =    32.81 Bohr mag/cell
     absolute magnetization    =    34.55 Bohr mag/cell

     iteration # 16     ecut=    71.00 Ry     beta= 0.10
     Davidson diagonalization with overlap
     ethr =  4.00E-08,  avg # of iterations =  2.7

     negative rho (up, down):  0.000E+00 2.413E-03

     total cpu time spent up to now is     1352.5 secs

     total energy              =   -5268.18944070 Ry
     Harris-Foulkes estimate   =   -5268.18944165 Ry
     estimated scf accuracy    <       0.00007838 Ry

     total magnetization       =    32.83 Bohr mag/cell
     absolute magnetization    =    34.58 Bohr mag/cell

     iteration # 17     ecut=    71.00 Ry     beta= 0.10
     Davidson diagonalization with overlap
     ethr =  3.06E-08,  avg # of iterations =  2.0

     negative rho (up, down):  0.000E+00 2.445E-03

     total cpu time spent up to now is     1423.3 secs

     total energy              =   -5268.18945208 Ry
     Harris-Foulkes estimate   =   -5268.18944826 Ry
     estimated scf accuracy    <       0.00003391 Ry

     total magnetization       =    32.85 Bohr mag/cell
     absolute magnetization    =    34.60 Bohr mag/cell

     iteration # 18     ecut=    71.00 Ry     beta= 0.10
     Davidson diagonalization with overlap
     ethr =  1.32E-08,  avg # of iterations =  2.8

     negative rho (up, down):  0.000E+00 2.449E-03

     total cpu time spent up to now is     1508.6 secs

     total energy              =   -5268.18946152 Ry
     Harris-Foulkes estimate   =   -5268.18945753 Ry
     estimated scf accuracy    <       0.00001534 Ry

     total magnetization       =    32.87 Bohr mag/cell
     absolute magnetization    =    34.64 Bohr mag/cell

     iteration # 19     ecut=    71.00 Ry     beta= 0.10
     Davidson diagonalization with overlap
     ethr =  5.99E-09,  avg # of iterations =  1.7

     negative rho (up, down):  0.000E+00 2.452E-03

     total cpu time spent up to now is     1571.7 secs

     total energy              =   -5268.18946481 Ry
     Harris-Foulkes estimate   =   -5268.18946275 Ry
     estimated scf accuracy    <       0.00000866 Ry

     total magnetization       =    32.88 Bohr mag/cell
     absolute magnetization    =    34.65 Bohr mag/cell

     iteration # 20     ecut=    71.00 Ry     beta= 0.10
     Davidson diagonalization with overlap
     ethr =  3.38E-09,  avg # of iterations =  1.9

     negative rho (up, down):  0.000E+00 2.457E-03

     total cpu time spent up to now is     1638.7 secs

     total energy              =   -5268.18946746 Ry
     Harris-Foulkes estimate   =   -5268.18946565 Ry
     estimated scf accuracy    <       0.00000596 Ry

     total magnetization       =    32.89 Bohr mag/cell
     absolute magnetization    =    34.66 Bohr mag/cell

     iteration # 21     ecut=    71.00 Ry     beta= 0.10
     Davidson diagonalization with overlap
     ethr =  2.33E-09,  avg # of iterations =  2.4

     negative rho (up, down):  0.000E+00 2.454E-03

     total cpu time spent up to now is     1712.4 secs

     total energy              =   -5268.18946909 Ry
     Harris-Foulkes estimate   =   -5268.18946828 Ry
     estimated scf accuracy    <       0.00000134 Ry

     total magnetization       =    32.90 Bohr mag/cell
     absolute magnetization    =    34.66 Bohr mag/cell

     iteration # 22     ecut=    71.00 Ry     beta= 0.10
     Davidson diagonalization with overlap
     ethr =  5.24E-10,  avg # of iterations =  2.2

     negative rho (up, down):  0.000E+00 2.456E-03

     total cpu time spent up to now is     1783.6 secs

     total energy              =   -5268.18946990 Ry
     Harris-Foulkes estimate   =   -5268.18946918 Ry
     estimated scf accuracy    <       0.00000112 Ry

     total magnetization       =    32.90 Bohr mag/cell
     absolute magnetization    =    34.66 Bohr mag/cell

     iteration # 23     ecut=    71.00 Ry     beta= 0.10
     Davidson diagonalization with overlap
     ethr =  4.36E-10,  avg # of iterations =  1.0

     negative rho (up, down):  0.000E+00 2.466E-03
 
     Magnetic moment per site:
     atom:    1    charge:   14.3632    magn:    2.0989    constr:    0.0000
     atom:    2    charge:   14.3630    magn:    2.1016    constr:    0.0000
     atom:    3    charge:   14.3631    magn:    2.0999    constr:    0.0000
     atom:    4    charge:   14.3630    magn:    2.1015    constr:    0.0000
     atom:    5    charge:   14.3631    magn:    2.0999    constr:    0.0000
     atom:    6    charge:   14.3630    magn:    2.1015    constr:    0.0000
     atom:    7    charge:   14.3630    magn:    2.1004    constr:    0.0000
     atom:    8    charge:   14.3630    magn:    2.1016    constr:    0.0000
     atom:    9    charge:   14.3631    magn:    2.0980    constr:    0.0000
     atom:   10    charge:   14.3630    magn:    2.1016    constr:    0.0000
     atom:   11    charge:   14.3630    magn:    2.0986    constr:    0.0000
     atom:   12    charge:   14.3630    magn:    2.1015    constr:    0.0000
     atom:   13    charge:   14.3630    magn:    2.0986    constr:    0.0000
     atom:   14    charge:   14.3630    magn:    2.1015    constr:    0.0000
     atom:   15    charge:   14.3627    magn:    2.0995    constr:    0.0000
     atom:   16    charge:   14.3630    magn:    2.1016    constr:    0.0000

     total cpu time spent up to now is     1843.1 secs

     End of self-consistent calculation

     Number of k-points >= 100: set verbosity='high' to print the bands.

     the Fermi energy is    18.9743 ev

!    total energy              =   -5268.18947236 Ry
     Harris-Foulkes estimate   =   -5268.18946993 Ry
     estimated scf accuracy    <       0.00000096 Ry

     total all-electron energy =    -40728.934001 Ry

     The total energy is the sum of the following terms:

     one-electron contribution =   -1707.43283628 Ry
     hartree contribution      =    1022.27949943 Ry
     xc contribution           =    -444.26005226 Ry
     ewald contribution        =   -2814.22918537 Ry
     one-center paw contrib.   =   -1324.67105908 Ry
     smearing contrib. (-TS)   =       0.12416120 Ry

     total magnetization       =    32.90 Bohr mag/cell
     absolute magnetization    =    34.66 Bohr mag/cell

     convergence has been achieved in  23 iterations

     negative rho (up, down):  0.000E+00 2.466E-03

     Forces acting on atoms (cartesian axes, Ry/au):

     atom    1 type  1   force =     0.00000000    0.00000000    0.00000000
     atom    2 type  2   force =    -0.00008761    0.00012360    0.00012360
     atom    3 type  1   force =     0.00000000    0.00000000    0.00000000
     atom    4 type  2   force =     0.00005843    0.00013257   -0.00013257
     atom    5 type  1   force =     0.00000000    0.00000000    0.00000000
     atom    6 type  2   force =     0.00005843   -0.00013257    0.00013257
     atom    7 type  1   force =     0.00000000    0.00000000    0.00000000
     atom    8 type  2   force =    -0.00008761   -0.00012360   -0.00012360
     atom    9 type  1   force =     0.00000000    0.00000000    0.00000000
     atom   10 type  2   force =     0.00008761    0.00012360    0.00012360
     atom   11 type  1   force =     0.00000000    0.00000000    0.00000000
     atom   12 type  2   force =    -0.00005843    0.00013257   -0.00013257
     atom   13 type  1   force =     0.00000000    0.00000000    0.00000000
     atom   14 type  2   force =    -0.00005843   -0.00013257    0.00013257
     atom   15 type  1   force =     0.00000000    0.00000000    0.00000000
     atom   16 type  2   force =     0.00008761   -0.00012360   -0.00012360

     Total force =     0.000554     Total SCF correction =     0.003194
     SCF correction compared to forces is large: reduce conv_thr to get better values


     Computing stress (Cartesian axis) and pressure


     negative rho (up, down):  0.000E+00 2.466E-03
          total   stress  (Ry/bohr**3)                   (kbar)     P=   -2.63
  -0.00001801   0.00000000   0.00000000         -2.65      0.00      0.00
   0.00000000  -0.00001777  -0.00001535          0.00     -2.61     -2.26
   0.00000000  -0.00001535  -0.00001777          0.00     -2.26     -2.61


     Writing output data file OfSWhonqiVQErAvz.save/
 
     init_run     :     23.30s CPU     24.27s WALL (       1 calls)
     electrons    :   1762.56s CPU   1817.55s WALL (       1 calls)
     forces       :      7.67s CPU      8.39s WALL (       1 calls)
     stress       :     21.54s CPU     21.79s WALL (       1 calls)

     Called by init_run:
     wfcinit      :     22.78s CPU     23.65s WALL (       1 calls)
     potinit      :      0.26s CPU      0.28s WALL (       1 calls)
     hinit0       :      0.16s CPU      0.19s WALL (       1 calls)

     Called by electrons:
     c_bands      :   1591.15s CPU   1637.08s WALL (      24 calls)
     sum_band     :    166.55s CPU    175.12s WALL (      24 calls)
     v_of_rho     :      0.36s CPU      0.37s WALL (      24 calls)
     newd         :      0.78s CPU      0.96s WALL (      24 calls)
     PAW_pot      :      3.67s CPU      3.88s WALL (      24 calls)
     mix_rho      :      0.14s CPU      0.15s WALL (      24 calls)

     Called by c_bands:
     init_us_2    :      9.08s CPU      9.18s WALL (   12750 calls)
     cegterg      :   1547.29s CPU   1592.78s WALL (    6000 calls)

     Called by sum_band:
     sum_band:bec :      2.49s CPU      2.55s WALL (    6000 calls)
     addusdens    :      1.14s CPU      1.33s WALL (      24 calls)

     Called by *egterg:
     h_psi        :    661.22s CPU    689.09s WALL (   19596 calls)
     s_psi        :     36.00s CPU     36.25s WALL (   19596 calls)
     g_psi        :      1.48s CPU      1.50s WALL (   13346 calls)
     cdiaghg      :    696.09s CPU    698.53s WALL (   19096 calls)

     Called by h_psi:
     h_psi:pot    :    657.53s CPU    685.35s WALL (   19596 calls)
     h_psi:calbec :     55.06s CPU     63.65s WALL (   19596 calls)
     vloc_psi     :    566.31s CPU    585.33s WALL (   19596 calls)
     add_vuspsi   :     36.01s CPU     36.25s WALL (   19596 calls)

     General routines
     calbec       :     82.99s CPU     96.34s WALL (   26846 calls)
     fft          :      0.40s CPU      0.43s WALL (     642 calls)
     ffts         :      0.05s CPU      0.22s WALL (      96 calls)
     fftw         :    659.62s CPU    681.60s WALL ( 4992970 calls)
     interpolate  :      0.07s CPU      0.14s WALL (      48 calls)
 
     Parallel routines
     fft_scatt_xy :     43.72s CPU     45.02s WALL ( 4993708 calls)
     fft_scatt_yz :    438.56s CPU    453.52s WALL ( 4993708 calls)
 
     PWSCF        : 30m30.31s CPU    32m15.96s WALL

 
   This run was terminated on:  17: 3:59   9Sep2020            

=------------------------------------------------------------------------------=
   JOB DONE.
=------------------------------------------------------------------------------=
