--------------------------------------------------------------------------
WARNING: No preset parameters were found for the device that Open MPI
detected:

  Local host:            bear-pg0206u39a
  Device name:           mlx5_0
  Device vendor ID:      0x02c9
  Device vendor part ID: 4123

Default device parameters will be used, which may result in lower
performance.  You can edit any of the files specified by the
btl_openib_device_param_files MCA parameter to set values for your
device.

NOTE: You can turn off this warning by setting the MCA parameter
      btl_openib_warn_no_device_params_found to 0.
--------------------------------------------------------------------------
--------------------------------------------------------------------------
WARNING: There was an error initializing an OpenFabrics device.

  Local host:   bear-pg0206u39a
  Local device: mlx5_0
--------------------------------------------------------------------------

     Program PWSCF v.6.3 starts on  9Sep2020 at 19:44:45 

     This program is part of the open-source Quantum ESPRESSO suite
     for quantum simulation of materials; please cite
         "P. Giannozzi et al., J. Phys.:Condens. Matter 21 395502 (2009);
         "P. Giannozzi et al., J. Phys.:Condens. Matter 29 465901 (2017);
          URL http://www.quantum-espresso.org", 
     in publications or presentations arising from this work. More details at
     http://www.quantum-espresso.org/quote

     Parallel version (MPI & OpenMP), running on      40 processor cores
     Number of MPI processes:                40
     Threads/MPI process:                     1

     MPI processes distributed on     1 nodes
     R & G space division:  proc/nbgrp/npool/nimage =      40
     Reading input from wd/ec/ec_5_002.in
Warning: card &IONS ignored
Warning: card ION_DYNAMICS = 'BFGS', ignored
Warning: card / ignored
Warning: card &CELL ignored
Warning: card CELL_DYNAMICS = 'BFGS', ignored
Warning: card CELL_FACTOR = 2.0, ignored
Warning: card PRESS = 0.0, ignored
Warning: card / ignored

     Current dimensions of program PWSCF are:
     Max number of different atomic species (ntypx) = 10
     Max number of k-points (npk) =  40000
     Max angular momentum in pseudopotentials (lmaxx) =  3
               file Fe.pbe-spn-kjpaw_psl.1.0.0.UPF: wavefunction(s)  3P 3D renormalized
               file Fe.pbe-spn-kjpaw_psl.1.0.0.UPF: wavefunction(s)  3P 3D renormalized

     Subspace diagonalization in iterative solution of the eigenvalue problem:
     a serial algorithm will be used

     Found symmetry operation: I + (  0.0000  0.0000 -0.5000)
     This is a supercell, fractional translations are disabled
 
     Parallelization info
     --------------------
     sticks:   dense  smooth     PW     G-vecs:    dense   smooth      PW
     Min          95      63     17                 4471     2401     356
     Max          96      64     18                 4477     2405     361
     Sum        3833    2537    717               178977    96109   14339
 


     bravais-lattice index     =            0
     lattice parameter (alat)  =      10.5935  a.u.
     unit-cell volume          =    1188.8329 (a.u.)^3
     number of atoms/cell      =           16
     number of atomic types    =            2
     number of electrons       =       256.00
     number of Kohn-Sham states=          154
     kinetic-energy cutoff     =      71.0000  Ry
     charge density cutoff     =     430.0000  Ry
     convergence threshold     =      1.0E-06
     mixing beta               =       0.1000
     number of iterations used =           10  plain     mixing
     Exchange-correlation      = SLA PW PBX PBC ( 1  4  3  4 0 0)

     celldm(1)=  10.593520  celldm(2)=   0.000000  celldm(3)=   0.000000
     celldm(4)=   0.000000  celldm(5)=   0.000000  celldm(6)=   0.000000

     crystal axes: (cart. coord. in units of alat)
               a(1) = (   1.000000   0.000000   0.000833 )  
               a(2) = (   0.000000   1.000000   0.000000 )  
               a(3) = (   0.000833   0.000000   1.000000 )  

     reciprocal axes: (cart. coord. in units 2 pi/alat)
               b(1) = (  1.000000  0.000000 -0.000833 )  
               b(2) = (  0.000000  1.000000  0.000000 )  
               b(3) = ( -0.000833  0.000000  1.000000 )  


     PseudoPot. # 1 for Fe read from file:
     /rds/homes/b/bxp912/pp/Fe.pbe-spn-kjpaw_psl.1.0.0.UPF
     MD5 check sum: 42f43b795421b414b0dc916aa790dbcb
     Pseudo is Projector augmented-wave + core cor, Zval = 16.0
     Generated using "atomic" code by A. Dal Corso v.6.3
     Shape of augmentation charge: PSQ
     Using radial grid of 1191 points,  6 beta functions with: 
                l(1) =   0
                l(2) =   0
                l(3) =   1
                l(4) =   1
                l(5) =   2
                l(6) =   2
     Q(r) pseudized with 0 coefficients 


     PseudoPot. # 2 for Fe read from file:
     /rds/homes/b/bxp912/pp/Fe.pbe-spn-kjpaw_psl.1.0.0.UPF
     MD5 check sum: 42f43b795421b414b0dc916aa790dbcb
     Pseudo is Projector augmented-wave + core cor, Zval = 16.0
     Generated using "atomic" code by A. Dal Corso v.6.3
     Shape of augmentation charge: PSQ
     Using radial grid of 1191 points,  6 beta functions with: 
                l(1) =   0
                l(2) =   0
                l(3) =   1
                l(4) =   1
                l(5) =   2
                l(6) =   2
     Q(r) pseudized with 0 coefficients 


     atomic species   valence    mass     pseudopotential
        Fe1           16.00    55.84500     Fe( 1.00)
        Fe2           16.00    55.84500     Fe( 1.00)

     Starting magnetic structure 
     atomic species   magnetization
        Fe1          0.100
        Fe2          0.100

      8 Sym. Ops., with inversion, found



   Cartesian axes

     site n.     atom                  positions (alat units)
         1           Fe1 tau(   1) = (   0.0000000   0.0000000   0.0000000  )
         2           Fe2 tau(   2) = (   0.2502088   0.2500005   0.2502088  )
         3           Fe1 tau(   3) = (   0.0004167   0.0000000   0.5000001  )
         4           Fe2 tau(   4) = (   0.2506255   0.2500005   0.7502081  )
         5           Fe1 tau(   5) = (   0.0000000   0.5000001   0.0000000  )
         6           Fe2 tau(   6) = (   0.2502088   0.7499997   0.2502088  )
         7           Fe1 tau(   7) = (   0.0004167   0.5000001   0.5000001  )
         8           Fe2 tau(   8) = (   0.2506255   0.7499997   0.7502081  )
         9           Fe1 tau(   9) = (   0.5000001   0.0000000   0.0004167  )
        10           Fe2 tau(  10) = (   0.7502081   0.2500005   0.2506255  )
        11           Fe1 tau(  11) = (   0.5004168   0.0000000   0.5004168  )
        12           Fe2 tau(  12) = (   0.7506247   0.2500005   0.7506247  )
        13           Fe1 tau(  13) = (   0.5000001   0.5000001   0.0004167  )
        14           Fe2 tau(  14) = (   0.7502081   0.7499997   0.2506255  )
        15           Fe1 tau(  15) = (   0.5004168   0.5000001   0.5004168  )
        16           Fe2 tau(  16) = (   0.7506247   0.7499997   0.7506247  )

     number of k points=   125  Marzari-Vanderbilt smearing, width (Ry)=  0.0400

     Number of k-points >= 100: set verbosity='high' to print them.

     Dense  grid:   178977 G-vectors     FFT dimensions: (  72,  72,  72)

     Smooth grid:    96109 G-vectors     FFT dimensions: (  60,  60,  60)

     Estimated max dynamical RAM per process >     215.38 MB

     Estimated total dynamical RAM >       8.41 GB
     Generating pointlists ...
     new r_m :   0.1785 (alat units)  1.8911 (a.u.) for type    1
     new r_m :   0.1785 (alat units)  1.8911 (a.u.) for type    2

     Check: negative/imaginary core charge=   -0.000006    0.000000

     Initial potential from superposition of free atoms

     starting charge  255.99300, renormalised to  256.00000
     Starting wfcs are  160 randomized atomic wfcs
     Checking if some PAW data can be deallocated... 

     total cpu time spent up to now is       23.5 secs

     Self-consistent Calculation

     iteration #  1     ecut=    71.00 Ry     beta= 0.10
     Davidson diagonalization with overlap
     ethr =  1.00E-02,  avg # of iterations =  3.4

     Threshold (ethr) on eigenvalues was too large:
     Diagonalizing with lowered threshold

     Davidson diagonalization with overlap
     ethr =  2.25E-04,  avg # of iterations =  3.6

     total cpu time spent up to now is      217.2 secs

     total energy              =   -5268.06219234 Ry
     Harris-Foulkes estimate   =   -5268.15194775 Ry
     estimated scf accuracy    <       0.65883113 Ry

     total magnetization       =    28.16 Bohr mag/cell
     absolute magnetization    =    28.30 Bohr mag/cell

     iteration #  2     ecut=    71.00 Ry     beta= 0.10
     Davidson diagonalization with overlap
     ethr =  2.57E-04,  avg # of iterations =  1.0

     total cpu time spent up to now is      273.2 secs

     total energy              =   -5268.00531201 Ry
     Harris-Foulkes estimate   =   -5268.07618214 Ry
     estimated scf accuracy    <       0.39590140 Ry

     total magnetization       =    28.76 Bohr mag/cell
     absolute magnetization    =    28.92 Bohr mag/cell

     iteration #  3     ecut=    71.00 Ry     beta= 0.10
     Davidson diagonalization with overlap
     ethr =  1.55E-04,  avg # of iterations =  2.7

     total cpu time spent up to now is      353.9 secs

     total energy              =   -5268.02673162 Ry
     Harris-Foulkes estimate   =   -5268.05149207 Ry
     estimated scf accuracy    <       0.53080792 Ry

     total magnetization       =    29.55 Bohr mag/cell
     absolute magnetization    =    29.84 Bohr mag/cell

     iteration #  4     ecut=    71.00 Ry     beta= 0.10
     Davidson diagonalization with overlap
     ethr =  1.55E-04,  avg # of iterations =  1.2

     total cpu time spent up to now is      412.2 secs

     total energy              =   -5268.05231673 Ry
     Harris-Foulkes estimate   =   -5268.05065002 Ry
     estimated scf accuracy    <       0.13910604 Ry

     total magnetization       =    30.21 Bohr mag/cell
     absolute magnetization    =    30.55 Bohr mag/cell

     iteration #  5     ecut=    71.00 Ry     beta= 0.10
     Davidson diagonalization with overlap
     ethr =  5.43E-05,  avg # of iterations =  1.3

     total cpu time spent up to now is      471.1 secs

     total energy              =   -5268.10354499 Ry
     Harris-Foulkes estimate   =   -5268.05495615 Ry
     estimated scf accuracy    <       0.10618461 Ry

     total magnetization       =    30.29 Bohr mag/cell
     absolute magnetization    =    30.65 Bohr mag/cell

     iteration #  6     ecut=    71.00 Ry     beta= 0.10
     Davidson diagonalization with overlap
     ethr =  4.15E-05,  avg # of iterations =  3.3

     negative rho (up, down):  0.000E+00 1.698E-04

     total cpu time spent up to now is      576.7 secs

     total energy              =   -5268.15898234 Ry
     Harris-Foulkes estimate   =   -5268.14349924 Ry
     estimated scf accuracy    <       0.15104946 Ry

     total magnetization       =    30.98 Bohr mag/cell
     absolute magnetization    =    31.71 Bohr mag/cell

     iteration #  7     ecut=    71.00 Ry     beta= 0.10
     Davidson diagonalization with overlap
     ethr =  4.15E-05,  avg # of iterations =  2.6

     negative rho (up, down):  0.000E+00 8.793E-04

     total cpu time spent up to now is      658.9 secs

     total energy              =   -5268.17566679 Ry
     Harris-Foulkes estimate   =   -5268.17176866 Ry
     estimated scf accuracy    <       0.05782149 Ry

     total magnetization       =    31.73 Bohr mag/cell
     absolute magnetization    =    32.80 Bohr mag/cell

     iteration #  8     ecut=    71.00 Ry     beta= 0.10
     Davidson diagonalization with overlap
     ethr =  2.26E-05,  avg # of iterations =  1.1

     negative rho (up, down):  0.000E+00 1.725E-03

     total cpu time spent up to now is      715.5 secs

     total energy              =   -5268.17991845 Ry
     Harris-Foulkes estimate   =   -5268.17768460 Ry
     estimated scf accuracy    <       0.04011651 Ry

     total magnetization       =    31.95 Bohr mag/cell
     absolute magnetization    =    33.11 Bohr mag/cell

     iteration #  9     ecut=    71.00 Ry     beta= 0.10
     Davidson diagonalization with overlap
     ethr =  1.57E-05,  avg # of iterations =  2.1

     negative rho (up, down):  0.000E+00 2.083E-03

     total cpu time spent up to now is      790.6 secs

     total energy              =   -5268.18694782 Ry
     Harris-Foulkes estimate   =   -5268.18473920 Ry
     estimated scf accuracy    <       0.01244570 Ry

     total magnetization       =    32.33 Bohr mag/cell
     absolute magnetization    =    33.74 Bohr mag/cell

     iteration # 10     ecut=    71.00 Ry     beta= 0.10
     Davidson diagonalization with overlap
     ethr =  4.86E-06,  avg # of iterations =  1.7

     negative rho (up, down):  0.000E+00 2.562E-03

     total cpu time spent up to now is      855.8 secs

     total energy              =   -5268.18800387 Ry
     Harris-Foulkes estimate   =   -5268.18748834 Ry
     estimated scf accuracy    <       0.00571804 Ry

     total magnetization       =    32.48 Bohr mag/cell
     absolute magnetization    =    33.95 Bohr mag/cell

     iteration # 11     ecut=    71.00 Ry     beta= 0.10
     Davidson diagonalization with overlap
     ethr =  2.23E-06,  avg # of iterations =  3.3

     negative rho (up, down):  0.000E+00 2.444E-03

     total cpu time spent up to now is      948.2 secs

     total energy              =   -5268.18883124 Ry
     Harris-Foulkes estimate   =   -5268.18879059 Ry
     estimated scf accuracy    <       0.00092284 Ry

     total magnetization       =    32.67 Bohr mag/cell
     absolute magnetization    =    34.31 Bohr mag/cell

     iteration # 12     ecut=    71.00 Ry     beta= 0.10
     Davidson diagonalization with overlap
     ethr =  3.60E-07,  avg # of iterations =  2.1

     negative rho (up, down):  0.000E+00 2.369E-03

     total cpu time spent up to now is     1018.3 secs

     total energy              =   -5268.18907557 Ry
     Harris-Foulkes estimate   =   -5268.18887954 Ry
     estimated scf accuracy    <       0.00065322 Ry

     total magnetization       =    32.68 Bohr mag/cell
     absolute magnetization    =    34.33 Bohr mag/cell

     iteration # 13     ecut=    71.00 Ry     beta= 0.10
     Davidson diagonalization with overlap
     ethr =  2.55E-07,  avg # of iterations =  2.1

     negative rho (up, down):  0.000E+00 2.438E-03

     total cpu time spent up to now is     1094.0 secs

     total energy              =   -5268.18929007 Ry
     Harris-Foulkes estimate   =   -5268.18913762 Ry
     estimated scf accuracy    <       0.00063454 Ry

     total magnetization       =    32.72 Bohr mag/cell
     absolute magnetization    =    34.40 Bohr mag/cell

     iteration # 14     ecut=    71.00 Ry     beta= 0.10
     Davidson diagonalization with overlap
     ethr =  2.48E-07,  avg # of iterations =  2.9

     negative rho (up, down):  0.000E+00 2.428E-03

     total cpu time spent up to now is     1179.4 secs

     total energy              =   -5268.18939146 Ry
     Harris-Foulkes estimate   =   -5268.18939562 Ry
     estimated scf accuracy    <       0.00029457 Ry

     total magnetization       =    32.81 Bohr mag/cell
     absolute magnetization    =    34.55 Bohr mag/cell

     iteration # 15     ecut=    71.00 Ry     beta= 0.10
     Davidson diagonalization with overlap
     ethr =  1.15E-07,  avg # of iterations =  1.3

     negative rho (up, down):  0.000E+00 2.384E-03

     total cpu time spent up to now is     1238.5 secs

     total energy              =   -5268.18942046 Ry
     Harris-Foulkes estimate   =   -5268.18940892 Ry
     estimated scf accuracy    <       0.00007772 Ry

     total magnetization       =    32.83 Bohr mag/cell
     absolute magnetization    =    34.57 Bohr mag/cell

     iteration # 16     ecut=    71.00 Ry     beta= 0.10
     Davidson diagonalization with overlap
     ethr =  3.04E-08,  avg # of iterations =  2.9

     negative rho (up, down):  0.000E+00 2.445E-03

     total cpu time spent up to now is     1318.8 secs

     total energy              =   -5268.18942839 Ry
     Harris-Foulkes estimate   =   -5268.18942659 Ry
     estimated scf accuracy    <       0.00008090 Ry

     total magnetization       =    32.83 Bohr mag/cell
     absolute magnetization    =    34.57 Bohr mag/cell

     iteration # 17     ecut=    71.00 Ry     beta= 0.10
     Davidson diagonalization with overlap
     ethr =  3.04E-08,  avg # of iterations =  3.2

     negative rho (up, down):  0.000E+00 2.422E-03

     total cpu time spent up to now is     1416.6 secs

     total energy              =   -5268.18946467 Ry
     Harris-Foulkes estimate   =   -5268.18946157 Ry
     estimated scf accuracy    <       0.00001548 Ry

     total magnetization       =    32.88 Bohr mag/cell
     absolute magnetization    =    34.65 Bohr mag/cell

     iteration # 18     ecut=    71.00 Ry     beta= 0.10
     Davidson diagonalization with overlap
     ethr =  6.05E-09,  avg # of iterations =  2.4

     negative rho (up, down):  0.000E+00 2.439E-03

     total cpu time spent up to now is     1491.5 secs

     total energy              =   -5268.18946661 Ry
     Harris-Foulkes estimate   =   -5268.18946642 Ry
     estimated scf accuracy    <       0.00000964 Ry

     total magnetization       =    32.88 Bohr mag/cell
     absolute magnetization    =    34.65 Bohr mag/cell

     iteration # 19     ecut=    71.00 Ry     beta= 0.10
     Davidson diagonalization with overlap
     ethr =  3.77E-09,  avg # of iterations =  1.5

     negative rho (up, down):  0.000E+00 2.442E-03

     total cpu time spent up to now is     1553.0 secs

     total energy              =   -5268.18946836 Ry
     Harris-Foulkes estimate   =   -5268.18946728 Ry
     estimated scf accuracy    <       0.00000409 Ry

     total magnetization       =    32.89 Bohr mag/cell
     absolute magnetization    =    34.66 Bohr mag/cell

     iteration # 20     ecut=    71.00 Ry     beta= 0.10
     Davidson diagonalization with overlap
     ethr =  1.60E-09,  avg # of iterations =  1.9

     negative rho (up, down):  0.000E+00 2.456E-03

     total cpu time spent up to now is     1620.1 secs

     total energy              =   -5268.18946930 Ry
     Harris-Foulkes estimate   =   -5268.18946858 Ry
     estimated scf accuracy    <       0.00000268 Ry

     total magnetization       =    32.89 Bohr mag/cell
     absolute magnetization    =    34.66 Bohr mag/cell

     iteration # 21     ecut=    71.00 Ry     beta= 0.10
     Davidson diagonalization with overlap
     ethr =  1.05E-09,  avg # of iterations =  2.5

     negative rho (up, down):  0.000E+00 2.457E-03

     total cpu time spent up to now is     1698.9 secs

     total energy              =   -5268.18947035 Ry
     Harris-Foulkes estimate   =   -5268.18946962 Ry
     estimated scf accuracy    <       0.00000165 Ry

     total magnetization       =    32.90 Bohr mag/cell
     absolute magnetization    =    34.66 Bohr mag/cell

     iteration # 22     ecut=    71.00 Ry     beta= 0.10
     Davidson diagonalization with overlap
     ethr =  6.44E-10,  avg # of iterations =  1.0

     negative rho (up, down):  0.000E+00 2.457E-03

     total cpu time spent up to now is     1756.0 secs

     total energy              =   -5268.18947133 Ry
     Harris-Foulkes estimate   =   -5268.18947042 Ry
     estimated scf accuracy    <       0.00000123 Ry

     total magnetization       =    32.90 Bohr mag/cell
     absolute magnetization    =    34.67 Bohr mag/cell

     iteration # 23     ecut=    71.00 Ry     beta= 0.10
     Davidson diagonalization with overlap
     ethr =  4.82E-10,  avg # of iterations =  2.2

     negative rho (up, down):  0.000E+00 2.466E-03
 
     Magnetic moment per site:
     atom:    1    charge:   14.3631    magn:    2.0990    constr:    0.0000
     atom:    2    charge:   14.3630    magn:    2.1016    constr:    0.0000
     atom:    3    charge:   14.3632    magn:    2.0987    constr:    0.0000
     atom:    4    charge:   14.3630    magn:    2.1013    constr:    0.0000
     atom:    5    charge:   14.3630    magn:    2.1003    constr:    0.0000
     atom:    6    charge:   14.3630    magn:    2.1016    constr:    0.0000
     atom:    7    charge:   14.3629    magn:    2.0999    constr:    0.0000
     atom:    8    charge:   14.3630    magn:    2.1013    constr:    0.0000
     atom:    9    charge:   14.3632    magn:    2.0987    constr:    0.0000
     atom:   10    charge:   14.3630    magn:    2.1013    constr:    0.0000
     atom:   11    charge:   14.3630    magn:    2.0983    constr:    0.0000
     atom:   12    charge:   14.3630    magn:    2.1016    constr:    0.0000
     atom:   13    charge:   14.3629    magn:    2.0999    constr:    0.0000
     atom:   14    charge:   14.3630    magn:    2.1013    constr:    0.0000
     atom:   15    charge:   14.3630    magn:    2.0995    constr:    0.0000
     atom:   16    charge:   14.3630    magn:    2.1016    constr:    0.0000

     total cpu time spent up to now is     1828.6 secs

     End of self-consistent calculation

     Number of k-points >= 100: set verbosity='high' to print the bands.

     the Fermi energy is    18.9743 ev

!    total energy              =   -5268.18947254 Ry
     Harris-Foulkes estimate   =   -5268.18947143 Ry
     estimated scf accuracy    <       0.00000062 Ry

     total all-electron energy =    -40728.934001 Ry

     The total energy is the sum of the following terms:

     one-electron contribution =   -1707.43037511 Ry
     hartree contribution      =    1022.27664802 Ry
     xc contribution           =    -444.25967152 Ry
     ewald contribution        =   -2814.22918537 Ry
     one-center paw contrib.   =   -1324.67104994 Ry
     smearing contrib. (-TS)   =       0.12416139 Ry

     total magnetization       =    32.90 Bohr mag/cell
     absolute magnetization    =    34.66 Bohr mag/cell

     convergence has been achieved in  23 iterations

     negative rho (up, down):  0.000E+00 2.466E-03

     Forces acting on atoms (cartesian axes, Ry/au):

     atom    1 type  1   force =     0.00000000    0.00000000    0.00000000
     atom    2 type  2   force =     0.00003961    0.00012048    0.00003961
     atom    3 type  1   force =     0.00000000    0.00000000    0.00000000
     atom    4 type  2   force =    -0.00004807    0.00006465    0.00004807
     atom    5 type  1   force =     0.00000000    0.00000000    0.00000000
     atom    6 type  2   force =     0.00003961   -0.00012048    0.00003961
     atom    7 type  1   force =     0.00000000    0.00000000    0.00000000
     atom    8 type  2   force =    -0.00004807   -0.00006465    0.00004807
     atom    9 type  1   force =     0.00000000   -0.00000000    0.00000000
     atom   10 type  2   force =     0.00004807    0.00006465   -0.00004807
     atom   11 type  1   force =     0.00000000    0.00000000    0.00000000
     atom   12 type  2   force =    -0.00003961    0.00012048   -0.00003961
     atom   13 type  1   force =     0.00000000    0.00000000    0.00000000
     atom   14 type  2   force =     0.00004807   -0.00006465   -0.00004807
     atom   15 type  1   force =     0.00000000    0.00000000    0.00000000
     atom   16 type  2   force =    -0.00003961   -0.00012048   -0.00003961

     Total force =     0.000325     Total SCF correction =     0.003797
     SCF correction compared to forces is large: reduce conv_thr to get better values


     Computing stress (Cartesian axis) and pressure


     negative rho (up, down):  0.000E+00 2.466E-03
          total   stress  (Ry/bohr**3)                   (kbar)     P=   -3.06
  -0.00002079   0.00000000  -0.00001560         -3.06      0.00     -2.29
   0.00000000  -0.00002074   0.00000000          0.00     -3.05      0.00
  -0.00001560   0.00000000  -0.00002079         -2.29      0.00     -3.06


     Writing output data file EgUufqgdRSCeNTvD.save/
 
     init_run     :     21.25s CPU     22.19s WALL (       1 calls)
     electrons    :   1751.52s CPU   1805.17s WALL (       1 calls)
     forces       :      7.84s CPU      8.49s WALL (       1 calls)
     stress       :     21.99s CPU     22.22s WALL (       1 calls)

     Called by init_run:
     wfcinit      :     20.76s CPU     21.60s WALL (       1 calls)
     potinit      :      0.23s CPU      0.25s WALL (       1 calls)
     hinit0       :      0.15s CPU      0.16s WALL (       1 calls)

     Called by electrons:
     c_bands      :   1579.29s CPU   1623.77s WALL (      24 calls)
     sum_band     :    167.43s CPU    176.00s WALL (      24 calls)
     v_of_rho     :      0.36s CPU      0.37s WALL (      24 calls)
     newd         :      0.76s CPU      0.97s WALL (      24 calls)
     PAW_pot      :      3.62s CPU      3.92s WALL (      24 calls)
     mix_rho      :      0.13s CPU      0.15s WALL (      24 calls)

     Called by c_bands:
     init_us_2    :      9.00s CPU      9.14s WALL (   12750 calls)
     cegterg      :   1535.44s CPU   1579.33s WALL (    6000 calls)

     Called by sum_band:
     sum_band:bec :      2.43s CPU      2.48s WALL (    6000 calls)
     addusdens    :      1.16s CPU      1.35s WALL (      24 calls)

     Called by *egterg:
     h_psi        :    660.84s CPU    687.74s WALL (   19614 calls)
     s_psi        :     36.22s CPU     36.48s WALL (   19614 calls)
     g_psi        :      1.47s CPU      1.49s WALL (   13364 calls)
     cdiaghg      :    685.53s CPU    687.88s WALL (   19114 calls)

     Called by h_psi:
     h_psi:pot    :    657.13s CPU    683.98s WALL (   19614 calls)
     h_psi:calbec :     54.08s CPU     62.42s WALL (   19614 calls)
     vloc_psi     :    566.57s CPU    584.84s WALL (   19614 calls)
     add_vuspsi   :     36.31s CPU     36.60s WALL (   19614 calls)

     General routines
     calbec       :     82.04s CPU     95.13s WALL (   26864 calls)
     fft          :      0.40s CPU      0.43s WALL (     642 calls)
     ffts         :      0.09s CPU      0.28s WALL (      96 calls)
     fftw         :    660.85s CPU    682.02s WALL ( 4953802 calls)
     interpolate  :      0.08s CPU      0.16s WALL (      48 calls)
 
     Parallel routines
     fft_scatt_xy :     43.21s CPU     44.63s WALL ( 4954540 calls)
     fft_scatt_yz :    444.14s CPU    458.68s WALL ( 4954540 calls)
 
     PWSCF        : 30m17.66s CPU    32m 1.07s WALL

 
   This run was terminated on:  20:16:46   9Sep2020            

=------------------------------------------------------------------------------=
   JOB DONE.
=------------------------------------------------------------------------------=
