--------------------------------------------------------------------------
WARNING: No preset parameters were found for the device that Open MPI
detected:

  Local host:            bear-pg0206u39a
  Device name:           mlx5_0
  Device vendor ID:      0x02c9
  Device vendor part ID: 4123

Default device parameters will be used, which may result in lower
performance.  You can edit any of the files specified by the
btl_openib_device_param_files MCA parameter to set values for your
device.

NOTE: You can turn off this warning by setting the MCA parameter
      btl_openib_warn_no_device_params_found to 0.
--------------------------------------------------------------------------
--------------------------------------------------------------------------
WARNING: There was an error initializing an OpenFabrics device.

  Local host:   bear-pg0206u39a
  Local device: mlx5_0
--------------------------------------------------------------------------

     Program PWSCF v.6.3 starts on  9Sep2020 at 20:16:48 

     This program is part of the open-source Quantum ESPRESSO suite
     for quantum simulation of materials; please cite
         "P. Giannozzi et al., J. Phys.:Condens. Matter 21 395502 (2009);
         "P. Giannozzi et al., J. Phys.:Condens. Matter 29 465901 (2017);
          URL http://www.quantum-espresso.org", 
     in publications or presentations arising from this work. More details at
     http://www.quantum-espresso.org/quote

     Parallel version (MPI & OpenMP), running on      40 processor cores
     Number of MPI processes:                40
     Threads/MPI process:                     1

     MPI processes distributed on     1 nodes
     R & G space division:  proc/nbgrp/npool/nimage =      40
     Reading input from wd/ec/ec_5_003.in
Warning: card &IONS ignored
Warning: card ION_DYNAMICS = 'BFGS', ignored
Warning: card / ignored
Warning: card &CELL ignored
Warning: card CELL_DYNAMICS = 'BFGS', ignored
Warning: card CELL_FACTOR = 2.0, ignored
Warning: card PRESS = 0.0, ignored
Warning: card / ignored

     Current dimensions of program PWSCF are:
     Max number of different atomic species (ntypx) = 10
     Max number of k-points (npk) =  40000
     Max angular momentum in pseudopotentials (lmaxx) =  3
               file Fe.pbe-spn-kjpaw_psl.1.0.0.UPF: wavefunction(s)  3P 3D renormalized
               file Fe.pbe-spn-kjpaw_psl.1.0.0.UPF: wavefunction(s)  3P 3D renormalized

     Subspace diagonalization in iterative solution of the eigenvalue problem:
     a serial algorithm will be used

     Found symmetry operation: I + (  0.0000  0.0000 -0.5000)
     This is a supercell, fractional translations are disabled
 
     Parallelization info
     --------------------
     sticks:   dense  smooth     PW     G-vecs:    dense   smooth      PW
     Min          95      63     17                 4471     2399     355
     Max          96      64     18                 4477     2404     359
     Sum        3833    2537    717               178977    96057   14323
 


     bravais-lattice index     =            0
     lattice parameter (alat)  =      10.5935  a.u.
     unit-cell volume          =    1188.8329 (a.u.)^3
     number of atoms/cell      =           16
     number of atomic types    =            2
     number of electrons       =       256.00
     number of Kohn-Sham states=          154
     kinetic-energy cutoff     =      71.0000  Ry
     charge density cutoff     =     430.0000  Ry
     convergence threshold     =      1.0E-06
     mixing beta               =       0.1000
     number of iterations used =           10  plain     mixing
     Exchange-correlation      = SLA PW PBX PBC ( 1  4  3  4 0 0)

     celldm(1)=  10.593520  celldm(2)=   0.000000  celldm(3)=   0.000000
     celldm(4)=   0.000000  celldm(5)=   0.000000  celldm(6)=   0.000000

     crystal axes: (cart. coord. in units of alat)
               a(1) = (   1.000001   0.000000   0.001667 )  
               a(2) = (   0.000000   1.000001   0.000000 )  
               a(3) = (   0.001667   0.000000   1.000001 )  

     reciprocal axes: (cart. coord. in units 2 pi/alat)
               b(1) = (  1.000002  0.000000 -0.001667 )  
               b(2) = (  0.000000  0.999999  0.000000 )  
               b(3) = ( -0.001667  0.000000  1.000002 )  


     PseudoPot. # 1 for Fe read from file:
     /rds/homes/b/bxp912/pp/Fe.pbe-spn-kjpaw_psl.1.0.0.UPF
     MD5 check sum: 42f43b795421b414b0dc916aa790dbcb
     Pseudo is Projector augmented-wave + core cor, Zval = 16.0
     Generated using "atomic" code by A. Dal Corso v.6.3
     Shape of augmentation charge: PSQ
     Using radial grid of 1191 points,  6 beta functions with: 
                l(1) =   0
                l(2) =   0
                l(3) =   1
                l(4) =   1
                l(5) =   2
                l(6) =   2
     Q(r) pseudized with 0 coefficients 


     PseudoPot. # 2 for Fe read from file:
     /rds/homes/b/bxp912/pp/Fe.pbe-spn-kjpaw_psl.1.0.0.UPF
     MD5 check sum: 42f43b795421b414b0dc916aa790dbcb
     Pseudo is Projector augmented-wave + core cor, Zval = 16.0
     Generated using "atomic" code by A. Dal Corso v.6.3
     Shape of augmentation charge: PSQ
     Using radial grid of 1191 points,  6 beta functions with: 
                l(1) =   0
                l(2) =   0
                l(3) =   1
                l(4) =   1
                l(5) =   2
                l(6) =   2
     Q(r) pseudized with 0 coefficients 


     atomic species   valence    mass     pseudopotential
        Fe1           16.00    55.84500     Fe( 1.00)
        Fe2           16.00    55.84500     Fe( 1.00)

     Starting magnetic structure 
     atomic species   magnetization
        Fe1          0.100
        Fe2          0.100

      8 Sym. Ops., with inversion, found



   Cartesian axes

     site n.     atom                  positions (alat units)
         1           Fe1 tau(   1) = (   0.0000000   0.0000000   0.0000000  )
         2           Fe2 tau(   2) = (   0.2504173   0.2500007   0.2504173  )
         3           Fe1 tau(   3) = (   0.0008333   0.0000000   0.5000005  )
         4           Fe2 tau(   4) = (   0.2512507   0.2500007   0.7504169  )
         5           Fe1 tau(   5) = (   0.0000000   0.5000005   0.0000000  )
         6           Fe2 tau(   6) = (   0.2504173   0.7500003   0.2504173  )
         7           Fe1 tau(   7) = (   0.0008333   0.5000005   0.5000005  )
         8           Fe2 tau(   8) = (   0.2512507   0.7500003   0.7504169  )
         9           Fe1 tau(   9) = (   0.5000005   0.0000000   0.0008333  )
        10           Fe2 tau(  10) = (   0.7504169   0.2500007   0.2512507  )
        11           Fe1 tau(  11) = (   0.5008338   0.0000000   0.5008338  )
        12           Fe2 tau(  12) = (   0.7512503   0.2500007   0.7512503  )
        13           Fe1 tau(  13) = (   0.5000005   0.5000005   0.0008333  )
        14           Fe2 tau(  14) = (   0.7504169   0.7500003   0.2512507  )
        15           Fe1 tau(  15) = (   0.5008338   0.5000005   0.5008338  )
        16           Fe2 tau(  16) = (   0.7512503   0.7500003   0.7512503  )

     number of k points=   125  Marzari-Vanderbilt smearing, width (Ry)=  0.0400

     Number of k-points >= 100: set verbosity='high' to print them.

     Dense  grid:   178977 G-vectors     FFT dimensions: (  72,  72,  72)

     Smooth grid:    96057 G-vectors     FFT dimensions: (  60,  60,  60)

     Estimated max dynamical RAM per process >     215.38 MB

     Estimated total dynamical RAM >       8.41 GB
     Generating pointlists ...
     new r_m :   0.1784 (alat units)  1.8901 (a.u.) for type    1
     new r_m :   0.1784 (alat units)  1.8901 (a.u.) for type    2

     Check: negative/imaginary core charge=   -0.000006    0.000000

     Initial potential from superposition of free atoms

     starting charge  255.99300, renormalised to  256.00000
     Starting wfcs are  160 randomized atomic wfcs
     Checking if some PAW data can be deallocated... 

     total cpu time spent up to now is       25.8 secs

     Self-consistent Calculation

     iteration #  1     ecut=    71.00 Ry     beta= 0.10
     Davidson diagonalization with overlap
     ethr =  1.00E-02,  avg # of iterations =  3.4

     Threshold (ethr) on eigenvalues was too large:
     Diagonalizing with lowered threshold

     Davidson diagonalization with overlap
     ethr =  2.24E-04,  avg # of iterations =  3.6

     total cpu time spent up to now is      217.3 secs

     total energy              =   -5268.06215558 Ry
     Harris-Foulkes estimate   =   -5268.15192804 Ry
     estimated scf accuracy    <       0.65889813 Ry

     total magnetization       =    28.16 Bohr mag/cell
     absolute magnetization    =    28.30 Bohr mag/cell

     iteration #  2     ecut=    71.00 Ry     beta= 0.10
     Davidson diagonalization with overlap
     ethr =  2.57E-04,  avg # of iterations =  1.0

     total cpu time spent up to now is      272.6 secs

     total energy              =   -5268.00528340 Ry
     Harris-Foulkes estimate   =   -5268.07612744 Ry
     estimated scf accuracy    <       0.39593997 Ry

     total magnetization       =    28.76 Bohr mag/cell
     absolute magnetization    =    28.92 Bohr mag/cell

     iteration #  3     ecut=    71.00 Ry     beta= 0.10
     Davidson diagonalization with overlap
     ethr =  1.55E-04,  avg # of iterations =  2.8

     total cpu time spent up to now is      353.6 secs

     total energy              =   -5268.02663692 Ry
     Harris-Foulkes estimate   =   -5268.05144580 Ry
     estimated scf accuracy    <       0.53124200 Ry

     total magnetization       =    29.55 Bohr mag/cell
     absolute magnetization    =    29.84 Bohr mag/cell

     iteration #  4     ecut=    71.00 Ry     beta= 0.10
     Davidson diagonalization with overlap
     ethr =  1.55E-04,  avg # of iterations =  1.2

     total cpu time spent up to now is      412.1 secs

     total energy              =   -5268.05225792 Ry
     Harris-Foulkes estimate   =   -5268.05060273 Ry
     estimated scf accuracy    <       0.13916953 Ry

     total magnetization       =    30.21 Bohr mag/cell
     absolute magnetization    =    30.55 Bohr mag/cell

     iteration #  5     ecut=    71.00 Ry     beta= 0.10
     Davidson diagonalization with overlap
     ethr =  5.44E-05,  avg # of iterations =  1.3

     total cpu time spent up to now is      470.5 secs

     total energy              =   -5268.10350722 Ry
     Harris-Foulkes estimate   =   -5268.05489016 Ry
     estimated scf accuracy    <       0.10616720 Ry

     total magnetization       =    30.29 Bohr mag/cell
     absolute magnetization    =    30.65 Bohr mag/cell

     iteration #  6     ecut=    71.00 Ry     beta= 0.10
     Davidson diagonalization with overlap
     ethr =  4.15E-05,  avg # of iterations =  3.3

     negative rho (up, down):  0.000E+00 1.645E-04

     total cpu time spent up to now is      575.7 secs

     total energy              =   -5268.15893793 Ry
     Harris-Foulkes estimate   =   -5268.14350136 Ry
     estimated scf accuracy    <       0.15105425 Ry

     total magnetization       =    30.98 Bohr mag/cell
     absolute magnetization    =    31.71 Bohr mag/cell

     iteration #  7     ecut=    71.00 Ry     beta= 0.10
     Davidson diagonalization with overlap
     ethr =  4.15E-05,  avg # of iterations =  2.6

     negative rho (up, down):  0.000E+00 8.726E-04

     total cpu time spent up to now is      657.5 secs

     total energy              =   -5268.17553676 Ry
     Harris-Foulkes estimate   =   -5268.17168200 Ry
     estimated scf accuracy    <       0.05789959 Ry

     total magnetization       =    31.73 Bohr mag/cell
     absolute magnetization    =    32.80 Bohr mag/cell

     iteration #  8     ecut=    71.00 Ry     beta= 0.10
     Davidson diagonalization with overlap
     ethr =  2.26E-05,  avg # of iterations =  1.1

     negative rho (up, down):  0.000E+00 1.721E-03

     total cpu time spent up to now is      714.2 secs

     total energy              =   -5268.17986775 Ry
     Harris-Foulkes estimate   =   -5268.17755833 Ry
     estimated scf accuracy    <       0.04010327 Ry

     total magnetization       =    31.95 Bohr mag/cell
     absolute magnetization    =    33.11 Bohr mag/cell

     iteration #  9     ecut=    71.00 Ry     beta= 0.10
     Davidson diagonalization with overlap
     ethr =  1.57E-05,  avg # of iterations =  2.1

     negative rho (up, down):  0.000E+00 2.075E-03

     total cpu time spent up to now is      789.5 secs

     total energy              =   -5268.18686807 Ry
     Harris-Foulkes estimate   =   -5268.18467948 Ry
     estimated scf accuracy    <       0.01260189 Ry

     total magnetization       =    32.33 Bohr mag/cell
     absolute magnetization    =    33.74 Bohr mag/cell

     iteration # 10     ecut=    71.00 Ry     beta= 0.10
     Davidson diagonalization with overlap
     ethr =  4.92E-06,  avg # of iterations =  1.7

     negative rho (up, down):  0.000E+00 2.560E-03

     total cpu time spent up to now is      853.9 secs

     total energy              =   -5268.18794184 Ry
     Harris-Foulkes estimate   =   -5268.18740756 Ry
     estimated scf accuracy    <       0.00577704 Ry

     total magnetization       =    32.47 Bohr mag/cell
     absolute magnetization    =    33.95 Bohr mag/cell

     iteration # 11     ecut=    71.00 Ry     beta= 0.10
     Davidson diagonalization with overlap
     c_bands:  1 eigenvalues not converged
     ethr =  2.26E-06,  avg # of iterations =  3.6

     negative rho (up, down):  0.000E+00 2.451E-03

     total cpu time spent up to now is      950.9 secs

     total energy              =   -5268.18878271 Ry
     Harris-Foulkes estimate   =   -5268.18874239 Ry
     estimated scf accuracy    <       0.00092409 Ry

     total magnetization       =    32.67 Bohr mag/cell
     absolute magnetization    =    34.31 Bohr mag/cell

     iteration # 12     ecut=    71.00 Ry     beta= 0.10
     Davidson diagonalization with overlap
     ethr =  3.61E-07,  avg # of iterations =  2.0

     negative rho (up, down):  0.000E+00 2.368E-03

     total cpu time spent up to now is     1019.6 secs

     total energy              =   -5268.18902305 Ry
     Harris-Foulkes estimate   =   -5268.18882731 Ry
     estimated scf accuracy    <       0.00065247 Ry

     total magnetization       =    32.68 Bohr mag/cell
     absolute magnetization    =    34.33 Bohr mag/cell

     iteration # 13     ecut=    71.00 Ry     beta= 0.10
     Davidson diagonalization with overlap
     ethr =  2.55E-07,  avg # of iterations =  2.2

     negative rho (up, down):  0.000E+00 2.434E-03

     total cpu time spent up to now is     1095.3 secs

     total energy              =   -5268.18924354 Ry
     Harris-Foulkes estimate   =   -5268.18908835 Ry
     estimated scf accuracy    <       0.00064118 Ry

     total magnetization       =    32.72 Bohr mag/cell
     absolute magnetization    =    34.40 Bohr mag/cell

     iteration # 14     ecut=    71.00 Ry     beta= 0.10
     Davidson diagonalization with overlap
     ethr =  2.50E-07,  avg # of iterations =  2.9

     negative rho (up, down):  0.000E+00 2.433E-03

     total cpu time spent up to now is     1179.9 secs

     total energy              =   -5268.18934484 Ry
     Harris-Foulkes estimate   =   -5268.18934869 Ry
     estimated scf accuracy    <       0.00029672 Ry

     total magnetization       =    32.81 Bohr mag/cell
     absolute magnetization    =    34.55 Bohr mag/cell

     iteration # 15     ecut=    71.00 Ry     beta= 0.10
     Davidson diagonalization with overlap
     ethr =  1.16E-07,  avg # of iterations =  1.3

     negative rho (up, down):  0.000E+00 2.381E-03

     total cpu time spent up to now is     1238.7 secs

     total energy              =   -5268.18937250 Ry
     Harris-Foulkes estimate   =   -5268.18936170 Ry
     estimated scf accuracy    <       0.00007605 Ry

     total magnetization       =    32.83 Bohr mag/cell
     absolute magnetization    =    34.57 Bohr mag/cell

     iteration # 16     ecut=    71.00 Ry     beta= 0.10
     Davidson diagonalization with overlap
     ethr =  2.97E-08,  avg # of iterations =  2.9

     negative rho (up, down):  0.000E+00 2.442E-03

     total cpu time spent up to now is     1320.2 secs

     total energy              =   -5268.18938160 Ry
     Harris-Foulkes estimate   =   -5268.18937974 Ry
     estimated scf accuracy    <       0.00008186 Ry

     total magnetization       =    32.83 Bohr mag/cell
     absolute magnetization    =    34.57 Bohr mag/cell

     iteration # 17     ecut=    71.00 Ry     beta= 0.10
     Davidson diagonalization with overlap
     ethr =  2.97E-08,  avg # of iterations =  3.2

     negative rho (up, down):  0.000E+00 2.419E-03

     total cpu time spent up to now is     1415.3 secs

     total energy              =   -5268.18941812 Ry
     Harris-Foulkes estimate   =   -5268.18941512 Ry
     estimated scf accuracy    <       0.00001611 Ry

     total magnetization       =    32.88 Bohr mag/cell
     absolute magnetization    =    34.65 Bohr mag/cell

     iteration # 18     ecut=    71.00 Ry     beta= 0.10
     Davidson diagonalization with overlap
     ethr =  6.29E-09,  avg # of iterations =  2.5

     negative rho (up, down):  0.000E+00 2.437E-03

     total cpu time spent up to now is     1490.8 secs

     total energy              =   -5268.18942009 Ry
     Harris-Foulkes estimate   =   -5268.18941995 Ry
     estimated scf accuracy    <       0.00001034 Ry

     total magnetization       =    32.88 Bohr mag/cell
     absolute magnetization    =    34.65 Bohr mag/cell

     iteration # 19     ecut=    71.00 Ry     beta= 0.10
     Davidson diagonalization with overlap
     ethr =  4.04E-09,  avg # of iterations =  1.5

     negative rho (up, down):  0.000E+00 2.440E-03

     total cpu time spent up to now is     1552.5 secs

     total energy              =   -5268.18942186 Ry
     Harris-Foulkes estimate   =   -5268.18942081 Ry
     estimated scf accuracy    <       0.00000418 Ry

     total magnetization       =    32.89 Bohr mag/cell
     absolute magnetization    =    34.66 Bohr mag/cell

     iteration # 20     ecut=    71.00 Ry     beta= 0.10
     Davidson diagonalization with overlap
     ethr =  1.63E-09,  avg # of iterations =  2.0

     negative rho (up, down):  0.000E+00 2.454E-03

     total cpu time spent up to now is     1620.1 secs

     total energy              =   -5268.18942279 Ry
     Harris-Foulkes estimate   =   -5268.18942210 Ry
     estimated scf accuracy    <       0.00000272 Ry

     total magnetization       =    32.89 Bohr mag/cell
     absolute magnetization    =    34.66 Bohr mag/cell

     iteration # 21     ecut=    71.00 Ry     beta= 0.10
     Davidson diagonalization with overlap
     ethr =  1.06E-09,  avg # of iterations =  2.5

     negative rho (up, down):  0.000E+00 2.455E-03

     total cpu time spent up to now is     1697.9 secs

     total energy              =   -5268.18942386 Ry
     Harris-Foulkes estimate   =   -5268.18942311 Ry
     estimated scf accuracy    <       0.00000170 Ry

     total magnetization       =    32.90 Bohr mag/cell
     absolute magnetization    =    34.67 Bohr mag/cell

     iteration # 22     ecut=    71.00 Ry     beta= 0.10
     Davidson diagonalization with overlap
     ethr =  6.63E-10,  avg # of iterations =  1.0

     negative rho (up, down):  0.000E+00 2.454E-03

     total cpu time spent up to now is     1753.2 secs

     total energy              =   -5268.18942489 Ry
     Harris-Foulkes estimate   =   -5268.18942393 Ry
     estimated scf accuracy    <       0.00000127 Ry

     total magnetization       =    32.90 Bohr mag/cell
     absolute magnetization    =    34.67 Bohr mag/cell

     iteration # 23     ecut=    71.00 Ry     beta= 0.10
     Davidson diagonalization with overlap
     ethr =  4.98E-10,  avg # of iterations =  2.3

     negative rho (up, down):  0.000E+00 2.464E-03
 
     Magnetic moment per site:
     atom:    1    charge:   14.3597    magn:    2.0989    constr:    0.0000
     atom:    2    charge:   14.3596    magn:    2.1016    constr:    0.0000
     atom:    3    charge:   14.3598    magn:    2.0987    constr:    0.0000
     atom:    4    charge:   14.3596    magn:    2.1013    constr:    0.0000
     atom:    5    charge:   14.3596    magn:    2.1003    constr:    0.0000
     atom:    6    charge:   14.3596    magn:    2.1016    constr:    0.0000
     atom:    7    charge:   14.3595    magn:    2.0998    constr:    0.0000
     atom:    8    charge:   14.3596    magn:    2.1013    constr:    0.0000
     atom:    9    charge:   14.3598    magn:    2.0987    constr:    0.0000
     atom:   10    charge:   14.3596    magn:    2.1013    constr:    0.0000
     atom:   11    charge:   14.3596    magn:    2.0983    constr:    0.0000
     atom:   12    charge:   14.3596    magn:    2.1016    constr:    0.0000
     atom:   13    charge:   14.3595    magn:    2.0998    constr:    0.0000
     atom:   14    charge:   14.3596    magn:    2.1013    constr:    0.0000
     atom:   15    charge:   14.3597    magn:    2.0995    constr:    0.0000
     atom:   16    charge:   14.3596    magn:    2.1016    constr:    0.0000

     total cpu time spent up to now is     1828.6 secs

     End of self-consistent calculation

     Number of k-points >= 100: set verbosity='high' to print the bands.

     the Fermi energy is    18.9743 ev

!    total energy              =   -5268.18942608 Ry
     Harris-Foulkes estimate   =   -5268.18942501 Ry
     estimated scf accuracy    <       0.00000060 Ry

     total all-electron energy =    -40728.933955 Ry

     The total energy is the sum of the following terms:

     one-electron contribution =   -1707.43584321 Ry
     hartree contribution      =    1022.28005180 Ry
     xc contribution           =    -444.25995723 Ry
     ewald contribution        =   -2814.22679325 Ry
     one-center paw contrib.   =   -1324.67104174 Ry
     smearing contrib. (-TS)   =       0.12415755 Ry

     total magnetization       =    32.90 Bohr mag/cell
     absolute magnetization    =    34.66 Bohr mag/cell

     convergence has been achieved in  23 iterations

     negative rho (up, down):  0.000E+00 2.464E-03

     Forces acting on atoms (cartesian axes, Ry/au):

     atom    1 type  1   force =     0.00000000    0.00000000    0.00000000
     atom    2 type  2   force =     0.00004917    0.00014911    0.00004917
     atom    3 type  1   force =     0.00000000    0.00000000    0.00000000
     atom    4 type  2   force =    -0.00005323    0.00007909    0.00005323
     atom    5 type  1   force =     0.00000000    0.00000000    0.00000000
     atom    6 type  2   force =     0.00004917   -0.00014911    0.00004917
     atom    7 type  1   force =     0.00000000    0.00000000    0.00000000
     atom    8 type  2   force =    -0.00005323   -0.00007909    0.00005323
     atom    9 type  1   force =     0.00000000    0.00000000    0.00000000
     atom   10 type  2   force =     0.00005323    0.00007909   -0.00005323
     atom   11 type  1   force =     0.00000000    0.00000000    0.00000000
     atom   12 type  2   force =    -0.00004917    0.00014911   -0.00004917
     atom   13 type  1   force =     0.00000000   -0.00000000    0.00000000
     atom   14 type  2   force =     0.00005323   -0.00007909   -0.00005323
     atom   15 type  1   force =     0.00000000    0.00000000    0.00000000
     atom   16 type  2   force =    -0.00004917   -0.00014911   -0.00004917

     Total force =     0.000395     Total SCF correction =     0.004035
     SCF correction compared to forces is large: reduce conv_thr to get better values


     Computing stress (Cartesian axis) and pressure


     negative rho (up, down):  0.000E+00 2.464E-03
          total   stress  (Ry/bohr**3)                   (kbar)     P=   -2.90
  -0.00001976   0.00000000  -0.00003113         -2.91      0.00     -4.58
   0.00000000  -0.00001964   0.00000000          0.00     -2.89      0.00
  -0.00003113   0.00000000  -0.00001976         -4.58      0.00     -2.91


     Writing output data file sqXCDzMdREImmGsd.save/
 
     init_run     :     23.35s CPU     24.52s WALL (       1 calls)
     electrons    :   1748.66s CPU   1802.78s WALL (       1 calls)
     forces       :      7.81s CPU      8.48s WALL (       1 calls)
     stress       :     21.87s CPU     22.08s WALL (       1 calls)

     Called by init_run:
     wfcinit      :     22.82s CPU     23.89s WALL (       1 calls)
     potinit      :      0.23s CPU      0.25s WALL (       1 calls)
     hinit0       :      0.20s CPU      0.25s WALL (       1 calls)

     Called by electrons:
     c_bands      :   1577.84s CPU   1622.84s WALL (      24 calls)
     sum_band     :    166.04s CPU    174.56s WALL (      24 calls)
     v_of_rho     :      0.37s CPU      0.37s WALL (      24 calls)
     newd         :      0.76s CPU      0.97s WALL (      24 calls)
     PAW_pot      :      3.58s CPU      3.89s WALL (      24 calls)
     mix_rho      :      0.14s CPU      0.15s WALL (      24 calls)

     Called by c_bands:
     init_us_2    :      8.53s CPU      8.60s WALL (   12750 calls)
     cegterg      :   1534.37s CPU   1578.94s WALL (    6000 calls)

     Called by sum_band:
     sum_band:bec :      2.48s CPU      2.51s WALL (    6000 calls)
     addusdens    :      1.32s CPU      1.51s WALL (      24 calls)

     Called by *egterg:
     h_psi        :    653.92s CPU    681.42s WALL (   19735 calls)
     s_psi        :     35.89s CPU     36.13s WALL (   19735 calls)
     g_psi        :      1.44s CPU      1.46s WALL (   13485 calls)
     cdiaghg      :    693.10s CPU    695.57s WALL (   19235 calls)

     Called by h_psi:
     h_psi:pot    :    649.88s CPU    677.33s WALL (   19735 calls)
     h_psi:calbec :     54.24s CPU     62.83s WALL (   19735 calls)
     vloc_psi     :    559.91s CPU    578.47s WALL (   19735 calls)
     add_vuspsi   :     35.57s CPU     35.90s WALL (   19735 calls)

     General routines
     calbec       :     82.75s CPU     96.13s WALL (   26985 calls)
     fft          :      0.42s CPU      0.43s WALL (     642 calls)
     ffts         :      0.06s CPU      0.24s WALL (      96 calls)
     fftw         :    653.28s CPU    674.88s WALL ( 4956120 calls)
     interpolate  :      0.07s CPU      0.15s WALL (      48 calls)
 
     Parallel routines
     fft_scatt_xy :     43.22s CPU     44.55s WALL ( 4956858 calls)
     fft_scatt_yz :    435.02s CPU    449.65s WALL ( 4956858 calls)
 
     PWSCF        : 30m16.66s CPU    32m 1.20s WALL

 
   This run was terminated on:  20:48:49   9Sep2020            

=------------------------------------------------------------------------------=
   JOB DONE.
=------------------------------------------------------------------------------=
