--------------------------------------------------------------------------
WARNING: No preset parameters were found for the device that Open MPI
detected:

  Local host:            bear-pg0206u39a
  Device name:           mlx5_0
  Device vendor ID:      0x02c9
  Device vendor part ID: 4123

Default device parameters will be used, which may result in lower
performance.  You can edit any of the files specified by the
btl_openib_device_param_files MCA parameter to set values for your
device.

NOTE: You can turn off this warning by setting the MCA parameter
      btl_openib_warn_no_device_params_found to 0.
--------------------------------------------------------------------------
--------------------------------------------------------------------------
WARNING: There was an error initializing an OpenFabrics device.

  Local host:   bear-pg0206u39a
  Local device: mlx5_0
--------------------------------------------------------------------------

     Program PWSCF v.6.3 starts on  9Sep2020 at 22:24:44 

     This program is part of the open-source Quantum ESPRESSO suite
     for quantum simulation of materials; please cite
         "P. Giannozzi et al., J. Phys.:Condens. Matter 21 395502 (2009);
         "P. Giannozzi et al., J. Phys.:Condens. Matter 29 465901 (2017);
          URL http://www.quantum-espresso.org", 
     in publications or presentations arising from this work. More details at
     http://www.quantum-espresso.org/quote

     Parallel version (MPI & OpenMP), running on      40 processor cores
     Number of MPI processes:                40
     Threads/MPI process:                     1

     MPI processes distributed on     1 nodes
     R & G space division:  proc/nbgrp/npool/nimage =      40
     Reading input from wd/ec/ec_5_007.in
Warning: card &IONS ignored
Warning: card ION_DYNAMICS = 'BFGS', ignored
Warning: card / ignored
Warning: card &CELL ignored
Warning: card CELL_DYNAMICS = 'BFGS', ignored
Warning: card CELL_FACTOR = 2.0, ignored
Warning: card PRESS = 0.0, ignored
Warning: card / ignored

     Current dimensions of program PWSCF are:
     Max number of different atomic species (ntypx) = 10
     Max number of k-points (npk) =  40000
     Max angular momentum in pseudopotentials (lmaxx) =  3
               file Fe.pbe-spn-kjpaw_psl.1.0.0.UPF: wavefunction(s)  3P 3D renormalized
               file Fe.pbe-spn-kjpaw_psl.1.0.0.UPF: wavefunction(s)  3P 3D renormalized

     Subspace diagonalization in iterative solution of the eigenvalue problem:
     a serial algorithm will be used

     Found symmetry operation: I + (  0.0000  0.0000 -0.5000)
     This is a supercell, fractional translations are disabled
 
     Parallelization info
     --------------------
     sticks:   dense  smooth     PW     G-vecs:    dense   smooth      PW
     Min          95      63     17                 4472     2402     355
     Max          96      64     18                 4477     2407     359
     Sum        3833    2537    717               178997    96147   14303
 


     bravais-lattice index     =            0
     lattice parameter (alat)  =      10.5935  a.u.
     unit-cell volume          =    1188.8329 (a.u.)^3
     number of atoms/cell      =           16
     number of atomic types    =            2
     number of electrons       =       256.00
     number of Kohn-Sham states=          154
     kinetic-energy cutoff     =      71.0000  Ry
     charge density cutoff     =     430.0000  Ry
     convergence threshold     =      1.0E-06
     mixing beta               =       0.1000
     number of iterations used =           10  plain     mixing
     Exchange-correlation      = SLA PW PBX PBC ( 1  4  3  4 0 0)

     celldm(1)=  10.593520  celldm(2)=   0.000000  celldm(3)=   0.000000
     celldm(4)=   0.000000  celldm(5)=   0.000000  celldm(6)=   0.000000

     crystal axes: (cart. coord. in units of alat)
               a(1) = (   1.000008   0.000000   0.005000 )  
               a(2) = (   0.000000   1.000008   0.000000 )  
               a(3) = (   0.005000   0.000000   1.000008 )  

     reciprocal axes: (cart. coord. in units 2 pi/alat)
               b(1) = (  1.000017  0.000000 -0.005000 )  
               b(2) = (  0.000000  0.999992  0.000000 )  
               b(3) = ( -0.005000  0.000000  1.000017 )  


     PseudoPot. # 1 for Fe read from file:
     /rds/homes/b/bxp912/pp/Fe.pbe-spn-kjpaw_psl.1.0.0.UPF
     MD5 check sum: 42f43b795421b414b0dc916aa790dbcb
     Pseudo is Projector augmented-wave + core cor, Zval = 16.0
     Generated using "atomic" code by A. Dal Corso v.6.3
     Shape of augmentation charge: PSQ
     Using radial grid of 1191 points,  6 beta functions with: 
                l(1) =   0
                l(2) =   0
                l(3) =   1
                l(4) =   1
                l(5) =   2
                l(6) =   2
     Q(r) pseudized with 0 coefficients 


     PseudoPot. # 2 for Fe read from file:
     /rds/homes/b/bxp912/pp/Fe.pbe-spn-kjpaw_psl.1.0.0.UPF
     MD5 check sum: 42f43b795421b414b0dc916aa790dbcb
     Pseudo is Projector augmented-wave + core cor, Zval = 16.0
     Generated using "atomic" code by A. Dal Corso v.6.3
     Shape of augmentation charge: PSQ
     Using radial grid of 1191 points,  6 beta functions with: 
                l(1) =   0
                l(2) =   0
                l(3) =   1
                l(4) =   1
                l(5) =   2
                l(6) =   2
     Q(r) pseudized with 0 coefficients 


     atomic species   valence    mass     pseudopotential
        Fe1           16.00    55.84500     Fe( 1.00)
        Fe2           16.00    55.84500     Fe( 1.00)

     Starting magnetic structure 
     atomic species   magnetization
        Fe1          0.100
        Fe2          0.100

      8 Sym. Ops., with inversion, found



   Cartesian axes

     site n.     atom                  positions (alat units)
         1           Fe1 tau(   1) = (   0.0000000   0.0000000   0.0000000  )
         2           Fe2 tau(   2) = (   0.2512525   0.2500025   0.2512525  )
         3           Fe1 tau(   3) = (   0.0025000   0.0000000   0.5000042  )
         4           Fe2 tau(   4) = (   0.2537525   0.2500025   0.7512558  )
         5           Fe1 tau(   5) = (   0.0000000   0.5000042   0.0000000  )
         6           Fe2 tau(   6) = (   0.2512525   0.7500058   0.2512525  )
         7           Fe1 tau(   7) = (   0.0025000   0.5000042   0.5000042  )
         8           Fe2 tau(   8) = (   0.2537525   0.7500058   0.7512558  )
         9           Fe1 tau(   9) = (   0.5000042   0.0000000   0.0025000  )
        10           Fe2 tau(  10) = (   0.7512558   0.2500025   0.2537525  )
        11           Fe1 tau(  11) = (   0.5025042   0.0000000   0.5025042  )
        12           Fe2 tau(  12) = (   0.7537558   0.2500025   0.7537558  )
        13           Fe1 tau(  13) = (   0.5000042   0.5000042   0.0025000  )
        14           Fe2 tau(  14) = (   0.7512558   0.7500058   0.2537525  )
        15           Fe1 tau(  15) = (   0.5025042   0.5000042   0.5025042  )
        16           Fe2 tau(  16) = (   0.7537558   0.7500058   0.7537558  )

     number of k points=   125  Marzari-Vanderbilt smearing, width (Ry)=  0.0400

     Number of k-points >= 100: set verbosity='high' to print them.

     Dense  grid:   178997 G-vectors     FFT dimensions: (  72,  72,  72)

     Smooth grid:    96147 G-vectors     FFT dimensions: (  60,  60,  60)

     Estimated max dynamical RAM per process >     215.38 MB

     Estimated total dynamical RAM >       8.41 GB
     Generating pointlists ...
     new r_m :   0.1780 (alat units)  1.8859 (a.u.) for type    1
     new r_m :   0.1780 (alat units)  1.8859 (a.u.) for type    2

     Check: negative/imaginary core charge=   -0.000006    0.000000

     Initial potential from superposition of free atoms

     starting charge  255.99300, renormalised to  256.00000
     Starting wfcs are  160 randomized atomic wfcs
     Checking if some PAW data can be deallocated... 

     total cpu time spent up to now is       23.5 secs

     Self-consistent Calculation

     iteration #  1     ecut=    71.00 Ry     beta= 0.10
     Davidson diagonalization with overlap
     ethr =  1.00E-02,  avg # of iterations =  3.4

     Threshold (ethr) on eigenvalues was too large:
     Diagonalizing with lowered threshold

     Davidson diagonalization with overlap
     ethr =  2.24E-04,  avg # of iterations =  3.6

     total cpu time spent up to now is      214.4 secs

     total energy              =   -5268.06164629 Ry
     Harris-Foulkes estimate   =   -5268.15134083 Ry
     estimated scf accuracy    <       0.65833356 Ry

     total magnetization       =    28.16 Bohr mag/cell
     absolute magnetization    =    28.30 Bohr mag/cell

     iteration #  2     ecut=    71.00 Ry     beta= 0.10
     Davidson diagonalization with overlap
     ethr =  2.57E-04,  avg # of iterations =  1.0

     total cpu time spent up to now is      270.1 secs

     total energy              =   -5268.00485604 Ry
     Harris-Foulkes estimate   =   -5268.07560964 Ry
     estimated scf accuracy    <       0.39569345 Ry

     total magnetization       =    28.76 Bohr mag/cell
     absolute magnetization    =    28.92 Bohr mag/cell

     iteration #  3     ecut=    71.00 Ry     beta= 0.10
     Davidson diagonalization with overlap
     ethr =  1.55E-04,  avg # of iterations =  2.8

     total cpu time spent up to now is      352.0 secs

     total energy              =   -5268.02611215 Ry
     Harris-Foulkes estimate   =   -5268.05093180 Ry
     estimated scf accuracy    <       0.53109043 Ry

     total magnetization       =    29.55 Bohr mag/cell
     absolute magnetization    =    29.84 Bohr mag/cell

     iteration #  4     ecut=    71.00 Ry     beta= 0.10
     Davidson diagonalization with overlap
     ethr =  1.55E-04,  avg # of iterations =  1.2

     total cpu time spent up to now is      410.1 secs

     total energy              =   -5268.05174561 Ry
     Harris-Foulkes estimate   =   -5268.05007430 Ry
     estimated scf accuracy    <       0.13916279 Ry

     total magnetization       =    30.21 Bohr mag/cell
     absolute magnetization    =    30.55 Bohr mag/cell

     iteration #  5     ecut=    71.00 Ry     beta= 0.10
     Davidson diagonalization with overlap
     ethr =  5.44E-05,  avg # of iterations =  1.3

     total cpu time spent up to now is      470.4 secs

     total energy              =   -5268.10296356 Ry
     Harris-Foulkes estimate   =   -5268.05438206 Ry
     estimated scf accuracy    <       0.10621455 Ry

     total magnetization       =    30.29 Bohr mag/cell
     absolute magnetization    =    30.65 Bohr mag/cell

     iteration #  6     ecut=    71.00 Ry     beta= 0.10
     Davidson diagonalization with overlap
     ethr =  4.15E-05,  avg # of iterations =  3.4

     negative rho (up, down):  0.000E+00 1.656E-04

     total cpu time spent up to now is      577.0 secs

     total energy              =   -5268.15859840 Ry
     Harris-Foulkes estimate   =   -5268.14282192 Ry
     estimated scf accuracy    <       0.15076400 Ry

     total magnetization       =    30.98 Bohr mag/cell
     absolute magnetization    =    31.72 Bohr mag/cell

     iteration #  7     ecut=    71.00 Ry     beta= 0.10
     Davidson diagonalization with overlap
     ethr =  4.15E-05,  avg # of iterations =  2.6

     negative rho (up, down):  0.000E+00 8.666E-04

     total cpu time spent up to now is      658.5 secs

     total energy              =   -5268.17488790 Ry
     Harris-Foulkes estimate   =   -5268.17130726 Ry
     estimated scf accuracy    <       0.05827212 Ry

     total magnetization       =    31.73 Bohr mag/cell
     absolute magnetization    =    32.80 Bohr mag/cell

     iteration #  8     ecut=    71.00 Ry     beta= 0.10
     Davidson diagonalization with overlap
     ethr =  2.28E-05,  avg # of iterations =  1.1

     negative rho (up, down):  0.000E+00 1.735E-03

     total cpu time spent up to now is      715.9 secs

     total energy              =   -5268.17940611 Ry
     Harris-Foulkes estimate   =   -5268.17691217 Ry
     estimated scf accuracy    <       0.03975265 Ry

     total magnetization       =    31.95 Bohr mag/cell
     absolute magnetization    =    33.11 Bohr mag/cell

     iteration #  9     ecut=    71.00 Ry     beta= 0.10
     Davidson diagonalization with overlap
     ethr =  1.55E-05,  avg # of iterations =  2.1

     negative rho (up, down):  0.000E+00 2.102E-03

     total cpu time spent up to now is      791.2 secs

     total energy              =   -5268.18652741 Ry
     Harris-Foulkes estimate   =   -5268.18429163 Ry
     estimated scf accuracy    <       0.01203537 Ry

     total magnetization       =    32.34 Bohr mag/cell
     absolute magnetization    =    33.76 Bohr mag/cell

     iteration # 10     ecut=    71.00 Ry     beta= 0.10
     Davidson diagonalization with overlap
     ethr =  4.70E-06,  avg # of iterations =  1.8

     negative rho (up, down):  0.000E+00 2.558E-03

     total cpu time spent up to now is      857.3 secs

     total energy              =   -5268.18752454 Ry
     Harris-Foulkes estimate   =   -5268.18706608 Ry
     estimated scf accuracy    <       0.00550420 Ry

     total magnetization       =    32.49 Bohr mag/cell
     absolute magnetization    =    33.97 Bohr mag/cell

     iteration # 11     ecut=    71.00 Ry     beta= 0.10
     Davidson diagonalization with overlap
     c_bands:  1 eigenvalues not converged
     ethr =  2.15E-06,  avg # of iterations =  3.5

     negative rho (up, down):  0.000E+00 2.484E-03

     total cpu time spent up to now is      951.1 secs

     total energy              =   -5268.18829676 Ry
     Harris-Foulkes estimate   =   -5268.18825833 Ry
     estimated scf accuracy    <       0.00092887 Ry

     total magnetization       =    32.67 Bohr mag/cell
     absolute magnetization    =    34.32 Bohr mag/cell

     iteration # 12     ecut=    71.00 Ry     beta= 0.10
     Davidson diagonalization with overlap
     ethr =  3.63E-07,  avg # of iterations =  1.5

     negative rho (up, down):  0.000E+00 2.379E-03

     total cpu time spent up to now is     1012.3 secs

     total energy              =   -5268.18851934 Ry
     Harris-Foulkes estimate   =   -5268.18832949 Ry
     estimated scf accuracy    <       0.00068538 Ry

     total magnetization       =    32.69 Bohr mag/cell
     absolute magnetization    =    34.34 Bohr mag/cell

     iteration # 13     ecut=    71.00 Ry     beta= 0.10
     Davidson diagonalization with overlap
     ethr =  2.68E-07,  avg # of iterations =  2.3

     negative rho (up, down):  0.000E+00 2.434E-03

     total cpu time spent up to now is     1089.0 secs

     total energy              =   -5268.18875729 Ry
     Harris-Foulkes estimate   =   -5268.18859348 Ry
     estimated scf accuracy    <       0.00066244 Ry

     total magnetization       =    32.73 Bohr mag/cell
     absolute magnetization    =    34.40 Bohr mag/cell

     iteration # 14     ecut=    71.00 Ry     beta= 0.10
     Davidson diagonalization with overlap
     ethr =  2.59E-07,  avg # of iterations =  2.9

     negative rho (up, down):  0.000E+00 2.460E-03

     total cpu time spent up to now is     1173.6 secs

     total energy              =   -5268.18885903 Ry
     Harris-Foulkes estimate   =   -5268.18886321 Ry
     estimated scf accuracy    <       0.00031316 Ry

     total magnetization       =    32.82 Bohr mag/cell
     absolute magnetization    =    34.55 Bohr mag/cell

     iteration # 15     ecut=    71.00 Ry     beta= 0.10
     Davidson diagonalization with overlap
     ethr =  1.22E-07,  avg # of iterations =  1.6

     negative rho (up, down):  0.000E+00 2.395E-03

     total cpu time spent up to now is     1236.0 secs

     total energy              =   -5268.18889311 Ry
     Harris-Foulkes estimate   =   -5268.18887773 Ry
     estimated scf accuracy    <       0.00007326 Ry

     total magnetization       =    32.84 Bohr mag/cell
     absolute magnetization    =    34.59 Bohr mag/cell

     iteration # 16     ecut=    71.00 Ry     beta= 0.10
     Davidson diagonalization with overlap
     ethr =  2.86E-08,  avg # of iterations =  2.9

     negative rho (up, down):  0.000E+00 2.459E-03

     total cpu time spent up to now is     1319.4 secs

     total energy              =   -5268.18890337 Ry
     Harris-Foulkes estimate   =   -5268.18890170 Ry
     estimated scf accuracy    <       0.00007536 Ry

     total magnetization       =    32.84 Bohr mag/cell
     absolute magnetization    =    34.58 Bohr mag/cell

     iteration # 17     ecut=    71.00 Ry     beta= 0.10
     Davidson diagonalization with overlap
     ethr =  2.86E-08,  avg # of iterations =  3.0

     negative rho (up, down):  0.000E+00 2.397E-03

     total cpu time spent up to now is     1411.8 secs

     total energy              =   -5268.18893392 Ry
     Harris-Foulkes estimate   =   -5268.18892778 Ry
     estimated scf accuracy    <       0.00004051 Ry

     total magnetization       =    32.88 Bohr mag/cell
     absolute magnetization    =    34.65 Bohr mag/cell

     iteration # 18     ecut=    71.00 Ry     beta= 0.10
     Davidson diagonalization with overlap
     ethr =  1.58E-08,  avg # of iterations =  2.5

     negative rho (up, down):  0.000E+00 2.418E-03

     total cpu time spent up to now is     1491.6 secs

     total energy              =   -5268.18894056 Ry
     Harris-Foulkes estimate   =   -5268.18894036 Ry
     estimated scf accuracy    <       0.00001806 Ry

     total magnetization       =    32.88 Bohr mag/cell
     absolute magnetization    =    34.64 Bohr mag/cell

     iteration # 19     ecut=    71.00 Ry     beta= 0.10
     Davidson diagonalization with overlap
     ethr =  7.05E-09,  avg # of iterations =  1.9

     negative rho (up, down):  0.000E+00 2.449E-03

     total cpu time spent up to now is     1558.7 secs

     total energy              =   -5268.18894167 Ry
     Harris-Foulkes estimate   =   -5268.18894232 Ry
     estimated scf accuracy    <       0.00000492 Ry

     total magnetization       =    32.90 Bohr mag/cell
     absolute magnetization    =    34.66 Bohr mag/cell

     iteration # 20     ecut=    71.00 Ry     beta= 0.10
     Davidson diagonalization with overlap
     ethr =  1.92E-09,  avg # of iterations =  3.2

     negative rho (up, down):  0.000E+00 2.448E-03

     total cpu time spent up to now is     1653.2 secs

     total energy              =   -5268.18894358 Ry
     Harris-Foulkes estimate   =   -5268.18894262 Ry
     estimated scf accuracy    <       0.00000246 Ry

     total magnetization       =    32.90 Bohr mag/cell
     absolute magnetization    =    34.67 Bohr mag/cell

     iteration # 21     ecut=    71.00 Ry     beta= 0.10
     Davidson diagonalization with overlap
     ethr =  9.60E-10,  avg # of iterations =  1.0

     negative rho (up, down):  0.000E+00 2.455E-03

     total cpu time spent up to now is     1708.7 secs

     total energy              =   -5268.18894489 Ry
     Harris-Foulkes estimate   =   -5268.18894374 Ry
     estimated scf accuracy    <       0.00000159 Ry

     total magnetization       =    32.91 Bohr mag/cell
     absolute magnetization    =    34.67 Bohr mag/cell

     iteration # 22     ecut=    71.00 Ry     beta= 0.10
     Davidson diagonalization with overlap
     ethr =  6.23E-10,  avg # of iterations =  2.6

     negative rho (up, down):  0.000E+00 2.467E-03
 
     Magnetic moment per site:
     atom:    1    charge:   14.3460    magn:    2.0994    constr:    0.0000
     atom:    2    charge:   14.3463    magn:    2.1018    constr:    0.0000
     atom:    3    charge:   14.3461    magn:    2.0991    constr:    0.0000
     atom:    4    charge:   14.3461    magn:    2.1016    constr:    0.0000
     atom:    5    charge:   14.3462    magn:    2.1006    constr:    0.0000
     atom:    6    charge:   14.3463    magn:    2.1018    constr:    0.0000
     atom:    7    charge:   14.3462    magn:    2.1001    constr:    0.0000
     atom:    8    charge:   14.3461    magn:    2.1016    constr:    0.0000
     atom:    9    charge:   14.3461    magn:    2.0991    constr:    0.0000
     atom:   10    charge:   14.3461    magn:    2.1016    constr:    0.0000
     atom:   11    charge:   14.3461    magn:    2.0987    constr:    0.0000
     atom:   12    charge:   14.3463    magn:    2.1018    constr:    0.0000
     atom:   13    charge:   14.3462    magn:    2.1001    constr:    0.0000
     atom:   14    charge:   14.3461    magn:    2.1016    constr:    0.0000
     atom:   15    charge:   14.3463    magn:    2.0998    constr:    0.0000
     atom:   16    charge:   14.3463    magn:    2.1018    constr:    0.0000

     total cpu time spent up to now is     1790.3 secs

     End of self-consistent calculation

     Number of k-points >= 100: set verbosity='high' to print the bands.

     the Fermi energy is    18.9744 ev

!    total energy              =   -5268.18894643 Ry
     Harris-Foulkes estimate   =   -5268.18894520 Ry
     estimated scf accuracy    <       0.00000079 Ry

     total all-electron energy =    -40728.933475 Ry

     The total energy is the sum of the following terms:

     one-electron contribution =   -1707.49236040 Ry
     hartree contribution      =    1022.31454596 Ry
     xc contribution           =    -444.26307807 Ry
     ewald contribution        =   -2814.20127672 Ry
     one-center paw contrib.   =   -1324.67089273 Ry
     smearing contrib. (-TS)   =       0.12411554 Ry

     total magnetization       =    32.91 Bohr mag/cell
     absolute magnetization    =    34.68 Bohr mag/cell

     convergence has been achieved in  22 iterations

     negative rho (up, down):  0.000E+00 2.467E-03

     Forces acting on atoms (cartesian axes, Ry/au):

     atom    1 type  1   force =     0.00000000    0.00000000    0.00000000
     atom    2 type  2   force =     0.00002143    0.00019333    0.00002143
     atom    3 type  1   force =     0.00000000    0.00000000    0.00000000
     atom    4 type  2   force =    -0.00013232    0.00012148    0.00013232
     atom    5 type  1   force =     0.00000000    0.00000000    0.00000000
     atom    6 type  2   force =     0.00002143   -0.00019333    0.00002143
     atom    7 type  1   force =     0.00000000   -0.00000000    0.00000000
     atom    8 type  2   force =    -0.00013232   -0.00012148    0.00013232
     atom    9 type  1   force =     0.00000000    0.00000000    0.00000000
     atom   10 type  2   force =     0.00013232    0.00012148   -0.00013232
     atom   11 type  1   force =     0.00000000    0.00000000    0.00000000
     atom   12 type  2   force =    -0.00002143    0.00019333   -0.00002143
     atom   13 type  1   force =     0.00000000    0.00000000    0.00000000
     atom   14 type  2   force =     0.00013232   -0.00012148   -0.00013232
     atom   15 type  1   force =     0.00000000    0.00000000    0.00000000
     atom   16 type  2   force =    -0.00002143   -0.00019333   -0.00002143

     Total force =     0.000594     Total SCF correction =     0.007208
     SCF correction compared to forces is large: reduce conv_thr to get better values


     Computing stress (Cartesian axis) and pressure


     negative rho (up, down):  0.000E+00 2.467E-03
          total   stress  (Ry/bohr**3)                   (kbar)     P=   -1.60
  -0.00001113   0.00000000  -0.00009314         -1.64      0.00    -13.70
   0.00000000  -0.00001040   0.00000000          0.00     -1.53      0.00
  -0.00009314   0.00000000  -0.00001113        -13.70      0.00     -1.64


     Writing output data file HbUXnsmbVtyqJzqi.save/
 
     init_run     :     21.26s CPU     22.18s WALL (       1 calls)
     electrons    :   1715.87s CPU   1766.79s WALL (       1 calls)
     forces       :      8.30s CPU      8.94s WALL (       1 calls)
     stress       :     21.80s CPU     22.05s WALL (       1 calls)

     Called by init_run:
     wfcinit      :     20.69s CPU     21.56s WALL (       1 calls)
     potinit      :      0.24s CPU      0.25s WALL (       1 calls)
     hinit0       :      0.22s CPU      0.23s WALL (       1 calls)

     Called by electrons:
     c_bands      :   1551.53s CPU   1593.75s WALL (      23 calls)
     sum_band     :    159.59s CPU    167.75s WALL (      23 calls)
     v_of_rho     :      0.36s CPU      0.37s WALL (      23 calls)
     newd         :      0.82s CPU      1.01s WALL (      23 calls)
     PAW_pot      :      3.52s CPU      3.78s WALL (      23 calls)
     mix_rho      :      0.15s CPU      0.15s WALL (      23 calls)

     Called by c_bands:
     init_us_2    :      8.52s CPU      8.63s WALL (   12250 calls)
     cegterg      :   1509.67s CPU   1551.44s WALL (    5750 calls)

     Called by sum_band:
     sum_band:bec :      2.37s CPU      2.41s WALL (    5750 calls)
     addusdens    :      1.28s CPU      1.46s WALL (      23 calls)

     Called by *egterg:
     h_psi        :    631.89s CPU    657.75s WALL (   19335 calls)
     s_psi        :     34.93s CPU     35.14s WALL (   19335 calls)
     g_psi        :      1.41s CPU      1.43s WALL (   13335 calls)
     cdiaghg      :    693.09s CPU    695.12s WALL (   18835 calls)

     Called by h_psi:
     h_psi:pot    :    628.21s CPU    654.03s WALL (   19335 calls)
     h_psi:calbec :     52.11s CPU     60.05s WALL (   19335 calls)
     vloc_psi     :    540.91s CPU    558.61s WALL (   19335 calls)
     add_vuspsi   :     35.03s CPU     35.26s WALL (   19335 calls)

     General routines
     calbec       :     79.48s CPU     91.80s WALL (   26335 calls)
     fft          :      0.44s CPU      0.46s WALL (     617 calls)
     ffts         :      0.05s CPU      0.22s WALL (      92 calls)
     fftw         :    630.45s CPU    651.15s WALL ( 4789818 calls)
     interpolate  :      0.07s CPU      0.14s WALL (      46 calls)
 
     Parallel routines
     fft_scatt_xy :     41.53s CPU     42.80s WALL ( 4790527 calls)
     fft_scatt_yz :    419.76s CPU    434.03s WALL ( 4790527 calls)
 
     PWSCF        : 29m42.29s CPU    31m23.16s WALL

 
   This run was terminated on:  22:56: 8   9Sep2020            

=------------------------------------------------------------------------------=
   JOB DONE.
=------------------------------------------------------------------------------=
