--------------------------------------------------------------------------
WARNING: No preset parameters were found for the device that Open MPI
detected:

  Local host:            bear-pg0206u39a
  Device name:           mlx5_0
  Device vendor ID:      0x02c9
  Device vendor part ID: 4123

Default device parameters will be used, which may result in lower
performance.  You can edit any of the files specified by the
btl_openib_device_param_files MCA parameter to set values for your
device.

NOTE: You can turn off this warning by setting the MCA parameter
      btl_openib_warn_no_device_params_found to 0.
--------------------------------------------------------------------------
--------------------------------------------------------------------------
WARNING: There was an error initializing an OpenFabrics device.

  Local host:   bear-pg0206u39a
  Local device: mlx5_0
--------------------------------------------------------------------------

     Program PWSCF v.6.3 starts on  9Sep2020 at 21:53:12 

     This program is part of the open-source Quantum ESPRESSO suite
     for quantum simulation of materials; please cite
         "P. Giannozzi et al., J. Phys.:Condens. Matter 21 395502 (2009);
         "P. Giannozzi et al., J. Phys.:Condens. Matter 29 465901 (2017);
          URL http://www.quantum-espresso.org", 
     in publications or presentations arising from this work. More details at
     http://www.quantum-espresso.org/quote

     Parallel version (MPI & OpenMP), running on      40 processor cores
     Number of MPI processes:                40
     Threads/MPI process:                     1

     MPI processes distributed on     1 nodes
     R & G space division:  proc/nbgrp/npool/nimage =      40
     Reading input from wd/ec/ec_5_006.in
Warning: card &IONS ignored
Warning: card ION_DYNAMICS = 'BFGS', ignored
Warning: card / ignored
Warning: card &CELL ignored
Warning: card CELL_DYNAMICS = 'BFGS', ignored
Warning: card CELL_FACTOR = 2.0, ignored
Warning: card PRESS = 0.0, ignored
Warning: card / ignored

     Current dimensions of program PWSCF are:
     Max number of different atomic species (ntypx) = 10
     Max number of k-points (npk) =  40000
     Max angular momentum in pseudopotentials (lmaxx) =  3
               file Fe.pbe-spn-kjpaw_psl.1.0.0.UPF: wavefunction(s)  3P 3D renormalized
               file Fe.pbe-spn-kjpaw_psl.1.0.0.UPF: wavefunction(s)  3P 3D renormalized

     Subspace diagonalization in iterative solution of the eigenvalue problem:
     a serial algorithm will be used

     Found symmetry operation: I + (  0.0000  0.0000 -0.5000)
     This is a supercell, fractional translations are disabled
 
     Parallelization info
     --------------------
     sticks:   dense  smooth     PW     G-vecs:    dense   smooth      PW
     Min          95      63     17                 4472     2401     355
     Max          96      64     18                 4478     2406     359
     Sum        3833    2537    717               179017    96129   14307
 


     bravais-lattice index     =            0
     lattice parameter (alat)  =      10.5935  a.u.
     unit-cell volume          =    1188.8329 (a.u.)^3
     number of atoms/cell      =           16
     number of atomic types    =            2
     number of electrons       =       256.00
     number of Kohn-Sham states=          154
     kinetic-energy cutoff     =      71.0000  Ry
     charge density cutoff     =     430.0000  Ry
     convergence threshold     =      1.0E-06
     mixing beta               =       0.1000
     number of iterations used =           10  plain     mixing
     Exchange-correlation      = SLA PW PBX PBC ( 1  4  3  4 0 0)

     celldm(1)=  10.593520  celldm(2)=   0.000000  celldm(3)=   0.000000
     celldm(4)=   0.000000  celldm(5)=   0.000000  celldm(6)=   0.000000

     crystal axes: (cart. coord. in units of alat)
               a(1) = (   1.000006   0.000000   0.004167 )  
               a(2) = (   0.000000   1.000006   0.000000 )  
               a(3) = (   0.004167   0.000000   1.000006 )  

     reciprocal axes: (cart. coord. in units 2 pi/alat)
               b(1) = (  1.000012  0.000000 -0.004167 )  
               b(2) = (  0.000000  0.999994  0.000000 )  
               b(3) = ( -0.004167  0.000000  1.000012 )  


     PseudoPot. # 1 for Fe read from file:
     /rds/homes/b/bxp912/pp/Fe.pbe-spn-kjpaw_psl.1.0.0.UPF
     MD5 check sum: 42f43b795421b414b0dc916aa790dbcb
     Pseudo is Projector augmented-wave + core cor, Zval = 16.0
     Generated using "atomic" code by A. Dal Corso v.6.3
     Shape of augmentation charge: PSQ
     Using radial grid of 1191 points,  6 beta functions with: 
                l(1) =   0
                l(2) =   0
                l(3) =   1
                l(4) =   1
                l(5) =   2
                l(6) =   2
     Q(r) pseudized with 0 coefficients 


     PseudoPot. # 2 for Fe read from file:
     /rds/homes/b/bxp912/pp/Fe.pbe-spn-kjpaw_psl.1.0.0.UPF
     MD5 check sum: 42f43b795421b414b0dc916aa790dbcb
     Pseudo is Projector augmented-wave + core cor, Zval = 16.0
     Generated using "atomic" code by A. Dal Corso v.6.3
     Shape of augmentation charge: PSQ
     Using radial grid of 1191 points,  6 beta functions with: 
                l(1) =   0
                l(2) =   0
                l(3) =   1
                l(4) =   1
                l(5) =   2
                l(6) =   2
     Q(r) pseudized with 0 coefficients 


     atomic species   valence    mass     pseudopotential
        Fe1           16.00    55.84500     Fe( 1.00)
        Fe2           16.00    55.84500     Fe( 1.00)

     Starting magnetic structure 
     atomic species   magnetization
        Fe1          0.100
        Fe2          0.100

      8 Sym. Ops., with inversion, found



   Cartesian axes

     site n.     atom                  positions (alat units)
         1           Fe1 tau(   1) = (   0.0000000   0.0000000   0.0000000  )
         2           Fe2 tau(   2) = (   0.2510436   0.2500019   0.2510436  )
         3           Fe1 tau(   3) = (   0.0020833   0.0000000   0.5000029  )
         4           Fe2 tau(   4) = (   0.2531269   0.2500019   0.7510456  )
         5           Fe1 tau(   5) = (   0.0000000   0.5000029   0.0000000  )
         6           Fe2 tau(   6) = (   0.2510436   0.7500039   0.2510436  )
         7           Fe1 tau(   7) = (   0.0020833   0.5000029   0.5000029  )
         8           Fe2 tau(   8) = (   0.2531269   0.7500039   0.7510456  )
         9           Fe1 tau(   9) = (   0.5000029   0.0000000   0.0020833  )
        10           Fe2 tau(  10) = (   0.7510456   0.2500019   0.2531269  )
        11           Fe1 tau(  11) = (   0.5020862   0.0000000   0.5020862  )
        12           Fe2 tau(  12) = (   0.7531289   0.2500019   0.7531289  )
        13           Fe1 tau(  13) = (   0.5000029   0.5000029   0.0020833  )
        14           Fe2 tau(  14) = (   0.7510456   0.7500039   0.2531269  )
        15           Fe1 tau(  15) = (   0.5020862   0.5000029   0.5020862  )
        16           Fe2 tau(  16) = (   0.7531289   0.7500039   0.7531289  )

     number of k points=   125  Marzari-Vanderbilt smearing, width (Ry)=  0.0400

     Number of k-points >= 100: set verbosity='high' to print them.

     Dense  grid:   179017 G-vectors     FFT dimensions: (  72,  72,  72)

     Smooth grid:    96129 G-vectors     FFT dimensions: (  60,  60,  60)

     Estimated max dynamical RAM per process >     215.38 MB

     Estimated total dynamical RAM >       8.41 GB
     Generating pointlists ...
     new r_m :   0.1781 (alat units)  1.8869 (a.u.) for type    1
     new r_m :   0.1781 (alat units)  1.8869 (a.u.) for type    2

     Check: negative/imaginary core charge=   -0.000006    0.000000

     Initial potential from superposition of free atoms

     starting charge  255.99300, renormalised to  256.00000
     Starting wfcs are  160 randomized atomic wfcs
     Checking if some PAW data can be deallocated... 

     total cpu time spent up to now is       23.7 secs

     Self-consistent Calculation

     iteration #  1     ecut=    71.00 Ry     beta= 0.10
     Davidson diagonalization with overlap
     ethr =  1.00E-02,  avg # of iterations =  3.4

     Threshold (ethr) on eigenvalues was too large:
     Diagonalizing with lowered threshold

     Davidson diagonalization with overlap
     ethr =  2.24E-04,  avg # of iterations =  3.7

     total cpu time spent up to now is      216.1 secs

     total energy              =   -5268.06182361 Ry
     Harris-Foulkes estimate   =   -5268.15154905 Ry
     estimated scf accuracy    <       0.65852099 Ry

     total magnetization       =    28.16 Bohr mag/cell
     absolute magnetization    =    28.30 Bohr mag/cell

     iteration #  2     ecut=    71.00 Ry     beta= 0.10
     Davidson diagonalization with overlap
     ethr =  2.57E-04,  avg # of iterations =  1.0

     total cpu time spent up to now is      271.9 secs

     total energy              =   -5268.00498318 Ry
     Harris-Foulkes estimate   =   -5268.07578649 Ry
     estimated scf accuracy    <       0.39575607 Ry

     total magnetization       =    28.76 Bohr mag/cell
     absolute magnetization    =    28.92 Bohr mag/cell

     iteration #  3     ecut=    71.00 Ry     beta= 0.10
     Davidson diagonalization with overlap
     ethr =  1.55E-04,  avg # of iterations =  2.8

     total cpu time spent up to now is      353.5 secs

     total energy              =   -5268.02631808 Ry
     Harris-Foulkes estimate   =   -5268.05112271 Ry
     estimated scf accuracy    <       0.53122712 Ry

     total magnetization       =    29.55 Bohr mag/cell
     absolute magnetization    =    29.84 Bohr mag/cell

     iteration #  4     ecut=    71.00 Ry     beta= 0.10
     Davidson diagonalization with overlap
     ethr =  1.55E-04,  avg # of iterations =  1.2

     total cpu time spent up to now is      411.5 secs

     total energy              =   -5268.05191823 Ry
     Harris-Foulkes estimate   =   -5268.05024476 Ry
     estimated scf accuracy    <       0.13908889 Ry

     total magnetization       =    30.21 Bohr mag/cell
     absolute magnetization    =    30.55 Bohr mag/cell

     iteration #  5     ecut=    71.00 Ry     beta= 0.10
     Davidson diagonalization with overlap
     ethr =  5.43E-05,  avg # of iterations =  1.3

     total cpu time spent up to now is      470.2 secs

     total energy              =   -5268.10325575 Ry
     Harris-Foulkes estimate   =   -5268.05454983 Ry
     estimated scf accuracy    <       0.10618189 Ry

     total magnetization       =    30.29 Bohr mag/cell
     absolute magnetization    =    30.65 Bohr mag/cell

     iteration #  6     ecut=    71.00 Ry     beta= 0.10
     Davidson diagonalization with overlap
     ethr =  4.15E-05,  avg # of iterations =  3.3

     negative rho (up, down):  0.000E+00 1.661E-04

     total cpu time spent up to now is      576.3 secs

     total energy              =   -5268.15871279 Ry
     Harris-Foulkes estimate   =   -5268.14317545 Ry
     estimated scf accuracy    <       0.15044776 Ry

     total magnetization       =    30.98 Bohr mag/cell
     absolute magnetization    =    31.72 Bohr mag/cell

     iteration #  7     ecut=    71.00 Ry     beta= 0.10
     Davidson diagonalization with overlap
     ethr =  4.15E-05,  avg # of iterations =  2.6

     negative rho (up, down):  0.000E+00 8.692E-04

     total cpu time spent up to now is      660.7 secs

     total energy              =   -5268.17507576 Ry
     Harris-Foulkes estimate   =   -5268.17138219 Ry
     estimated scf accuracy    <       0.05787827 Ry

     total magnetization       =    31.73 Bohr mag/cell
     absolute magnetization    =    32.80 Bohr mag/cell

     iteration #  8     ecut=    71.00 Ry     beta= 0.10
     Davidson diagonalization with overlap
     ethr =  2.26E-05,  avg # of iterations =  1.2

     negative rho (up, down):  0.000E+00 1.730E-03

     total cpu time spent up to now is      718.4 secs

     total energy              =   -5268.17961793 Ry
     Harris-Foulkes estimate   =   -5268.17710455 Ry
     estimated scf accuracy    <       0.03969269 Ry

     total magnetization       =    31.95 Bohr mag/cell
     absolute magnetization    =    33.11 Bohr mag/cell

     iteration #  9     ecut=    71.00 Ry     beta= 0.10
     Davidson diagonalization with overlap
     ethr =  1.55E-05,  avg # of iterations =  2.1

     negative rho (up, down):  0.000E+00 2.086E-03

     total cpu time spent up to now is      795.3 secs

     total energy              =   -5268.18662424 Ry
     Harris-Foulkes estimate   =   -5268.18443673 Ry
     estimated scf accuracy    <       0.01229955 Ry

     total magnetization       =    32.34 Bohr mag/cell
     absolute magnetization    =    33.75 Bohr mag/cell

     iteration # 10     ecut=    71.00 Ry     beta= 0.10
     Davidson diagonalization with overlap
     ethr =  4.80E-06,  avg # of iterations =  1.7

     negative rho (up, down):  0.000E+00 2.557E-03

     total cpu time spent up to now is      860.1 secs

     total energy              =   -5268.18766252 Ry
     Harris-Foulkes estimate   =   -5268.18715627 Ry
     estimated scf accuracy    <       0.00563643 Ry

     total magnetization       =    32.48 Bohr mag/cell
     absolute magnetization    =    33.96 Bohr mag/cell

     iteration # 11     ecut=    71.00 Ry     beta= 0.10
     Davidson diagonalization with overlap
     ethr =  2.20E-06,  avg # of iterations =  3.5

     negative rho (up, down):  0.000E+00 2.479E-03

     total cpu time spent up to now is      954.4 secs

     total energy              =   -5268.18847015 Ry
     Harris-Foulkes estimate   =   -5268.18843101 Ry
     estimated scf accuracy    <       0.00092696 Ry

     total magnetization       =    32.67 Bohr mag/cell
     absolute magnetization    =    34.32 Bohr mag/cell

     iteration # 12     ecut=    71.00 Ry     beta= 0.10
     Davidson diagonalization with overlap
     ethr =  3.62E-07,  avg # of iterations =  1.6

     negative rho (up, down):  0.000E+00 2.376E-03

     total cpu time spent up to now is     1017.6 secs

     total energy              =   -5268.18869784 Ry
     Harris-Foulkes estimate   =   -5268.18850446 Ry
     estimated scf accuracy    <       0.00067197 Ry

     total magnetization       =    32.69 Bohr mag/cell
     absolute magnetization    =    34.33 Bohr mag/cell

     iteration # 13     ecut=    71.00 Ry     beta= 0.10
     Davidson diagonalization with overlap
     ethr =  2.62E-07,  avg # of iterations =  2.4

     negative rho (up, down):  0.000E+00 2.433E-03

     total cpu time spent up to now is     1095.0 secs

     total energy              =   -5268.18893293 Ry
     Harris-Foulkes estimate   =   -5268.18877210 Ry
     estimated scf accuracy    <       0.00065925 Ry

     total magnetization       =    32.73 Bohr mag/cell
     absolute magnetization    =    34.40 Bohr mag/cell

     iteration # 14     ecut=    71.00 Ry     beta= 0.10
     Davidson diagonalization with overlap
     ethr =  2.58E-07,  avg # of iterations =  2.8

     negative rho (up, down):  0.000E+00 2.455E-03

     total cpu time spent up to now is     1178.3 secs

     total energy              =   -5268.18903324 Ry
     Harris-Foulkes estimate   =   -5268.18903745 Ry
     estimated scf accuracy    <       0.00030500 Ry

     total magnetization       =    32.82 Bohr mag/cell
     absolute magnetization    =    34.55 Bohr mag/cell

     iteration # 15     ecut=    71.00 Ry     beta= 0.10
     Davidson diagonalization with overlap
     ethr =  1.19E-07,  avg # of iterations =  1.5

     negative rho (up, down):  0.000E+00 2.388E-03

     total cpu time spent up to now is     1240.0 secs

     total energy              =   -5268.18906345 Ry
     Harris-Foulkes estimate   =   -5268.18905060 Ry
     estimated scf accuracy    <       0.00007317 Ry

     total magnetization       =    32.84 Bohr mag/cell
     absolute magnetization    =    34.58 Bohr mag/cell

     iteration # 16     ecut=    71.00 Ry     beta= 0.10
     Davidson diagonalization with overlap
     ethr =  2.86E-08,  avg # of iterations =  2.9

     negative rho (up, down):  0.000E+00 2.453E-03

     total cpu time spent up to now is     1324.5 secs

     total energy              =   -5268.18907474 Ry
     Harris-Foulkes estimate   =   -5268.18907270 Ry
     estimated scf accuracy    <       0.00007816 Ry

     total magnetization       =    32.84 Bohr mag/cell
     absolute magnetization    =    34.57 Bohr mag/cell

     iteration # 17     ecut=    71.00 Ry     beta= 0.10
     Davidson diagonalization with overlap
     ethr =  2.86E-08,  avg # of iterations =  3.1

     negative rho (up, down):  0.000E+00 2.402E-03

     total cpu time spent up to now is     1417.8 secs

     total energy              =   -5268.18910747 Ry
     Harris-Foulkes estimate   =   -5268.18910338 Ry
     estimated scf accuracy    <       0.00003152 Ry

     total magnetization       =    32.89 Bohr mag/cell
     absolute magnetization    =    34.65 Bohr mag/cell

     iteration # 18     ecut=    71.00 Ry     beta= 0.10
     Davidson diagonalization with overlap
     ethr =  1.23E-08,  avg # of iterations =  2.5

     negative rho (up, down):  0.000E+00 2.426E-03

     total cpu time spent up to now is     1498.5 secs

     total energy              =   -5268.18911222 Ry
     Harris-Foulkes estimate   =   -5268.18911222 Ry
     estimated scf accuracy    <       0.00001701 Ry

     total magnetization       =    32.88 Bohr mag/cell
     absolute magnetization    =    34.64 Bohr mag/cell

     iteration # 19     ecut=    71.00 Ry     beta= 0.10
     Davidson diagonalization with overlap
     ethr =  6.64E-09,  avg # of iterations =  2.0

     negative rho (up, down):  0.000E+00 2.449E-03

     total cpu time spent up to now is     1566.6 secs

     total energy              =   -5268.18911378 Ry
     Harris-Foulkes estimate   =   -5268.18911386 Ry
     estimated scf accuracy    <       0.00000429 Ry

     total magnetization       =    32.90 Bohr mag/cell
     absolute magnetization    =    34.66 Bohr mag/cell

     iteration # 20     ecut=    71.00 Ry     beta= 0.10
     Davidson diagonalization with overlap
     ethr =  1.68E-09,  avg # of iterations =  3.2

     negative rho (up, down):  0.000E+00 2.448E-03

     total cpu time spent up to now is     1660.3 secs

     total energy              =   -5268.18911561 Ry
     Harris-Foulkes estimate   =   -5268.18911442 Ry
     estimated scf accuracy    <       0.00000243 Ry

     total magnetization       =    32.90 Bohr mag/cell
     absolute magnetization    =    34.67 Bohr mag/cell

     iteration # 21     ecut=    71.00 Ry     beta= 0.10
     Davidson diagonalization with overlap
     ethr =  9.49E-10,  avg # of iterations =  1.6

     negative rho (up, down):  0.000E+00 2.455E-03

     total cpu time spent up to now is     1722.6 secs

     total energy              =   -5268.18911679 Ry
     Harris-Foulkes estimate   =   -5268.18911595 Ry
     estimated scf accuracy    <       0.00000161 Ry

     total magnetization       =    32.91 Bohr mag/cell
     absolute magnetization    =    34.67 Bohr mag/cell

     iteration # 22     ecut=    71.00 Ry     beta= 0.10
     Davidson diagonalization with overlap
     ethr =  6.28E-10,  avg # of iterations =  2.0

     negative rho (up, down):  0.000E+00 2.466E-03
 
     Magnetic moment per site:
     atom:    1    charge:   14.3495    magn:    2.0992    constr:    0.0000
     atom:    2    charge:   14.3496    magn:    2.1018    constr:    0.0000
     atom:    3    charge:   14.3495    magn:    2.0989    constr:    0.0000
     atom:    4    charge:   14.3495    magn:    2.1015    constr:    0.0000
     atom:    5    charge:   14.3496    magn:    2.1005    constr:    0.0000
     atom:    6    charge:   14.3496    magn:    2.1018    constr:    0.0000
     atom:    7    charge:   14.3495    magn:    2.1000    constr:    0.0000
     atom:    8    charge:   14.3495    magn:    2.1015    constr:    0.0000
     atom:    9    charge:   14.3495    magn:    2.0989    constr:    0.0000
     atom:   10    charge:   14.3495    magn:    2.1015    constr:    0.0000
     atom:   11    charge:   14.3495    magn:    2.0985    constr:    0.0000
     atom:   12    charge:   14.3496    magn:    2.1018    constr:    0.0000
     atom:   13    charge:   14.3495    magn:    2.1000    constr:    0.0000
     atom:   14    charge:   14.3495    magn:    2.1015    constr:    0.0000
     atom:   15    charge:   14.3495    magn:    2.0997    constr:    0.0000
     atom:   16    charge:   14.3496    magn:    2.1018    constr:    0.0000

     total cpu time spent up to now is     1791.3 secs

     End of self-consistent calculation

     Number of k-points >= 100: set verbosity='high' to print the bands.

     the Fermi energy is    18.9744 ev

!    total energy              =   -5268.18911827 Ry
     Harris-Foulkes estimate   =   -5268.18911692 Ry
     estimated scf accuracy    <       0.00000081 Ry

     total all-electron energy =    -40728.933647 Ry

     The total energy is the sum of the following terms:

     one-electron contribution =   -1707.47223760 Ry
     hartree contribution      =    1022.30200268 Ry
     xc contribution           =    -444.26202994 Ry
     ewald contribution        =   -2814.21004819 Ry
     one-center paw contrib.   =   -1324.67093603 Ry
     smearing contrib. (-TS)   =       0.12413080 Ry

     total magnetization       =    32.91 Bohr mag/cell
     absolute magnetization    =    34.67 Bohr mag/cell

     convergence has been achieved in  22 iterations

     negative rho (up, down):  0.000E+00 2.466E-03

     Forces acting on atoms (cartesian axes, Ry/au):

     atom    1 type  1   force =     0.00000000    0.00000000    0.00000000
     atom    2 type  2   force =     0.00002870    0.00018212    0.00002870
     atom    3 type  1   force =     0.00000000    0.00000000    0.00000000
     atom    4 type  2   force =    -0.00011237    0.00009042    0.00011237
     atom    5 type  1   force =     0.00000000    0.00000000    0.00000000
     atom    6 type  2   force =     0.00002870   -0.00018212    0.00002870
     atom    7 type  1   force =     0.00000000    0.00000000    0.00000000
     atom    8 type  2   force =    -0.00011237   -0.00009042    0.00011237
     atom    9 type  1   force =     0.00000000    0.00000000    0.00000000
     atom   10 type  2   force =     0.00011237    0.00009042   -0.00011237
     atom   11 type  1   force =     0.00000000    0.00000000    0.00000000
     atom   12 type  2   force =    -0.00002870    0.00018212   -0.00002870
     atom   13 type  1   force =     0.00000000    0.00000000    0.00000000
     atom   14 type  2   force =     0.00011237   -0.00009042   -0.00011237
     atom   15 type  1   force =     0.00000000    0.00000000    0.00000000
     atom   16 type  2   force =    -0.00002870   -0.00018212   -0.00002870

     Total force =     0.000522     Total SCF correction =     0.005947
     SCF correction compared to forces is large: reduce conv_thr to get better values


     Computing stress (Cartesian axis) and pressure


     negative rho (up, down):  0.000E+00 2.466E-03
          total   stress  (Ry/bohr**3)                   (kbar)     P=   -2.15
  -0.00001481   0.00000000  -0.00007762         -2.18      0.00    -11.42
   0.00000000  -0.00001430   0.00000000          0.00     -2.10      0.00
  -0.00007762   0.00000000  -0.00001481        -11.42      0.00     -2.18


     Writing output data file RUglffLLhAKKstBx.save/
 
     init_run     :     21.35s CPU     22.32s WALL (       1 calls)
     electrons    :   1714.86s CPU   1767.59s WALL (       1 calls)
     forces       :      7.68s CPU      8.37s WALL (       1 calls)
     stress       :     23.12s CPU     23.36s WALL (       1 calls)

     Called by init_run:
     wfcinit      :     20.86s CPU     21.72s WALL (       1 calls)
     potinit      :      0.23s CPU      0.25s WALL (       1 calls)
     hinit0       :      0.17s CPU      0.22s WALL (       1 calls)

     Called by electrons:
     c_bands      :   1550.43s CPU   1594.42s WALL (      23 calls)
     sum_band     :    159.78s CPU    168.06s WALL (      23 calls)
     v_of_rho     :      0.35s CPU      0.35s WALL (      23 calls)
     newd         :      0.72s CPU      0.92s WALL (      23 calls)
     PAW_pot      :      3.53s CPU      3.71s WALL (      23 calls)
     mix_rho      :      0.13s CPU      0.13s WALL (      23 calls)

     Called by c_bands:
     init_us_2    :      8.30s CPU      8.41s WALL (   12250 calls)
     cegterg      :   1508.75s CPU   1552.32s WALL (    5750 calls)

     Called by sum_band:
     sum_band:bec :      2.39s CPU      2.42s WALL (    5750 calls)
     addusdens    :      1.19s CPU      1.36s WALL (      23 calls)

     Called by *egterg:
     h_psi        :    635.08s CPU    662.06s WALL (   19371 calls)
     s_psi        :     34.96s CPU     35.17s WALL (   19371 calls)
     g_psi        :      1.42s CPU      1.44s WALL (   13371 calls)
     cdiaghg      :    690.44s CPU    692.71s WALL (   18871 calls)

     Called by h_psi:
     h_psi:pot    :    631.54s CPU    658.49s WALL (   19371 calls)
     h_psi:calbec :     51.83s CPU     60.14s WALL (   19371 calls)
     vloc_psi     :    544.86s CPU    563.23s WALL (   19371 calls)
     add_vuspsi   :     34.70s CPU     35.00s WALL (   19371 calls)

     General routines
     calbec       :     79.62s CPU     92.63s WALL (   26371 calls)
     fft          :      0.40s CPU      0.42s WALL (     617 calls)
     ffts         :      0.05s CPU      0.22s WALL (      92 calls)
     fftw         :    634.88s CPU    656.03s WALL ( 4777062 calls)
     interpolate  :      0.07s CPU      0.14s WALL (      46 calls)
 
     Parallel routines
     fft_scatt_xy :     41.64s CPU     42.86s WALL ( 4777771 calls)
     fft_scatt_yz :    427.28s CPU    441.84s WALL ( 4777771 calls)
 
     PWSCF        : 29m42.06s CPU    31m24.92s WALL

 
   This run was terminated on:  22:24:37   9Sep2020            

=------------------------------------------------------------------------------=
   JOB DONE.
=------------------------------------------------------------------------------=
