--------------------------------------------------------------------------
WARNING: No preset parameters were found for the device that Open MPI
detected:

  Local host:            bear-pg0206u39a
  Device name:           mlx5_0
  Device vendor ID:      0x02c9
  Device vendor part ID: 4123

Default device parameters will be used, which may result in lower
performance.  You can edit any of the files specified by the
btl_openib_device_param_files MCA parameter to set values for your
device.

NOTE: You can turn off this warning by setting the MCA parameter
      btl_openib_warn_no_device_params_found to 0.
--------------------------------------------------------------------------
--------------------------------------------------------------------------
WARNING: There was an error initializing an OpenFabrics device.

  Local host:   bear-pg0206u39a
  Local device: mlx5_0
--------------------------------------------------------------------------

     Program PWSCF v.6.3 starts on 10Sep2020 at  1:30: 0 

     This program is part of the open-source Quantum ESPRESSO suite
     for quantum simulation of materials; please cite
         "P. Giannozzi et al., J. Phys.:Condens. Matter 21 395502 (2009);
         "P. Giannozzi et al., J. Phys.:Condens. Matter 29 465901 (2017);
          URL http://www.quantum-espresso.org", 
     in publications or presentations arising from this work. More details at
     http://www.quantum-espresso.org/quote

     Parallel version (MPI & OpenMP), running on      40 processor cores
     Number of MPI processes:                40
     Threads/MPI process:                     1

     MPI processes distributed on     1 nodes
     R & G space division:  proc/nbgrp/npool/nimage =      40
     Reading input from wd/ec/ec_6_007.in
Warning: card &IONS ignored
Warning: card ION_DYNAMICS = 'BFGS', ignored
Warning: card / ignored
Warning: card &CELL ignored
Warning: card CELL_DYNAMICS = 'BFGS', ignored
Warning: card CELL_FACTOR = 2.0, ignored
Warning: card PRESS = 0.0, ignored
Warning: card / ignored

     Current dimensions of program PWSCF are:
     Max number of different atomic species (ntypx) = 10
     Max number of k-points (npk) =  40000
     Max angular momentum in pseudopotentials (lmaxx) =  3
               file Fe.pbe-spn-kjpaw_psl.1.0.0.UPF: wavefunction(s)  3P 3D renormalized
               file Fe.pbe-spn-kjpaw_psl.1.0.0.UPF: wavefunction(s)  3P 3D renormalized

     Subspace diagonalization in iterative solution of the eigenvalue problem:
     a serial algorithm will be used

     Found symmetry operation: I + (  0.0000  0.0000 -0.5000)
     This is a supercell, fractional translations are disabled
 
     Parallelization info
     --------------------
     sticks:   dense  smooth     PW     G-vecs:    dense   smooth      PW
     Min          95      63     17                 4471     2401     355
     Max          96      64     18                 4478     2406     360
     Sum        3825    2539    713               178997    96147   14303
 


     bravais-lattice index     =            0
     lattice parameter (alat)  =      10.5935  a.u.
     unit-cell volume          =    1188.8329 (a.u.)^3
     number of atoms/cell      =           16
     number of atomic types    =            2
     number of electrons       =       256.00
     number of Kohn-Sham states=          154
     kinetic-energy cutoff     =      71.0000  Ry
     charge density cutoff     =     430.0000  Ry
     convergence threshold     =      1.0E-06
     mixing beta               =       0.1000
     number of iterations used =           10  plain     mixing
     Exchange-correlation      = SLA PW PBX PBC ( 1  4  3  4 0 0)

     celldm(1)=  10.593520  celldm(2)=   0.000000  celldm(3)=   0.000000
     celldm(4)=   0.000000  celldm(5)=   0.000000  celldm(6)=   0.000000

     crystal axes: (cart. coord. in units of alat)
               a(1) = (   1.000008   0.005000   0.000000 )  
               a(2) = (   0.005000   1.000008   0.000000 )  
               a(3) = (   0.000000   0.000000   1.000008 )  

     reciprocal axes: (cart. coord. in units 2 pi/alat)
               b(1) = (  1.000017 -0.005000  0.000000 )  
               b(2) = ( -0.005000  1.000017  0.000000 )  
               b(3) = (  0.000000  0.000000  0.999992 )  


     PseudoPot. # 1 for Fe read from file:
     /rds/homes/b/bxp912/pp/Fe.pbe-spn-kjpaw_psl.1.0.0.UPF
     MD5 check sum: 42f43b795421b414b0dc916aa790dbcb
     Pseudo is Projector augmented-wave + core cor, Zval = 16.0
     Generated using "atomic" code by A. Dal Corso v.6.3
     Shape of augmentation charge: PSQ
     Using radial grid of 1191 points,  6 beta functions with: 
                l(1) =   0
                l(2) =   0
                l(3) =   1
                l(4) =   1
                l(5) =   2
                l(6) =   2
     Q(r) pseudized with 0 coefficients 


     PseudoPot. # 2 for Fe read from file:
     /rds/homes/b/bxp912/pp/Fe.pbe-spn-kjpaw_psl.1.0.0.UPF
     MD5 check sum: 42f43b795421b414b0dc916aa790dbcb
     Pseudo is Projector augmented-wave + core cor, Zval = 16.0
     Generated using "atomic" code by A. Dal Corso v.6.3
     Shape of augmentation charge: PSQ
     Using radial grid of 1191 points,  6 beta functions with: 
                l(1) =   0
                l(2) =   0
                l(3) =   1
                l(4) =   1
                l(5) =   2
                l(6) =   2
     Q(r) pseudized with 0 coefficients 


     atomic species   valence    mass     pseudopotential
        Fe1           16.00    55.84500     Fe( 1.00)
        Fe2           16.00    55.84500     Fe( 1.00)

     Starting magnetic structure 
     atomic species   magnetization
        Fe1          0.100
        Fe2          0.100

      8 Sym. Ops., with inversion, found



   Cartesian axes

     site n.     atom                  positions (alat units)
         1           Fe1 tau(   1) = (   0.0000000   0.0000000   0.0000000  )
         2           Fe2 tau(   2) = (   0.2512525   0.2512525   0.2500025  )
         3           Fe1 tau(   3) = (   0.0000000   0.0000000   0.5000042  )
         4           Fe2 tau(   4) = (   0.2512525   0.2512525   0.7500058  )
         5           Fe1 tau(   5) = (   0.0025000   0.5000042   0.0000000  )
         6           Fe2 tau(   6) = (   0.2537525   0.7512558   0.2500025  )
         7           Fe1 tau(   7) = (   0.0025000   0.5000042   0.5000042  )
         8           Fe2 tau(   8) = (   0.2537525   0.7512558   0.7500058  )
         9           Fe1 tau(   9) = (   0.5000042   0.0025000   0.0000000  )
        10           Fe2 tau(  10) = (   0.7512558   0.2537525   0.2500025  )
        11           Fe1 tau(  11) = (   0.5000042   0.0025000   0.5000042  )
        12           Fe2 tau(  12) = (   0.7512558   0.2537525   0.7500058  )
        13           Fe1 tau(  13) = (   0.5025042   0.5025042   0.0000000  )
        14           Fe2 tau(  14) = (   0.7537558   0.7537558   0.2500025  )
        15           Fe1 tau(  15) = (   0.5025042   0.5025042   0.5000042  )
        16           Fe2 tau(  16) = (   0.7537558   0.7537558   0.7500058  )

     number of k points=   125  Marzari-Vanderbilt smearing, width (Ry)=  0.0400

     Number of k-points >= 100: set verbosity='high' to print them.

     Dense  grid:   178997 G-vectors     FFT dimensions: (  72,  72,  72)

     Smooth grid:    96147 G-vectors     FFT dimensions: (  60,  60,  60)

     Estimated max dynamical RAM per process >     215.38 MB

     Estimated total dynamical RAM >       8.41 GB
     Generating pointlists ...
     new r_m :   0.1780 (alat units)  1.8859 (a.u.) for type    1
     new r_m :   0.1780 (alat units)  1.8859 (a.u.) for type    2

     Check: negative/imaginary core charge=   -0.000006    0.000000

     Initial potential from superposition of free atoms

     starting charge  255.99300, renormalised to  256.00000
     Starting wfcs are  160 randomized atomic wfcs
     Checking if some PAW data can be deallocated... 

     total cpu time spent up to now is       23.4 secs

     Self-consistent Calculation

     iteration #  1     ecut=    71.00 Ry     beta= 0.10
     Davidson diagonalization with overlap
     ethr =  1.00E-02,  avg # of iterations =  3.4

     Threshold (ethr) on eigenvalues was too large:
     Diagonalizing with lowered threshold

     Davidson diagonalization with overlap
     ethr =  2.16E-04,  avg # of iterations =  3.6

     total cpu time spent up to now is      218.2 secs

     total energy              =   -5268.02442227 Ry
     Harris-Foulkes estimate   =   -5268.09701641 Ry
     estimated scf accuracy    <       0.63308344 Ry

     total magnetization       =    27.93 Bohr mag/cell
     absolute magnetization    =    28.05 Bohr mag/cell

     iteration #  2     ecut=    71.00 Ry     beta= 0.10
     Davidson diagonalization with overlap
     ethr =  2.47E-04,  avg # of iterations =  1.0

     total cpu time spent up to now is      273.8 secs

     total energy              =   -5267.99297771 Ry
     Harris-Foulkes estimate   =   -5268.03860773 Ry
     estimated scf accuracy    <       0.38574140 Ry

     total magnetization       =    28.58 Bohr mag/cell
     absolute magnetization    =    28.73 Bohr mag/cell

     iteration #  3     ecut=    71.00 Ry     beta= 0.10
     Davidson diagonalization with overlap
     ethr =  1.51E-04,  avg # of iterations =  2.4

     total cpu time spent up to now is      348.4 secs

     total energy              =   -5268.01984557 Ry
     Harris-Foulkes estimate   =   -5268.02973412 Ry
     estimated scf accuracy    <       0.40007361 Ry

     total magnetization       =    29.35 Bohr mag/cell
     absolute magnetization    =    29.62 Bohr mag/cell

     iteration #  4     ecut=    71.00 Ry     beta= 0.10
     Davidson diagonalization with overlap
     ethr =  1.51E-04,  avg # of iterations =  1.5

     total cpu time spent up to now is      409.8 secs

     total energy              =   -5268.04453390 Ry
     Harris-Foulkes estimate   =   -5268.04143455 Ry
     estimated scf accuracy    <       0.13106243 Ry

     total magnetization       =    30.13 Bohr mag/cell
     absolute magnetization    =    30.45 Bohr mag/cell

     iteration #  5     ecut=    71.00 Ry     beta= 0.10
     Davidson diagonalization with overlap
     ethr =  5.12E-05,  avg # of iterations =  1.6

     total cpu time spent up to now is      472.2 secs

     total energy              =   -5268.10582975 Ry
     Harris-Foulkes estimate   =   -5268.04733248 Ry
     estimated scf accuracy    <       0.10610512 Ry

     total magnetization       =    30.21 Bohr mag/cell
     absolute magnetization    =    30.57 Bohr mag/cell

     iteration #  6     ecut=    71.00 Ry     beta= 0.10
     Davidson diagonalization with overlap
     ethr =  4.14E-05,  avg # of iterations =  3.3

     negative rho (up, down):  0.000E+00 8.057E-04

     total cpu time spent up to now is      574.9 secs

     total energy              =   -5268.16027690 Ry
     Harris-Foulkes estimate   =   -5268.14039130 Ry
     estimated scf accuracy    <       0.13369122 Ry

     total magnetization       =    31.01 Bohr mag/cell
     absolute magnetization    =    31.75 Bohr mag/cell

     iteration #  7     ecut=    71.00 Ry     beta= 0.10
     Davidson diagonalization with overlap
     ethr =  4.14E-05,  avg # of iterations =  2.7

     negative rho (up, down):  0.000E+00 1.169E-03

     total cpu time spent up to now is      659.6 secs

     total energy              =   -5268.17679455 Ry
     Harris-Foulkes estimate   =   -5268.17696510 Ry
     estimated scf accuracy    <       0.03959804 Ry

     total magnetization       =    31.87 Bohr mag/cell
     absolute magnetization    =    33.03 Bohr mag/cell

     iteration #  8     ecut=    71.00 Ry     beta= 0.10
     Davidson diagonalization with overlap
     ethr =  1.55E-05,  avg # of iterations =  1.2

     negative rho (up, down):  0.000E+00 1.298E-03

     total cpu time spent up to now is      717.3 secs

     total energy              =   -5268.17897153 Ry
     Harris-Foulkes estimate   =   -5268.17847496 Ry
     estimated scf accuracy    <       0.02727562 Ry

     total magnetization       =    32.03 Bohr mag/cell
     absolute magnetization    =    33.24 Bohr mag/cell

     iteration #  9     ecut=    71.00 Ry     beta= 0.10
     Davidson diagonalization with overlap
     ethr =  1.07E-05,  avg # of iterations =  2.0

     negative rho (up, down):  0.000E+00 1.875E-03

     total cpu time spent up to now is      788.7 secs

     total energy              =   -5268.18530212 Ry
     Harris-Foulkes estimate   =   -5268.18091997 Ry
     estimated scf accuracy    <       0.01325023 Ry

     total magnetization       =    32.26 Bohr mag/cell
     absolute magnetization    =    33.61 Bohr mag/cell

     iteration # 10     ecut=    71.00 Ry     beta= 0.10
     Davidson diagonalization with overlap
     ethr =  5.18E-06,  avg # of iterations =  1.9

     negative rho (up, down):  0.000E+00 2.424E-03

     total cpu time spent up to now is      856.8 secs

     total energy              =   -5268.18737184 Ry
     Harris-Foulkes estimate   =   -5268.18605771 Ry
     estimated scf accuracy    <       0.00595508 Ry

     total magnetization       =    32.46 Bohr mag/cell
     absolute magnetization    =    33.91 Bohr mag/cell

     iteration # 11     ecut=    71.00 Ry     beta= 0.10
     Davidson diagonalization with overlap
     ethr =  2.33E-06,  avg # of iterations =  3.4

     negative rho (up, down):  0.000E+00 2.323E-03

     total cpu time spent up to now is      949.1 secs

     total energy              =   -5268.18816451 Ry
     Harris-Foulkes estimate   =   -5268.18815679 Ry
     estimated scf accuracy    <       0.00135204 Ry

     total magnetization       =    32.64 Bohr mag/cell
     absolute magnetization    =    34.26 Bohr mag/cell

     iteration # 12     ecut=    71.00 Ry     beta= 0.10
     Davidson diagonalization with overlap
     ethr =  5.28E-07,  avg # of iterations =  1.6

     negative rho (up, down):  0.000E+00 2.317E-03

     total cpu time spent up to now is     1011.7 secs

     total energy              =   -5268.18850158 Ry
     Harris-Foulkes estimate   =   -5268.18822154 Ry
     estimated scf accuracy    <       0.00080109 Ry

     total magnetization       =    32.66 Bohr mag/cell
     absolute magnetization    =    34.29 Bohr mag/cell

     iteration # 13     ecut=    71.00 Ry     beta= 0.10
     Davidson diagonalization with overlap
     ethr =  3.13E-07,  avg # of iterations =  2.5

     negative rho (up, down):  0.000E+00 2.404E-03

     total cpu time spent up to now is     1091.0 secs

     total energy              =   -5268.18875698 Ry
     Harris-Foulkes estimate   =   -5268.18860192 Ry
     estimated scf accuracy    <       0.00110748 Ry

     total magnetization       =    32.73 Bohr mag/cell
     absolute magnetization    =    34.40 Bohr mag/cell

     iteration # 14     ecut=    71.00 Ry     beta= 0.10
     Davidson diagonalization with overlap
     ethr =  3.13E-07,  avg # of iterations =  2.2

     negative rho (up, down):  0.000E+00 2.436E-03

     total cpu time spent up to now is     1164.7 secs

     total energy              =   -5268.18881296 Ry
     Harris-Foulkes estimate   =   -5268.18882603 Ry
     estimated scf accuracy    <       0.00060973 Ry

     total magnetization       =    32.80 Bohr mag/cell
     absolute magnetization    =    34.51 Bohr mag/cell

     iteration # 15     ecut=    71.00 Ry     beta= 0.10
     Davidson diagonalization with overlap
     ethr =  2.38E-07,  avg # of iterations =  1.4

     negative rho (up, down):  0.000E+00 2.339E-03

     total cpu time spent up to now is     1224.8 secs

     total energy              =   -5268.18886600 Ry
     Harris-Foulkes estimate   =   -5268.18884713 Ry
     estimated scf accuracy    <       0.00010895 Ry

     total magnetization       =    32.82 Bohr mag/cell
     absolute magnetization    =    34.55 Bohr mag/cell

     iteration # 16     ecut=    71.00 Ry     beta= 0.10
     Davidson diagonalization with overlap
     ethr =  4.26E-08,  avg # of iterations =  2.9

     negative rho (up, down):  0.000E+00 2.434E-03

     total cpu time spent up to now is     1310.7 secs

     total energy              =   -5268.18889457 Ry
     Harris-Foulkes estimate   =   -5268.18888396 Ry
     estimated scf accuracy    <       0.00015789 Ry

     total magnetization       =    32.83 Bohr mag/cell
     absolute magnetization    =    34.55 Bohr mag/cell

     iteration # 17     ecut=    71.00 Ry     beta= 0.10
     Davidson diagonalization with overlap
     ethr =  4.26E-08,  avg # of iterations =  3.0

     negative rho (up, down):  0.000E+00 2.410E-03

     total cpu time spent up to now is     1399.8 secs

     total energy              =   -5268.18893584 Ry
     Harris-Foulkes estimate   =   -5268.18892706 Ry
     estimated scf accuracy    <       0.00004352 Ry

     total magnetization       =    32.87 Bohr mag/cell
     absolute magnetization    =    34.63 Bohr mag/cell

     iteration # 18     ecut=    71.00 Ry     beta= 0.10
     Davidson diagonalization with overlap
     ethr =  1.70E-08,  avg # of iterations =  2.2

     negative rho (up, down):  0.000E+00 2.411E-03

     total cpu time spent up to now is     1471.2 secs

     total energy              =   -5268.18894166 Ry
     Harris-Foulkes estimate   =   -5268.18894020 Ry
     estimated scf accuracy    <       0.00002030 Ry

     total magnetization       =    32.88 Bohr mag/cell
     absolute magnetization    =    34.64 Bohr mag/cell

     iteration # 19     ecut=    71.00 Ry     beta= 0.10
     Davidson diagonalization with overlap
     ethr =  7.93E-09,  avg # of iterations =  1.1

     negative rho (up, down):  0.000E+00 2.437E-03

     total cpu time spent up to now is     1528.8 secs

     total energy              =   -5268.18894166 Ry
     Harris-Foulkes estimate   =   -5268.18894225 Ry
     estimated scf accuracy    <       0.00001190 Ry

     total magnetization       =    32.89 Bohr mag/cell
     absolute magnetization    =    34.64 Bohr mag/cell

     iteration # 20     ecut=    71.00 Ry     beta= 0.10
     Davidson diagonalization with overlap
     ethr =  4.65E-09,  avg # of iterations =  3.1

     negative rho (up, down):  0.000E+00 2.446E-03

     total cpu time spent up to now is     1617.6 secs

     total energy              =   -5268.18894453 Ry
     Harris-Foulkes estimate   =   -5268.18894419 Ry
     estimated scf accuracy    <       0.00000349 Ry

     total magnetization       =    32.90 Bohr mag/cell
     absolute magnetization    =    34.67 Bohr mag/cell

     iteration # 21     ecut=    71.00 Ry     beta= 0.10
     Davidson diagonalization with overlap
     ethr =  1.36E-09,  avg # of iterations =  1.5

     negative rho (up, down):  0.000E+00 2.446E-03

     total cpu time spent up to now is     1678.2 secs

     total energy              =   -5268.18894522 Ry
     Harris-Foulkes estimate   =   -5268.18894485 Ry
     estimated scf accuracy    <       0.00000103 Ry

     total magnetization       =    32.91 Bohr mag/cell
     absolute magnetization    =    34.67 Bohr mag/cell

     iteration # 22     ecut=    71.00 Ry     beta= 0.10
     Davidson diagonalization with overlap
     ethr =  4.03E-10,  avg # of iterations =  1.8

     negative rho (up, down):  0.000E+00 2.465E-03
 
     Magnetic moment per site:
     atom:    1    charge:   14.3462    magn:    2.0996    constr:    0.0000
     atom:    2    charge:   14.3462    magn:    2.1007    constr:    0.0000
     atom:    3    charge:   14.3461    magn:    2.1003    constr:    0.0000
     atom:    4    charge:   14.3462    magn:    2.1007    constr:    0.0000
     atom:    5    charge:   14.3462    magn:    2.0996    constr:    0.0000
     atom:    6    charge:   14.3461    magn:    2.1010    constr:    0.0000
     atom:    7    charge:   14.3462    magn:    2.1000    constr:    0.0000
     atom:    8    charge:   14.3461    magn:    2.1010    constr:    0.0000
     atom:    9    charge:   14.3462    magn:    2.0996    constr:    0.0000
     atom:   10    charge:   14.3461    magn:    2.1010    constr:    0.0000
     atom:   11    charge:   14.3462    magn:    2.1000    constr:    0.0000
     atom:   12    charge:   14.3461    magn:    2.1010    constr:    0.0000
     atom:   13    charge:   14.3462    magn:    2.0994    constr:    0.0000
     atom:   14    charge:   14.3462    magn:    2.1007    constr:    0.0000
     atom:   15    charge:   14.3462    magn:    2.1001    constr:    0.0000
     atom:   16    charge:   14.3462    magn:    2.1007    constr:    0.0000

     total cpu time spent up to now is     1742.4 secs

     End of self-consistent calculation

     Number of k-points >= 100: set verbosity='high' to print the bands.

     the Fermi energy is    18.9746 ev

!    total energy              =   -5268.18894662 Ry
     Harris-Foulkes estimate   =   -5268.18894526 Ry
     estimated scf accuracy    <       0.00000065 Ry

     total all-electron energy =    -40728.933476 Ry

     The total energy is the sum of the following terms:

     one-electron contribution =   -1707.49056577 Ry
     hartree contribution      =    1022.31212899 Ry
     xc contribution           =    -444.26231815 Ry
     ewald contribution        =   -2814.20127672 Ry
     one-center paw contrib.   =   -1324.67098515 Ry
     smearing contrib. (-TS)   =       0.12407017 Ry

     total magnetization       =    32.91 Bohr mag/cell
     absolute magnetization    =    34.67 Bohr mag/cell

     convergence has been achieved in  22 iterations

     negative rho (up, down):  0.000E+00 2.465E-03

     Forces acting on atoms (cartesian axes, Ry/au):

     atom    1 type  1   force =     0.00000000    0.00000000    0.00000000
     atom    2 type  2   force =     0.00002497    0.00002497    0.00001027
     atom    3 type  1   force =     0.00000000    0.00000000    0.00000000
     atom    4 type  2   force =     0.00002497    0.00002497   -0.00001027
     atom    5 type  1   force =     0.00000000    0.00000000    0.00000000
     atom    6 type  2   force =     0.00014519   -0.00014519    0.00025086
     atom    7 type  1   force =     0.00000000    0.00000000    0.00000000
     atom    8 type  2   force =     0.00014519   -0.00014519   -0.00025086
     atom    9 type  1   force =     0.00000000    0.00000000    0.00000000
     atom   10 type  2   force =    -0.00014519    0.00014519    0.00025086
     atom   11 type  1   force =     0.00000000    0.00000000    0.00000000
     atom   12 type  2   force =    -0.00014519    0.00014519   -0.00025086
     atom   13 type  1   force =     0.00000000    0.00000000    0.00000000
     atom   14 type  2   force =    -0.00002497   -0.00002497    0.00001027
     atom   15 type  1   force =     0.00000000    0.00000000    0.00000000
     atom   16 type  2   force =    -0.00002497   -0.00002497   -0.00001027

     Total force =     0.000653     Total SCF correction =     0.004364
     SCF correction compared to forces is large: reduce conv_thr to get better values


     Computing stress (Cartesian axis) and pressure


     negative rho (up, down):  0.000E+00 2.465E-03
          total   stress  (Ry/bohr**3)                   (kbar)     P=   -1.77
  -0.00001230  -0.00009281   0.00000000         -1.81    -13.65      0.00
  -0.00009281  -0.00001230   0.00000000        -13.65     -1.81      0.00
   0.00000000   0.00000000  -0.00001141          0.00      0.00     -1.68


     Writing output data file jxhvshXDNcKpBwiG.save/
 
     init_run     :     21.27s CPU     22.19s WALL (       1 calls)
     electrons    :   1666.26s CPU   1719.00s WALL (       1 calls)
     forces       :      7.68s CPU      8.38s WALL (       1 calls)
     stress       :     21.70s CPU     21.92s WALL (       1 calls)

     Called by init_run:
     wfcinit      :     20.78s CPU     21.65s WALL (       1 calls)
     potinit      :      0.21s CPU      0.24s WALL (       1 calls)
     hinit0       :      0.17s CPU      0.18s WALL (       1 calls)

     Called by electrons:
     c_bands      :   1501.21s CPU   1544.87s WALL (      23 calls)
     sum_band     :    160.49s CPU    168.91s WALL (      23 calls)
     v_of_rho     :      0.34s CPU      0.35s WALL (      23 calls)
     newd         :      0.73s CPU      0.92s WALL (      23 calls)
     PAW_pot      :      3.42s CPU      3.77s WALL (      23 calls)
     mix_rho      :      0.12s CPU      0.14s WALL (      23 calls)

     Called by c_bands:
     init_us_2    :      8.79s CPU      8.97s WALL (   12250 calls)
     cegterg      :   1459.20s CPU   1502.26s WALL (    5750 calls)

     Called by sum_band:
     sum_band:bec :      2.41s CPU      2.45s WALL (    5750 calls)
     addusdens    :      1.23s CPU      1.41s WALL (      23 calls)

     Called by *egterg:
     h_psi        :    623.28s CPU    649.84s WALL (   18801 calls)
     s_psi        :     34.61s CPU     34.83s WALL (   18801 calls)
     g_psi        :      1.41s CPU      1.43s WALL (   12801 calls)
     cdiaghg      :    657.80s CPU    659.84s WALL (   18301 calls)

     Called by h_psi:
     h_psi:pot    :    620.08s CPU    646.60s WALL (   18801 calls)
     h_psi:calbec :     51.55s CPU     59.90s WALL (   18801 calls)
     vloc_psi     :    533.11s CPU    551.07s WALL (   18801 calls)
     add_vuspsi   :     35.26s CPU     35.51s WALL (   18801 calls)

     General routines
     calbec       :     78.71s CPU     91.75s WALL (   25801 calls)
     fft          :      0.42s CPU      0.45s WALL (     617 calls)
     ffts         :      0.12s CPU      0.30s WALL (      92 calls)
     fftw         :    623.16s CPU    643.94s WALL ( 4747200 calls)
     interpolate  :      0.10s CPU      0.20s WALL (      46 calls)
 
     Parallel routines
     fft_scatt_xy :     41.19s CPU     42.54s WALL ( 4747909 calls)
     fft_scatt_yz :    415.56s CPU    429.72s WALL ( 4747909 calls)
 
     PWSCF        : 28m52.00s CPU    30m35.03s WALL

 
   This run was terminated on:   2: 0:35  10Sep2020            

=------------------------------------------------------------------------------=
   JOB DONE.
=------------------------------------------------------------------------------=
