--------------------------------------------------------------------------
WARNING: No preset parameters were found for the device that Open MPI
detected:

  Local host:            bear-pg0206u39a
  Device name:           mlx5_0
  Device vendor ID:      0x02c9
  Device vendor part ID: 4123

Default device parameters will be used, which may result in lower
performance.  You can edit any of the files specified by the
btl_openib_device_param_files MCA parameter to set values for your
device.

NOTE: You can turn off this warning by setting the MCA parameter
      btl_openib_warn_no_device_params_found to 0.
--------------------------------------------------------------------------
--------------------------------------------------------------------------
WARNING: There was an error initializing an OpenFabrics device.

  Local host:   bear-pg0206u39a
  Local device: mlx5_0
--------------------------------------------------------------------------

     Program PWSCF v.6.3 starts on  9Sep2020 at 22:56:10 

     This program is part of the open-source Quantum ESPRESSO suite
     for quantum simulation of materials; please cite
         "P. Giannozzi et al., J. Phys.:Condens. Matter 21 395502 (2009);
         "P. Giannozzi et al., J. Phys.:Condens. Matter 29 465901 (2017);
          URL http://www.quantum-espresso.org", 
     in publications or presentations arising from this work. More details at
     http://www.quantum-espresso.org/quote

     Parallel version (MPI & OpenMP), running on      40 processor cores
     Number of MPI processes:                40
     Threads/MPI process:                     1

     MPI processes distributed on     1 nodes
     R & G space division:  proc/nbgrp/npool/nimage =      40
     Reading input from wd/ec/ec_6_002.in
Warning: card &IONS ignored
Warning: card ION_DYNAMICS = 'BFGS', ignored
Warning: card / ignored
Warning: card &CELL ignored
Warning: card CELL_DYNAMICS = 'BFGS', ignored
Warning: card CELL_FACTOR = 2.0, ignored
Warning: card PRESS = 0.0, ignored
Warning: card / ignored

     Current dimensions of program PWSCF are:
     Max number of different atomic species (ntypx) = 10
     Max number of k-points (npk) =  40000
     Max angular momentum in pseudopotentials (lmaxx) =  3
               file Fe.pbe-spn-kjpaw_psl.1.0.0.UPF: wavefunction(s)  3P 3D renormalized
               file Fe.pbe-spn-kjpaw_psl.1.0.0.UPF: wavefunction(s)  3P 3D renormalized

     Subspace diagonalization in iterative solution of the eigenvalue problem:
     a serial algorithm will be used

     Found symmetry operation: I + (  0.0000  0.0000  0.5000)
     This is a supercell, fractional translations are disabled
 
     Parallelization info
     --------------------
     sticks:   dense  smooth     PW     G-vecs:    dense   smooth      PW
     Min          95      63     17                 4472     2401     355
     Max          96      64     18                 4478     2406     360
     Sum        3837    2541    717               178977    96109   14339
 


     bravais-lattice index     =            0
     lattice parameter (alat)  =      10.5935  a.u.
     unit-cell volume          =    1188.8329 (a.u.)^3
     number of atoms/cell      =           16
     number of atomic types    =            2
     number of electrons       =       256.00
     number of Kohn-Sham states=          154
     kinetic-energy cutoff     =      71.0000  Ry
     charge density cutoff     =     430.0000  Ry
     convergence threshold     =      1.0E-06
     mixing beta               =       0.1000
     number of iterations used =           10  plain     mixing
     Exchange-correlation      = SLA PW PBX PBC ( 1  4  3  4 0 0)

     celldm(1)=  10.593520  celldm(2)=   0.000000  celldm(3)=   0.000000
     celldm(4)=   0.000000  celldm(5)=   0.000000  celldm(6)=   0.000000

     crystal axes: (cart. coord. in units of alat)
               a(1) = (   1.000000   0.000833   0.000000 )  
               a(2) = (   0.000833   1.000000   0.000000 )  
               a(3) = (   0.000000   0.000000   1.000000 )  

     reciprocal axes: (cart. coord. in units 2 pi/alat)
               b(1) = (  1.000000 -0.000833  0.000000 )  
               b(2) = ( -0.000833  1.000000  0.000000 )  
               b(3) = (  0.000000  0.000000  1.000000 )  


     PseudoPot. # 1 for Fe read from file:
     /rds/homes/b/bxp912/pp/Fe.pbe-spn-kjpaw_psl.1.0.0.UPF
     MD5 check sum: 42f43b795421b414b0dc916aa790dbcb
     Pseudo is Projector augmented-wave + core cor, Zval = 16.0
     Generated using "atomic" code by A. Dal Corso v.6.3
     Shape of augmentation charge: PSQ
     Using radial grid of 1191 points,  6 beta functions with: 
                l(1) =   0
                l(2) =   0
                l(3) =   1
                l(4) =   1
                l(5) =   2
                l(6) =   2
     Q(r) pseudized with 0 coefficients 


     PseudoPot. # 2 for Fe read from file:
     /rds/homes/b/bxp912/pp/Fe.pbe-spn-kjpaw_psl.1.0.0.UPF
     MD5 check sum: 42f43b795421b414b0dc916aa790dbcb
     Pseudo is Projector augmented-wave + core cor, Zval = 16.0
     Generated using "atomic" code by A. Dal Corso v.6.3
     Shape of augmentation charge: PSQ
     Using radial grid of 1191 points,  6 beta functions with: 
                l(1) =   0
                l(2) =   0
                l(3) =   1
                l(4) =   1
                l(5) =   2
                l(6) =   2
     Q(r) pseudized with 0 coefficients 


     atomic species   valence    mass     pseudopotential
        Fe1           16.00    55.84500     Fe( 1.00)
        Fe2           16.00    55.84500     Fe( 1.00)

     Starting magnetic structure 
     atomic species   magnetization
        Fe1          0.100
        Fe2          0.100

      8 Sym. Ops., with inversion, found



   Cartesian axes

     site n.     atom                  positions (alat units)
         1           Fe1 tau(   1) = (   0.0000000   0.0000000   0.0000000  )
         2           Fe2 tau(   2) = (   0.2502088   0.2502088   0.2500005  )
         3           Fe1 tau(   3) = (   0.0000000   0.0000000   0.5000001  )
         4           Fe2 tau(   4) = (   0.2502088   0.2502088   0.7499997  )
         5           Fe1 tau(   5) = (   0.0004167   0.5000001   0.0000000  )
         6           Fe2 tau(   6) = (   0.2506255   0.7502081   0.2500005  )
         7           Fe1 tau(   7) = (   0.0004167   0.5000001   0.5000001  )
         8           Fe2 tau(   8) = (   0.2506255   0.7502081   0.7499997  )
         9           Fe1 tau(   9) = (   0.5000001   0.0004167   0.0000000  )
        10           Fe2 tau(  10) = (   0.7502081   0.2506255   0.2500005  )
        11           Fe1 tau(  11) = (   0.5000001   0.0004167   0.5000001  )
        12           Fe2 tau(  12) = (   0.7502081   0.2506255   0.7499997  )
        13           Fe1 tau(  13) = (   0.5004168   0.5004168   0.0000000  )
        14           Fe2 tau(  14) = (   0.7506247   0.7506247   0.2500005  )
        15           Fe1 tau(  15) = (   0.5004168   0.5004168   0.5000001  )
        16           Fe2 tau(  16) = (   0.7506247   0.7506247   0.7499997  )

     number of k points=   125  Marzari-Vanderbilt smearing, width (Ry)=  0.0400

     Number of k-points >= 100: set verbosity='high' to print them.

     Dense  grid:   178977 G-vectors     FFT dimensions: (  72,  72,  72)

     Smooth grid:    96109 G-vectors     FFT dimensions: (  60,  60,  60)

     Estimated max dynamical RAM per process >     215.38 MB

     Estimated total dynamical RAM >       8.41 GB
     Generating pointlists ...
     new r_m :   0.1785 (alat units)  1.8911 (a.u.) for type    1
     new r_m :   0.1785 (alat units)  1.8911 (a.u.) for type    2

     Check: negative/imaginary core charge=   -0.000006    0.000000

     Initial potential from superposition of free atoms

     starting charge  255.99300, renormalised to  256.00000
     Starting wfcs are  160 randomized atomic wfcs
     Checking if some PAW data can be deallocated... 

     total cpu time spent up to now is       23.5 secs

     Self-consistent Calculation

     iteration #  1     ecut=    71.00 Ry     beta= 0.10
     Davidson diagonalization with overlap
     ethr =  1.00E-02,  avg # of iterations =  3.4

     Threshold (ethr) on eigenvalues was too large:
     Diagonalizing with lowered threshold

     Davidson diagonalization with overlap
     ethr =  2.16E-04,  avg # of iterations =  3.6

     total cpu time spent up to now is      215.3 secs

     total energy              =   -5268.02498808 Ry
     Harris-Foulkes estimate   =   -5268.09763143 Ry
     estimated scf accuracy    <       0.63346756 Ry

     total magnetization       =    27.93 Bohr mag/cell
     absolute magnetization    =    28.05 Bohr mag/cell

     iteration #  2     ecut=    71.00 Ry     beta= 0.10
     Davidson diagonalization with overlap
     ethr =  2.47E-04,  avg # of iterations =  1.0

     total cpu time spent up to now is      271.3 secs

     total energy              =   -5267.99346580 Ry
     Harris-Foulkes estimate   =   -5268.03918075 Ry
     estimated scf accuracy    <       0.38578237 Ry

     total magnetization       =    28.58 Bohr mag/cell
     absolute magnetization    =    28.72 Bohr mag/cell

     iteration #  3     ecut=    71.00 Ry     beta= 0.10
     Davidson diagonalization with overlap
     ethr =  1.51E-04,  avg # of iterations =  2.4

     total cpu time spent up to now is      347.0 secs

     total energy              =   -5268.02049769 Ry
     Harris-Foulkes estimate   =   -5268.03028686 Ry
     estimated scf accuracy    <       0.39912486 Ry

     total magnetization       =    29.35 Bohr mag/cell
     absolute magnetization    =    29.62 Bohr mag/cell

     iteration #  4     ecut=    71.00 Ry     beta= 0.10
     Davidson diagonalization with overlap
     ethr =  1.51E-04,  avg # of iterations =  1.5

     total cpu time spent up to now is      409.2 secs

     total energy              =   -5268.04508823 Ry
     Harris-Foulkes estimate   =   -5268.04202561 Ry
     estimated scf accuracy    <       0.13135545 Ry

     total magnetization       =    30.13 Bohr mag/cell
     absolute magnetization    =    30.45 Bohr mag/cell

     iteration #  5     ecut=    71.00 Ry     beta= 0.10
     Davidson diagonalization with overlap
     ethr =  5.13E-05,  avg # of iterations =  1.6

     total cpu time spent up to now is      471.5 secs

     total energy              =   -5268.10622375 Ry
     Harris-Foulkes estimate   =   -5268.04787706 Ry
     estimated scf accuracy    <       0.10600379 Ry

     total magnetization       =    30.21 Bohr mag/cell
     absolute magnetization    =    30.56 Bohr mag/cell

     iteration #  6     ecut=    71.00 Ry     beta= 0.10
     Davidson diagonalization with overlap
     ethr =  4.14E-05,  avg # of iterations =  3.3

     negative rho (up, down):  0.000E+00 6.836E-04

     total cpu time spent up to now is      573.4 secs

     total energy              =   -5268.16134643 Ry
     Harris-Foulkes estimate   =   -5268.14058588 Ry
     estimated scf accuracy    <       0.13420107 Ry

     total magnetization       =    31.00 Bohr mag/cell
     absolute magnetization    =    31.75 Bohr mag/cell

     iteration #  7     ecut=    71.00 Ry     beta= 0.10
     Davidson diagonalization with overlap
     ethr =  4.14E-05,  avg # of iterations =  2.7

     negative rho (up, down):  0.000E+00 1.227E-03

     total cpu time spent up to now is      657.2 secs

     total energy              =   -5268.17794670 Ry
     Harris-Foulkes estimate   =   -5268.17670054 Ry
     estimated scf accuracy    <       0.04358258 Ry

     total magnetization       =    31.84 Bohr mag/cell
     absolute magnetization    =    32.97 Bohr mag/cell

     iteration #  8     ecut=    71.00 Ry     beta= 0.10
     Davidson diagonalization with overlap
     ethr =  1.70E-05,  avg # of iterations =  1.4

     negative rho (up, down):  0.000E+00 1.292E-03

     total cpu time spent up to now is      718.0 secs

     total energy              =   -5268.17904834 Ry
     Harris-Foulkes estimate   =   -5268.17980416 Ry
     estimated scf accuracy    <       0.02728231 Ry

     total magnetization       =    32.02 Bohr mag/cell
     absolute magnetization    =    33.23 Bohr mag/cell

     iteration #  9     ecut=    71.00 Ry     beta= 0.10
     Davidson diagonalization with overlap
     ethr =  1.07E-05,  avg # of iterations =  2.2

     negative rho (up, down):  0.000E+00 1.808E-03

     total cpu time spent up to now is      792.1 secs

     total energy              =   -5268.18547914 Ry
     Harris-Foulkes estimate   =   -5268.18135354 Ry
     estimated scf accuracy    <       0.01415753 Ry

     total magnetization       =    32.26 Bohr mag/cell
     absolute magnetization    =    33.60 Bohr mag/cell

     iteration # 10     ecut=    71.00 Ry     beta= 0.10
     Davidson diagonalization with overlap
     ethr =  5.53E-06,  avg # of iterations =  1.3

     negative rho (up, down):  0.000E+00 2.418E-03

     total cpu time spent up to now is      851.3 secs

     total energy              =   -5268.18772397 Ry
     Harris-Foulkes estimate   =   -5268.18614207 Ry
     estimated scf accuracy    <       0.00657054 Ry

     total magnetization       =    32.43 Bohr mag/cell
     absolute magnetization    =    33.86 Bohr mag/cell

     iteration # 11     ecut=    71.00 Ry     beta= 0.10
     Davidson diagonalization with overlap
     ethr =  2.57E-06,  avg # of iterations =  3.3

     negative rho (up, down):  0.000E+00 2.377E-03

     total cpu time spent up to now is      943.0 secs

     total energy              =   -5268.18868428 Ry
     Harris-Foulkes estimate   =   -5268.18866747 Ry
     estimated scf accuracy    <       0.00138629 Ry

     total magnetization       =    32.63 Bohr mag/cell
     absolute magnetization    =    34.25 Bohr mag/cell

     iteration # 12     ecut=    71.00 Ry     beta= 0.10
     Davidson diagonalization with overlap
     ethr =  5.42E-07,  avg # of iterations =  1.2

     negative rho (up, down):  0.000E+00 2.329E-03

     total cpu time spent up to now is     1003.9 secs

     total energy              =   -5268.18896198 Ry
     Harris-Foulkes estimate   =   -5268.18871366 Ry
     estimated scf accuracy    <       0.00099562 Ry

     total magnetization       =    32.64 Bohr mag/cell
     absolute magnetization    =    34.26 Bohr mag/cell

     iteration # 13     ecut=    71.00 Ry     beta= 0.10
     Davidson diagonalization with overlap
     ethr =  3.89E-07,  avg # of iterations =  2.5

     negative rho (up, down):  0.000E+00 2.414E-03

     total cpu time spent up to now is     1081.3 secs

     total energy              =   -5268.18925770 Ry
     Harris-Foulkes estimate   =   -5268.18910384 Ry
     estimated scf accuracy    <       0.00118754 Ry

     total magnetization       =    32.72 Bohr mag/cell
     absolute magnetization    =    34.38 Bohr mag/cell

     iteration # 14     ecut=    71.00 Ry     beta= 0.10
     Davidson diagonalization with overlap
     ethr =  3.89E-07,  avg # of iterations =  2.0

     negative rho (up, down):  0.000E+00 2.460E-03

     total cpu time spent up to now is     1153.7 secs

     total energy              =   -5268.18932828 Ry
     Harris-Foulkes estimate   =   -5268.18934217 Ry
     estimated scf accuracy    <       0.00061271 Ry

     total magnetization       =    32.79 Bohr mag/cell
     absolute magnetization    =    34.50 Bohr mag/cell

     iteration # 15     ecut=    71.00 Ry     beta= 0.10
     Davidson diagonalization with overlap
     ethr =  2.39E-07,  avg # of iterations =  1.4

     negative rho (up, down):  0.000E+00 2.358E-03

     total cpu time spent up to now is     1213.6 secs

     total energy              =   -5268.18939402 Ry
     Harris-Foulkes estimate   =   -5268.18936165 Ry
     estimated scf accuracy    <       0.00010425 Ry

     total magnetization       =    32.81 Bohr mag/cell
     absolute magnetization    =    34.55 Bohr mag/cell

     iteration # 16     ecut=    71.00 Ry     beta= 0.10
     Davidson diagonalization with overlap
     ethr =  4.07E-08,  avg # of iterations =  3.2

     negative rho (up, down):  0.000E+00 2.432E-03

     total cpu time spent up to now is     1309.0 secs

     total energy              =   -5268.18942303 Ry
     Harris-Foulkes estimate   =   -5268.18941593 Ry
     estimated scf accuracy    <       0.00015683 Ry

     total magnetization       =    32.82 Bohr mag/cell
     absolute magnetization    =    34.55 Bohr mag/cell

     iteration # 17     ecut=    71.00 Ry     beta= 0.10
     Davidson diagonalization with overlap
     ethr =  4.07E-08,  avg # of iterations =  2.8

     negative rho (up, down):  0.000E+00 2.427E-03

     total cpu time spent up to now is     1397.8 secs

     total energy              =   -5268.18946353 Ry
     Harris-Foulkes estimate   =   -5268.18946009 Ry
     estimated scf accuracy    <       0.00002475 Ry

     total magnetization       =    32.87 Bohr mag/cell
     absolute magnetization    =    34.63 Bohr mag/cell

     iteration # 18     ecut=    71.00 Ry     beta= 0.10
     Davidson diagonalization with overlap
     ethr =  9.67E-09,  avg # of iterations =  1.9

     negative rho (up, down):  0.000E+00 2.418E-03

     total cpu time spent up to now is     1463.6 secs

     total energy              =   -5268.18946715 Ry
     Harris-Foulkes estimate   =   -5268.18946509 Ry
     estimated scf accuracy    <       0.00001768 Ry

     total magnetization       =    32.87 Bohr mag/cell
     absolute magnetization    =    34.63 Bohr mag/cell

     iteration # 19     ecut=    71.00 Ry     beta= 0.10
     Davidson diagonalization with overlap
     ethr =  6.91E-09,  avg # of iterations =  1.1

     negative rho (up, down):  0.000E+00 2.421E-03

     total cpu time spent up to now is     1519.8 secs

     total energy              =   -5268.18946797 Ry
     Harris-Foulkes estimate   =   -5268.18946778 Ry
     estimated scf accuracy    <       0.00001057 Ry

     total magnetization       =    32.88 Bohr mag/cell
     absolute magnetization    =    34.64 Bohr mag/cell

     iteration # 20     ecut=    71.00 Ry     beta= 0.10
     Davidson diagonalization with overlap
     ethr =  4.13E-09,  avg # of iterations =  3.1

     negative rho (up, down):  0.000E+00 2.431E-03

     total cpu time spent up to now is     1613.2 secs

     total energy              =   -5268.18947162 Ry
     Harris-Foulkes estimate   =   -5268.18947123 Ry
     estimated scf accuracy    <       0.00000252 Ry

     total magnetization       =    32.89 Bohr mag/cell
     absolute magnetization    =    34.66 Bohr mag/cell

     iteration # 21     ecut=    71.00 Ry     beta= 0.10
     Davidson diagonalization with overlap
     ethr =  9.85E-10,  avg # of iterations =  1.6

     negative rho (up, down):  0.000E+00 2.433E-03

     total cpu time spent up to now is     1677.3 secs

     total energy              =   -5268.18947191 Ry
     Harris-Foulkes estimate   =   -5268.18947178 Ry
     estimated scf accuracy    <       0.00000154 Ry

     total magnetization       =    32.89 Bohr mag/cell
     absolute magnetization    =    34.66 Bohr mag/cell

     iteration # 22     ecut=    71.00 Ry     beta= 0.10
     Davidson diagonalization with overlap
     ethr =  6.02E-10,  avg # of iterations =  1.0

     negative rho (up, down):  0.000E+00 2.455E-03

     total cpu time spent up to now is     1733.3 secs

     total energy              =   -5268.18947170 Ry
     Harris-Foulkes estimate   =   -5268.18947195 Ry
     estimated scf accuracy    <       0.00000103 Ry

     total magnetization       =    32.90 Bohr mag/cell
     absolute magnetization    =    34.66 Bohr mag/cell

     iteration # 23     ecut=    71.00 Ry     beta= 0.10
     Davidson diagonalization with overlap
     ethr =  4.02E-10,  avg # of iterations =  2.5

     negative rho (up, down):  0.000E+00 2.465E-03
 
     Magnetic moment per site:
     atom:    1    charge:   14.3631    magn:    2.0999    constr:    0.0000
     atom:    2    charge:   14.3630    magn:    2.1006    constr:    0.0000
     atom:    3    charge:   14.3631    magn:    2.1005    constr:    0.0000
     atom:    4    charge:   14.3630    magn:    2.1006    constr:    0.0000
     atom:    5    charge:   14.3631    magn:    2.0998    constr:    0.0000
     atom:    6    charge:   14.3631    magn:    2.1009    constr:    0.0000
     atom:    7    charge:   14.3630    magn:    2.1002    constr:    0.0000
     atom:    8    charge:   14.3631    magn:    2.1009    constr:    0.0000
     atom:    9    charge:   14.3631    magn:    2.0998    constr:    0.0000
     atom:   10    charge:   14.3631    magn:    2.1009    constr:    0.0000
     atom:   11    charge:   14.3630    magn:    2.1002    constr:    0.0000
     atom:   12    charge:   14.3631    magn:    2.1009    constr:    0.0000
     atom:   13    charge:   14.3630    magn:    2.0997    constr:    0.0000
     atom:   14    charge:   14.3630    magn:    2.1006    constr:    0.0000
     atom:   15    charge:   14.3629    magn:    2.1003    constr:    0.0000
     atom:   16    charge:   14.3630    magn:    2.1006    constr:    0.0000

     total cpu time spent up to now is     1820.2 secs

     End of self-consistent calculation

     Number of k-points >= 100: set verbosity='high' to print the bands.

     the Fermi energy is    18.9741 ev

!    total energy              =   -5268.18947284 Ry
     Harris-Foulkes estimate   =   -5268.18947202 Ry
     estimated scf accuracy    <       0.00000029 Ry

     total all-electron energy =    -40728.934002 Ry

     The total energy is the sum of the following terms:

     one-electron contribution =   -1707.44011387 Ry
     hartree contribution      =    1022.28810130 Ry
     xc contribution           =    -444.26126866 Ry
     ewald contribution        =   -2814.22918537 Ry
     one-center paw contrib.   =   -1324.67117852 Ry
     smearing contrib. (-TS)   =       0.12417229 Ry

     total magnetization       =    32.90 Bohr mag/cell
     absolute magnetization    =    34.66 Bohr mag/cell

     convergence has been achieved in  23 iterations

     negative rho (up, down):  0.000E+00 2.465E-03

     Forces acting on atoms (cartesian axes, Ry/au):

     atom    1 type  1   force =     0.00000000    0.00000000    0.00000000
     atom    2 type  2   force =     0.00002536    0.00002536   -0.00004078
     atom    3 type  1   force =     0.00000000    0.00000000    0.00000000
     atom    4 type  2   force =     0.00002536    0.00002536    0.00004078
     atom    5 type  1   force =     0.00000000    0.00000000    0.00000000
     atom    6 type  2   force =     0.00012923   -0.00012923    0.00011626
     atom    7 type  1   force =     0.00000000    0.00000000    0.00000000
     atom    8 type  2   force =     0.00012923   -0.00012923   -0.00011626
     atom    9 type  1   force =     0.00000000    0.00000000    0.00000000
     atom   10 type  2   force =    -0.00012923    0.00012923    0.00011626
     atom   11 type  1   force =     0.00000000    0.00000000    0.00000000
     atom   12 type  2   force =    -0.00012923    0.00012923   -0.00011626
     atom   13 type  1   force =     0.00000000    0.00000000    0.00000000
     atom   14 type  2   force =    -0.00002536   -0.00002536   -0.00004078
     atom   15 type  1   force =     0.00000000    0.00000000    0.00000000
     atom   16 type  2   force =    -0.00002536   -0.00002536    0.00004078

     Total force =     0.000447     Total SCF correction =     0.001269
     SCF correction compared to forces is large: reduce conv_thr to get better values


     Computing stress (Cartesian axis) and pressure


     negative rho (up, down):  0.000E+00 2.465E-03
          total   stress  (Ry/bohr**3)                   (kbar)     P=   -1.02
  -0.00000696  -0.00001546   0.00000000         -1.02     -2.27      0.00
  -0.00001546  -0.00000696   0.00000000         -2.27     -1.02      0.00
   0.00000000   0.00000000  -0.00000680          0.00      0.00     -1.00


     Writing output data file CnvKeKNndNdAxOra.save/
 
     init_run     :     21.17s CPU     22.16s WALL (       1 calls)
     electrons    :   1742.00s CPU   1796.86s WALL (       1 calls)
     forces       :      7.63s CPU      8.33s WALL (       1 calls)
     stress       :     22.75s CPU     23.00s WALL (       1 calls)

     Called by init_run:
     wfcinit      :     20.74s CPU     21.64s WALL (       1 calls)
     potinit      :      0.20s CPU      0.22s WALL (       1 calls)
     hinit0       :      0.12s CPU      0.18s WALL (       1 calls)

     Called by electrons:
     c_bands      :   1565.73s CPU   1611.23s WALL (      24 calls)
     sum_band     :    169.59s CPU    178.26s WALL (      24 calls)
     v_of_rho     :      0.37s CPU      0.38s WALL (      24 calls)
     newd         :      0.80s CPU      1.00s WALL (      24 calls)
     PAW_pot      :      3.57s CPU      3.88s WALL (      24 calls)
     mix_rho      :      1.93s CPU      2.03s WALL (      24 calls)

     Called by c_bands:
     init_us_2    :      8.85s CPU      8.97s WALL (   12750 calls)
     cegterg      :   1521.76s CPU   1566.78s WALL (    6000 calls)

     Called by sum_band:
     sum_band:bec :      2.51s CPU      2.55s WALL (    6000 calls)
     addusdens    :      1.37s CPU      1.55s WALL (      24 calls)

     Called by *egterg:
     h_psi        :    656.28s CPU    683.77s WALL (   19221 calls)
     s_psi        :     36.62s CPU     36.84s WALL (   19221 calls)
     g_psi        :      1.48s CPU      1.50s WALL (   12971 calls)
     cdiaghg      :    674.94s CPU    677.16s WALL (   18721 calls)

     Called by h_psi:
     h_psi:pot    :    652.47s CPU    679.90s WALL (   19221 calls)
     h_psi:calbec :     53.86s CPU     62.81s WALL (   19221 calls)
     vloc_psi     :    562.35s CPU    580.61s WALL (   19221 calls)
     add_vuspsi   :     36.10s CPU     36.36s WALL (   19221 calls)

     General routines
     calbec       :     82.85s CPU     96.76s WALL (   26471 calls)
     fft          :      0.76s CPU      0.84s WALL (     642 calls)
     ffts         :      0.06s CPU      0.23s WALL (      96 calls)
     fftw         :    657.54s CPU    678.72s WALL ( 4984870 calls)
     interpolate  :      0.07s CPU      0.14s WALL (      48 calls)
 
     Parallel routines
     fft_scatt_xy :     43.19s CPU     44.53s WALL ( 4985608 calls)
     fft_scatt_yz :    440.19s CPU    454.73s WALL ( 4985608 calls)
 
     PWSCF        : 30m 8.63s CPU    31m53.98s WALL

 
   This run was terminated on:  23:28: 4   9Sep2020            

=------------------------------------------------------------------------------=
   JOB DONE.
=------------------------------------------------------------------------------=
