--------------------------------------------------------------------------
WARNING: No preset parameters were found for the device that Open MPI
detected:

  Local host:            bear-pg0206u39a
  Device name:           mlx5_0
  Device vendor ID:      0x02c9
  Device vendor part ID: 4123

Default device parameters will be used, which may result in lower
performance.  You can edit any of the files specified by the
btl_openib_device_param_files MCA parameter to set values for your
device.

NOTE: You can turn off this warning by setting the MCA parameter
      btl_openib_warn_no_device_params_found to 0.
--------------------------------------------------------------------------
--------------------------------------------------------------------------
WARNING: There was an error initializing an OpenFabrics device.

  Local host:   bear-pg0206u39a
  Local device: mlx5_0
--------------------------------------------------------------------------

     Program PWSCF v.6.3 starts on 10Sep2020 at  0:59:27 

     This program is part of the open-source Quantum ESPRESSO suite
     for quantum simulation of materials; please cite
         "P. Giannozzi et al., J. Phys.:Condens. Matter 21 395502 (2009);
         "P. Giannozzi et al., J. Phys.:Condens. Matter 29 465901 (2017);
          URL http://www.quantum-espresso.org", 
     in publications or presentations arising from this work. More details at
     http://www.quantum-espresso.org/quote

     Parallel version (MPI & OpenMP), running on      40 processor cores
     Number of MPI processes:                40
     Threads/MPI process:                     1

     MPI processes distributed on     1 nodes
     R & G space division:  proc/nbgrp/npool/nimage =      40
     Reading input from wd/ec/ec_6_006.in
Warning: card &IONS ignored
Warning: card ION_DYNAMICS = 'BFGS', ignored
Warning: card / ignored
Warning: card &CELL ignored
Warning: card CELL_DYNAMICS = 'BFGS', ignored
Warning: card CELL_FACTOR = 2.0, ignored
Warning: card PRESS = 0.0, ignored
Warning: card / ignored

     Current dimensions of program PWSCF are:
     Max number of different atomic species (ntypx) = 10
     Max number of k-points (npk) =  40000
     Max angular momentum in pseudopotentials (lmaxx) =  3
               file Fe.pbe-spn-kjpaw_psl.1.0.0.UPF: wavefunction(s)  3P 3D renormalized
               file Fe.pbe-spn-kjpaw_psl.1.0.0.UPF: wavefunction(s)  3P 3D renormalized

     Subspace diagonalization in iterative solution of the eigenvalue problem:
     a serial algorithm will be used

     Found symmetry operation: I + (  0.0000  0.0000 -0.5000)
     This is a supercell, fractional translations are disabled
 
     Parallelization info
     --------------------
     sticks:   dense  smooth     PW     G-vecs:    dense   smooth      PW
     Min          95      63     17                 4473     2401     355
     Max          96      64     18                 4478     2406     360
     Sum        3825    2545    717               179017    96129   14307
 


     bravais-lattice index     =            0
     lattice parameter (alat)  =      10.5935  a.u.
     unit-cell volume          =    1188.8329 (a.u.)^3
     number of atoms/cell      =           16
     number of atomic types    =            2
     number of electrons       =       256.00
     number of Kohn-Sham states=          154
     kinetic-energy cutoff     =      71.0000  Ry
     charge density cutoff     =     430.0000  Ry
     convergence threshold     =      1.0E-06
     mixing beta               =       0.1000
     number of iterations used =           10  plain     mixing
     Exchange-correlation      = SLA PW PBX PBC ( 1  4  3  4 0 0)

     celldm(1)=  10.593520  celldm(2)=   0.000000  celldm(3)=   0.000000
     celldm(4)=   0.000000  celldm(5)=   0.000000  celldm(6)=   0.000000

     crystal axes: (cart. coord. in units of alat)
               a(1) = (   1.000006   0.004167   0.000000 )  
               a(2) = (   0.004167   1.000006   0.000000 )  
               a(3) = (   0.000000   0.000000   1.000006 )  

     reciprocal axes: (cart. coord. in units 2 pi/alat)
               b(1) = (  1.000012 -0.004167  0.000000 )  
               b(2) = ( -0.004167  1.000012  0.000000 )  
               b(3) = (  0.000000  0.000000  0.999994 )  


     PseudoPot. # 1 for Fe read from file:
     /rds/homes/b/bxp912/pp/Fe.pbe-spn-kjpaw_psl.1.0.0.UPF
     MD5 check sum: 42f43b795421b414b0dc916aa790dbcb
     Pseudo is Projector augmented-wave + core cor, Zval = 16.0
     Generated using "atomic" code by A. Dal Corso v.6.3
     Shape of augmentation charge: PSQ
     Using radial grid of 1191 points,  6 beta functions with: 
                l(1) =   0
                l(2) =   0
                l(3) =   1
                l(4) =   1
                l(5) =   2
                l(6) =   2
     Q(r) pseudized with 0 coefficients 


     PseudoPot. # 2 for Fe read from file:
     /rds/homes/b/bxp912/pp/Fe.pbe-spn-kjpaw_psl.1.0.0.UPF
     MD5 check sum: 42f43b795421b414b0dc916aa790dbcb
     Pseudo is Projector augmented-wave + core cor, Zval = 16.0
     Generated using "atomic" code by A. Dal Corso v.6.3
     Shape of augmentation charge: PSQ
     Using radial grid of 1191 points,  6 beta functions with: 
                l(1) =   0
                l(2) =   0
                l(3) =   1
                l(4) =   1
                l(5) =   2
                l(6) =   2
     Q(r) pseudized with 0 coefficients 


     atomic species   valence    mass     pseudopotential
        Fe1           16.00    55.84500     Fe( 1.00)
        Fe2           16.00    55.84500     Fe( 1.00)

     Starting magnetic structure 
     atomic species   magnetization
        Fe1          0.100
        Fe2          0.100

      8 Sym. Ops., with inversion, found



   Cartesian axes

     site n.     atom                  positions (alat units)
         1           Fe1 tau(   1) = (   0.0000000   0.0000000   0.0000000  )
         2           Fe2 tau(   2) = (   0.2510436   0.2510436   0.2500019  )
         3           Fe1 tau(   3) = (   0.0000000   0.0000000   0.5000029  )
         4           Fe2 tau(   4) = (   0.2510436   0.2510436   0.7500039  )
         5           Fe1 tau(   5) = (   0.0020833   0.5000029   0.0000000  )
         6           Fe2 tau(   6) = (   0.2531269   0.7510456   0.2500019  )
         7           Fe1 tau(   7) = (   0.0020833   0.5000029   0.5000029  )
         8           Fe2 tau(   8) = (   0.2531269   0.7510456   0.7500039  )
         9           Fe1 tau(   9) = (   0.5000029   0.0020833   0.0000000  )
        10           Fe2 tau(  10) = (   0.7510456   0.2531269   0.2500019  )
        11           Fe1 tau(  11) = (   0.5000029   0.0020833   0.5000029  )
        12           Fe2 tau(  12) = (   0.7510456   0.2531269   0.7500039  )
        13           Fe1 tau(  13) = (   0.5020862   0.5020862   0.0000000  )
        14           Fe2 tau(  14) = (   0.7531289   0.7531289   0.2500019  )
        15           Fe1 tau(  15) = (   0.5020862   0.5020862   0.5000029  )
        16           Fe2 tau(  16) = (   0.7531289   0.7531289   0.7500039  )

     number of k points=   125  Marzari-Vanderbilt smearing, width (Ry)=  0.0400

     Number of k-points >= 100: set verbosity='high' to print them.

     Dense  grid:   179017 G-vectors     FFT dimensions: (  72,  72,  72)

     Smooth grid:    96129 G-vectors     FFT dimensions: (  60,  60,  60)

     Estimated max dynamical RAM per process >     215.38 MB

     Estimated total dynamical RAM >       8.41 GB
     Generating pointlists ...
     new r_m :   0.1781 (alat units)  1.8869 (a.u.) for type    1
     new r_m :   0.1781 (alat units)  1.8869 (a.u.) for type    2

     Check: negative/imaginary core charge=   -0.000006    0.000000

     Initial potential from superposition of free atoms

     starting charge  255.99300, renormalised to  256.00000
     Starting wfcs are  160 randomized atomic wfcs
     Checking if some PAW data can be deallocated... 

     total cpu time spent up to now is       23.4 secs

     Self-consistent Calculation

     iteration #  1     ecut=    71.00 Ry     beta= 0.10
     Davidson diagonalization with overlap
     ethr =  1.00E-02,  avg # of iterations =  3.4

     Threshold (ethr) on eigenvalues was too large:
     Diagonalizing with lowered threshold

     Davidson diagonalization with overlap
     ethr =  2.15E-04,  avg # of iterations =  3.5

     total cpu time spent up to now is      217.4 secs

     total energy              =   -5268.02463476 Ry
     Harris-Foulkes estimate   =   -5268.09721431 Ry
     estimated scf accuracy    <       0.63302371 Ry

     total magnetization       =    27.93 Bohr mag/cell
     absolute magnetization    =    28.05 Bohr mag/cell

     iteration #  2     ecut=    71.00 Ry     beta= 0.10
     Davidson diagonalization with overlap
     ethr =  2.47E-04,  avg # of iterations =  1.0

     total cpu time spent up to now is      272.8 secs

     total energy              =   -5267.99316449 Ry
     Harris-Foulkes estimate   =   -5268.03880789 Ry
     estimated scf accuracy    <       0.38572572 Ry

     total magnetization       =    28.58 Bohr mag/cell
     absolute magnetization    =    28.72 Bohr mag/cell

     iteration #  3     ecut=    71.00 Ry     beta= 0.10
     Davidson diagonalization with overlap
     ethr =  1.51E-04,  avg # of iterations =  2.4

     total cpu time spent up to now is      349.2 secs

     total energy              =   -5268.02004914 Ry
     Harris-Foulkes estimate   =   -5268.02991566 Ry
     estimated scf accuracy    <       0.39981381 Ry

     total magnetization       =    29.35 Bohr mag/cell
     absolute magnetization    =    29.62 Bohr mag/cell

     iteration #  4     ecut=    71.00 Ry     beta= 0.10
     Davidson diagonalization with overlap
     ethr =  1.51E-04,  avg # of iterations =  1.5

     total cpu time spent up to now is      410.7 secs

     total energy              =   -5268.04472538 Ry
     Harris-Foulkes estimate   =   -5268.04163551 Ry
     estimated scf accuracy    <       0.13111795 Ry

     total magnetization       =    30.13 Bohr mag/cell
     absolute magnetization    =    30.45 Bohr mag/cell

     iteration #  5     ecut=    71.00 Ry     beta= 0.10
     Davidson diagonalization with overlap
     ethr =  5.12E-05,  avg # of iterations =  1.6

     total cpu time spent up to now is      474.1 secs

     total energy              =   -5268.10596576 Ry
     Harris-Foulkes estimate   =   -5268.04752662 Ry
     estimated scf accuracy    <       0.10607845 Ry

     total magnetization       =    30.21 Bohr mag/cell
     absolute magnetization    =    30.56 Bohr mag/cell

     iteration #  6     ecut=    71.00 Ry     beta= 0.10
     Davidson diagonalization with overlap
     ethr =  4.14E-05,  avg # of iterations =  3.3

     negative rho (up, down):  0.000E+00 7.791E-04

     total cpu time spent up to now is      575.9 secs

     total energy              =   -5268.16049995 Ry
     Harris-Foulkes estimate   =   -5268.14055428 Ry
     estimated scf accuracy    <       0.13415364 Ry

     total magnetization       =    31.01 Bohr mag/cell
     absolute magnetization    =    31.75 Bohr mag/cell

     iteration #  7     ecut=    71.00 Ry     beta= 0.10
     Davidson diagonalization with overlap
     ethr =  4.14E-05,  avg # of iterations =  2.7

     negative rho (up, down):  0.000E+00 1.184E-03

     total cpu time spent up to now is      660.9 secs

     total energy              =   -5268.17720787 Ry
     Harris-Foulkes estimate   =   -5268.17695765 Ry
     estimated scf accuracy    <       0.04035455 Ry

     total magnetization       =    31.87 Bohr mag/cell
     absolute magnetization    =    33.02 Bohr mag/cell

     iteration #  8     ecut=    71.00 Ry     beta= 0.10
     Davidson diagonalization with overlap
     ethr =  1.58E-05,  avg # of iterations =  1.2

     negative rho (up, down):  0.000E+00 1.294E-03

     total cpu time spent up to now is      721.7 secs

     total energy              =   -5268.17901225 Ry
     Harris-Foulkes estimate   =   -5268.17888508 Ry
     estimated scf accuracy    <       0.02736850 Ry

     total magnetization       =    32.03 Bohr mag/cell
     absolute magnetization    =    33.24 Bohr mag/cell

     iteration #  9     ecut=    71.00 Ry     beta= 0.10
     Davidson diagonalization with overlap
     ethr =  1.07E-05,  avg # of iterations =  2.1

     negative rho (up, down):  0.000E+00 1.844E-03

     total cpu time spent up to now is      793.6 secs

     total energy              =   -5268.18533371 Ry
     Harris-Foulkes estimate   =   -5268.18105496 Ry
     estimated scf accuracy    <       0.01352332 Ry

     total magnetization       =    32.26 Bohr mag/cell
     absolute magnetization    =    33.60 Bohr mag/cell

     iteration # 10     ecut=    71.00 Ry     beta= 0.10
     Davidson diagonalization with overlap
     ethr =  5.28E-06,  avg # of iterations =  1.6

     negative rho (up, down):  0.000E+00 2.421E-03

     total cpu time spent up to now is      857.3 secs

     total energy              =   -5268.18746976 Ry
     Harris-Foulkes estimate   =   -5268.18604309 Ry
     estimated scf accuracy    <       0.00619111 Ry

     total magnetization       =    32.45 Bohr mag/cell
     absolute magnetization    =    33.89 Bohr mag/cell

     iteration # 11     ecut=    71.00 Ry     beta= 0.10
     Davidson diagonalization with overlap
     ethr =  2.42E-06,  avg # of iterations =  3.5

     negative rho (up, down):  0.000E+00 2.337E-03

     total cpu time spent up to now is      951.8 secs

     total energy              =   -5268.18833526 Ry
     Harris-Foulkes estimate   =   -5268.18832535 Ry
     estimated scf accuracy    <       0.00135847 Ry

     total magnetization       =    32.64 Bohr mag/cell
     absolute magnetization    =    34.26 Bohr mag/cell

     iteration # 12     ecut=    71.00 Ry     beta= 0.10
     Davidson diagonalization with overlap
     ethr =  5.31E-07,  avg # of iterations =  1.5

     negative rho (up, down):  0.000E+00 2.315E-03

     total cpu time spent up to now is     1013.1 secs

     total energy              =   -5268.18865119 Ry
     Harris-Foulkes estimate   =   -5268.18838359 Ry
     estimated scf accuracy    <       0.00084108 Ry

     total magnetization       =    32.66 Bohr mag/cell
     absolute magnetization    =    34.28 Bohr mag/cell

     iteration # 13     ecut=    71.00 Ry     beta= 0.10
     Davidson diagonalization with overlap
     ethr =  3.29E-07,  avg # of iterations =  2.5

     negative rho (up, down):  0.000E+00 2.401E-03

     total cpu time spent up to now is     1091.9 secs

     total energy              =   -5268.18892151 Ry
     Harris-Foulkes estimate   =   -5268.18875881 Ry
     estimated scf accuracy    <       0.00114914 Ry

     total magnetization       =    32.72 Bohr mag/cell
     absolute magnetization    =    34.39 Bohr mag/cell

     iteration # 14     ecut=    71.00 Ry     beta= 0.10
     Davidson diagonalization with overlap
     ethr =  3.29E-07,  avg # of iterations =  2.1

     negative rho (up, down):  0.000E+00 2.446E-03

     total cpu time spent up to now is     1165.7 secs

     total energy              =   -5268.18897886 Ry
     Harris-Foulkes estimate   =   -5268.18899651 Ry
     estimated scf accuracy    <       0.00063248 Ry

     total magnetization       =    32.79 Bohr mag/cell
     absolute magnetization    =    34.51 Bohr mag/cell

     iteration # 15     ecut=    71.00 Ry     beta= 0.10
     Davidson diagonalization with overlap
     ethr =  2.47E-07,  avg # of iterations =  1.4

     negative rho (up, down):  0.000E+00 2.343E-03

     total cpu time spent up to now is     1225.9 secs

     total energy              =   -5268.18903747 Ry
     Harris-Foulkes estimate   =   -5268.18901440 Ry
     estimated scf accuracy    <       0.00010535 Ry

     total magnetization       =    32.82 Bohr mag/cell
     absolute magnetization    =    34.55 Bohr mag/cell

     iteration # 16     ecut=    71.00 Ry     beta= 0.10
     Davidson diagonalization with overlap
     ethr =  4.12E-08,  avg # of iterations =  3.1

     negative rho (up, down):  0.000E+00 2.432E-03

     total cpu time spent up to now is     1316.6 secs

     total energy              =   -5268.18906784 Ry
     Harris-Foulkes estimate   =   -5268.18905814 Ry
     estimated scf accuracy    <       0.00015763 Ry

     total magnetization       =    32.82 Bohr mag/cell
     absolute magnetization    =    34.55 Bohr mag/cell

     iteration # 17     ecut=    71.00 Ry     beta= 0.10
     Davidson diagonalization with overlap
     ethr =  4.12E-08,  avg # of iterations =  2.8

     negative rho (up, down):  0.000E+00 2.411E-03

     total cpu time spent up to now is     1404.1 secs

     total energy              =   -5268.18910799 Ry
     Harris-Foulkes estimate   =   -5268.18910004 Ry
     estimated scf accuracy    <       0.00004173 Ry

     total magnetization       =    32.87 Bohr mag/cell
     absolute magnetization    =    34.62 Bohr mag/cell

     iteration # 18     ecut=    71.00 Ry     beta= 0.10
     Davidson diagonalization with overlap
     ethr =  1.63E-08,  avg # of iterations =  2.2

     negative rho (up, down):  0.000E+00 2.411E-03

     total cpu time spent up to now is     1475.6 secs

     total energy              =   -5268.18911356 Ry
     Harris-Foulkes estimate   =   -5268.18911190 Ry
     estimated scf accuracy    <       0.00001904 Ry

     total magnetization       =    32.88 Bohr mag/cell
     absolute magnetization    =    34.64 Bohr mag/cell

     iteration # 19     ecut=    71.00 Ry     beta= 0.10
     Davidson diagonalization with overlap
     ethr =  7.44E-09,  avg # of iterations =  1.1

     negative rho (up, down):  0.000E+00 2.433E-03

     total cpu time spent up to now is     1532.6 secs

     total energy              =   -5268.18911363 Ry
     Harris-Foulkes estimate   =   -5268.18911411 Ry
     estimated scf accuracy    <       0.00001164 Ry

     total magnetization       =    32.88 Bohr mag/cell
     absolute magnetization    =    34.64 Bohr mag/cell

     iteration # 20     ecut=    71.00 Ry     beta= 0.10
     Davidson diagonalization with overlap
     ethr =  4.55E-09,  avg # of iterations =  3.1

     negative rho (up, down):  0.000E+00 2.441E-03

     total cpu time spent up to now is     1623.5 secs

     total energy              =   -5268.18911677 Ry
     Harris-Foulkes estimate   =   -5268.18911642 Ry
     estimated scf accuracy    <       0.00000303 Ry

     total magnetization       =    32.90 Bohr mag/cell
     absolute magnetization    =    34.66 Bohr mag/cell

     iteration # 21     ecut=    71.00 Ry     beta= 0.10
     Davidson diagonalization with overlap
     ethr =  1.18E-09,  avg # of iterations =  1.2

     negative rho (up, down):  0.000E+00 2.442E-03

     total cpu time spent up to now is     1681.3 secs

     total energy              =   -5268.18911726 Ry
     Harris-Foulkes estimate   =   -5268.18911703 Ry
     estimated scf accuracy    <       0.00000117 Ry

     total magnetization       =    32.90 Bohr mag/cell
     absolute magnetization    =    34.67 Bohr mag/cell

     iteration # 22     ecut=    71.00 Ry     beta= 0.10
     Davidson diagonalization with overlap
     ethr =  4.55E-10,  avg # of iterations =  1.2

     negative rho (up, down):  0.000E+00 2.463E-03
 
     Magnetic moment per site:
     atom:    1    charge:   14.3496    magn:    2.0995    constr:    0.0000
     atom:    2    charge:   14.3495    magn:    2.1006    constr:    0.0000
     atom:    3    charge:   14.3496    magn:    2.1003    constr:    0.0000
     atom:    4    charge:   14.3495    magn:    2.1006    constr:    0.0000
     atom:    5    charge:   14.3496    magn:    2.0995    constr:    0.0000
     atom:    6    charge:   14.3495    magn:    2.1009    constr:    0.0000
     atom:    7    charge:   14.3495    magn:    2.1000    constr:    0.0000
     atom:    8    charge:   14.3495    magn:    2.1009    constr:    0.0000
     atom:    9    charge:   14.3496    magn:    2.0995    constr:    0.0000
     atom:   10    charge:   14.3495    magn:    2.1009    constr:    0.0000
     atom:   11    charge:   14.3495    magn:    2.1000    constr:    0.0000
     atom:   12    charge:   14.3495    magn:    2.1009    constr:    0.0000
     atom:   13    charge:   14.3495    magn:    2.0993    constr:    0.0000
     atom:   14    charge:   14.3495    magn:    2.1006    constr:    0.0000
     atom:   15    charge:   14.3495    magn:    2.1000    constr:    0.0000
     atom:   16    charge:   14.3495    magn:    2.1006    constr:    0.0000

     total cpu time spent up to now is     1739.0 secs

     End of self-consistent calculation

     Number of k-points >= 100: set verbosity='high' to print the bands.

     the Fermi energy is    18.9745 ev

!    total energy              =   -5268.18911843 Ry
     Harris-Foulkes estimate   =   -5268.18911730 Ry
     estimated scf accuracy    <       0.00000064 Ry

     total all-electron energy =    -40728.933647 Ry

     The total energy is the sum of the following terms:

     one-electron contribution =   -1707.47178124 Ry
     hartree contribution      =    1022.30104345 Ry
     xc contribution           =    -444.26139999 Ry
     ewald contribution        =   -2814.21004819 Ry
     one-center paw contrib.   =   -1324.67102916 Ry
     smearing contrib. (-TS)   =       0.12409670 Ry

     total magnetization       =    32.90 Bohr mag/cell
     absolute magnetization    =    34.67 Bohr mag/cell

     convergence has been achieved in  22 iterations

     negative rho (up, down):  0.000E+00 2.463E-03

     Forces acting on atoms (cartesian axes, Ry/au):

     atom    1 type  1   force =     0.00000000    0.00000000    0.00000000
     atom    2 type  2   force =     0.00003836    0.00003836   -0.00003085
     atom    3 type  1   force =     0.00000000    0.00000000    0.00000000
     atom    4 type  2   force =     0.00003836    0.00003836    0.00003085
     atom    5 type  1   force =     0.00000000    0.00000000    0.00000000
     atom    6 type  2   force =     0.00024573   -0.00024573    0.00025712
     atom    7 type  1   force =     0.00000000    0.00000000    0.00000000
     atom    8 type  2   force =     0.00024573   -0.00024573   -0.00025712
     atom    9 type  1   force =     0.00000000    0.00000000    0.00000000
     atom   10 type  2   force =    -0.00024573    0.00024573    0.00025712
     atom   11 type  1   force =     0.00000000    0.00000000    0.00000000
     atom   12 type  2   force =    -0.00024573    0.00024573   -0.00025712
     atom   13 type  1   force =     0.00000000    0.00000000    0.00000000
     atom   14 type  2   force =    -0.00003836   -0.00003836   -0.00003085
     atom   15 type  1   force =     0.00000000    0.00000000    0.00000000
     atom   16 type  2   force =    -0.00003836   -0.00003836    0.00003085

     Total force =     0.000874     Total SCF correction =     0.005051
     SCF correction compared to forces is large: reduce conv_thr to get better values


     Computing stress (Cartesian axis) and pressure


     negative rho (up, down):  0.000E+00 2.463E-03
          total   stress  (Ry/bohr**3)                   (kbar)     P=   -2.13
  -0.00001472  -0.00007729   0.00000000         -2.17    -11.37      0.00
  -0.00007729  -0.00001472   0.00000000        -11.37     -2.17      0.00
   0.00000000   0.00000000  -0.00001402          0.00      0.00     -2.06


     Writing output data file KXOeOwxxbtlFFfkc.save/
 
     init_run     :     21.22s CPU     22.12s WALL (       1 calls)
     electrons    :   1662.27s CPU   1715.60s WALL (       1 calls)
     forces       :      7.70s CPU      8.40s WALL (       1 calls)
     stress       :     21.34s CPU     21.55s WALL (       1 calls)

     Called by init_run:
     wfcinit      :     20.71s CPU     21.54s WALL (       1 calls)
     potinit      :      0.23s CPU      0.26s WALL (       1 calls)
     hinit0       :      0.18s CPU      0.20s WALL (       1 calls)

     Called by electrons:
     c_bands      :   1496.80s CPU   1541.26s WALL (      23 calls)
     sum_band     :    160.88s CPU    169.17s WALL (      23 calls)
     v_of_rho     :      0.34s CPU      0.35s WALL (      23 calls)
     newd         :      0.76s CPU      0.95s WALL (      23 calls)
     PAW_pot      :      3.41s CPU      3.71s WALL (      23 calls)
     mix_rho      :      0.12s CPU      0.14s WALL (      23 calls)

     Called by c_bands:
     init_us_2    :      8.75s CPU      8.91s WALL (   12250 calls)
     cegterg      :   1454.67s CPU   1497.17s WALL (    5750 calls)

     Called by sum_band:
     sum_band:bec :      2.32s CPU      2.36s WALL (    5750 calls)
     addusdens    :      1.22s CPU      1.40s WALL (      23 calls)

     Called by *egterg:
     h_psi        :    628.13s CPU    654.64s WALL (   18500 calls)
     s_psi        :     34.76s CPU     34.96s WALL (   18500 calls)
     g_psi        :      1.41s CPU      1.43s WALL (   12500 calls)
     cdiaghg      :    646.59s CPU    648.73s WALL (   18000 calls)

     Called by h_psi:
     h_psi:pot    :    624.82s CPU    651.30s WALL (   18500 calls)
     h_psi:calbec :     51.42s CPU     59.67s WALL (   18500 calls)
     vloc_psi     :    538.35s CPU    556.34s WALL (   18500 calls)
     add_vuspsi   :     34.88s CPU     35.17s WALL (   18500 calls)

     General routines
     calbec       :     78.48s CPU     91.36s WALL (   25500 calls)
     fft          :      0.40s CPU      0.42s WALL (     617 calls)
     ffts         :      0.05s CPU      0.22s WALL (      92 calls)
     fftw         :    628.98s CPU    649.76s WALL ( 4751590 calls)
     interpolate  :      0.11s CPU      0.18s WALL (      46 calls)
 
     Parallel routines
     fft_scatt_xy :     41.85s CPU     43.20s WALL ( 4752299 calls)
     fft_scatt_yz :    421.29s CPU    435.55s WALL ( 4752299 calls)
 
     PWSCF        : 28m47.77s CPU    30m30.85s WALL

 
   This run was terminated on:   1:29:58  10Sep2020            

=------------------------------------------------------------------------------=
   JOB DONE.
=------------------------------------------------------------------------------=
