--------------------------------------------------------------------------
WARNING: No preset parameters were found for the device that Open MPI
detected:

  Local host:            bear-pg0206u39a
  Device name:           mlx5_0
  Device vendor ID:      0x02c9
  Device vendor part ID: 4123

Default device parameters will be used, which may result in lower
performance.  You can edit any of the files specified by the
btl_openib_device_param_files MCA parameter to set values for your
device.

NOTE: You can turn off this warning by setting the MCA parameter
      btl_openib_warn_no_device_params_found to 0.
--------------------------------------------------------------------------
--------------------------------------------------------------------------
WARNING: There was an error initializing an OpenFabrics device.

  Local host:   bear-pg0206u39a
  Local device: mlx5_0
--------------------------------------------------------------------------

     Program PWSCF v.6.3 starts on 10Sep2020 at  3: 6:52 

     This program is part of the open-source Quantum ESPRESSO suite
     for quantum simulation of materials; please cite
         "P. Giannozzi et al., J. Phys.:Condens. Matter 21 395502 (2009);
         "P. Giannozzi et al., J. Phys.:Condens. Matter 29 465901 (2017);
          URL http://www.quantum-espresso.org", 
     in publications or presentations arising from this work. More details at
     http://www.quantum-espresso.org/quote

     Parallel version (MPI & OpenMP), running on      40 processor cores
     Number of MPI processes:                40
     Threads/MPI process:                     1

     MPI processes distributed on     1 nodes
     R & G space division:  proc/nbgrp/npool/nimage =      40
     Reading input from wd/ec/ec_7_004.in
Warning: card &IONS ignored
Warning: card ION_DYNAMICS = 'BFGS', ignored
Warning: card / ignored
Warning: card &CELL ignored
Warning: card CELL_DYNAMICS = 'BFGS', ignored
Warning: card CELL_FACTOR = 2.0, ignored
Warning: card PRESS = 0.0, ignored
Warning: card / ignored

     Current dimensions of program PWSCF are:
     Max number of different atomic species (ntypx) = 10
     Max number of k-points (npk) =  40000
     Max angular momentum in pseudopotentials (lmaxx) =  3
               file Fe.pbe-spn-kjpaw_psl.1.0.0.UPF: wavefunction(s)  3P 3D renormalized
               file Fe.pbe-spn-kjpaw_psl.1.0.0.UPF: wavefunction(s)  3P 3D renormalized

     Subspace diagonalization in iterative solution of the eigenvalue problem:
     a serial algorithm will be used

     Found symmetry operation: I + (  0.0000  0.0000 -0.5000)
     This is a supercell, fractional translations are disabled
 
     Parallelization info
     --------------------
     sticks:   dense  smooth     PW     G-vecs:    dense   smooth      PW
     Min          95      63     17                 4471     2401     355
     Max          96      64     18                 4476     2406     360
     Sum        3835    2549    717               178971    96149   14315
 


     bravais-lattice index     =            0
     lattice parameter (alat)  =      10.5935  a.u.
     unit-cell volume          =    1188.8329 (a.u.)^3
     number of atoms/cell      =           16
     number of atomic types    =            2
     number of electrons       =       256.00
     number of Kohn-Sham states=          154
     kinetic-energy cutoff     =      71.0000  Ry
     charge density cutoff     =     430.0000  Ry
     convergence threshold     =      1.0E-06
     mixing beta               =       0.1000
     number of iterations used =           10  plain     mixing
     Exchange-correlation      = SLA PW PBX PBC ( 1  4  3  4 0 0)

     celldm(1)=  10.593520  celldm(2)=   0.000000  celldm(3)=   0.000000
     celldm(4)=   0.000000  celldm(5)=   0.000000  celldm(6)=   0.000000

     crystal axes: (cart. coord. in units of alat)
               a(1) = (   1.002502   0.000000   0.000000 )  
               a(2) = (   0.000000   0.997502   0.000000 )  
               a(3) = (   0.000000   0.000000   1.000002 )  

     reciprocal axes: (cart. coord. in units 2 pi/alat)
               b(1) = (  0.997504  0.000000  0.000000 )  
               b(2) = (  0.000000  1.002504  0.000000 )  
               b(3) = (  0.000000  0.000000  0.999998 )  


     PseudoPot. # 1 for Fe read from file:
     /rds/homes/b/bxp912/pp/Fe.pbe-spn-kjpaw_psl.1.0.0.UPF
     MD5 check sum: 42f43b795421b414b0dc916aa790dbcb
     Pseudo is Projector augmented-wave + core cor, Zval = 16.0
     Generated using "atomic" code by A. Dal Corso v.6.3
     Shape of augmentation charge: PSQ
     Using radial grid of 1191 points,  6 beta functions with: 
                l(1) =   0
                l(2) =   0
                l(3) =   1
                l(4) =   1
                l(5) =   2
                l(6) =   2
     Q(r) pseudized with 0 coefficients 


     PseudoPot. # 2 for Fe read from file:
     /rds/homes/b/bxp912/pp/Fe.pbe-spn-kjpaw_psl.1.0.0.UPF
     MD5 check sum: 42f43b795421b414b0dc916aa790dbcb
     Pseudo is Projector augmented-wave + core cor, Zval = 16.0
     Generated using "atomic" code by A. Dal Corso v.6.3
     Shape of augmentation charge: PSQ
     Using radial grid of 1191 points,  6 beta functions with: 
                l(1) =   0
                l(2) =   0
                l(3) =   1
                l(4) =   1
                l(5) =   2
                l(6) =   2
     Q(r) pseudized with 0 coefficients 


     atomic species   valence    mass     pseudopotential
        Fe1           16.00    55.84500     Fe( 1.00)
        Fe2           16.00    55.84500     Fe( 1.00)

     Starting magnetic structure 
     atomic species   magnetization
        Fe1          0.100
        Fe2          0.100

      8 Sym. Ops., with inversion, found



   Cartesian axes

     site n.     atom                  positions (alat units)
         1           Fe1 tau(   1) = (   0.0000000   0.0000000   0.0000000  )
         2           Fe2 tau(   2) = (   0.2506260   0.2493759   0.2500010  )
         3           Fe1 tau(   3) = (   0.0000000   0.0000000   0.5000010  )
         4           Fe2 tau(   4) = (   0.2506260   0.2493759   0.7500011  )
         5           Fe1 tau(   5) = (   0.0000000   0.4987510   0.0000000  )
         6           Fe2 tau(   6) = (   0.2506260   0.7481261   0.2500010  )
         7           Fe1 tau(   7) = (   0.0000000   0.4987510   0.5000010  )
         8           Fe2 tau(   8) = (   0.2506260   0.7481261   0.7500011  )
         9           Fe1 tau(   9) = (   0.5012510   0.0000000   0.0000000  )
        10           Fe2 tau(  10) = (   0.7518761   0.2493759   0.2500010  )
        11           Fe1 tau(  11) = (   0.5012510   0.0000000   0.5000010  )
        12           Fe2 tau(  12) = (   0.7518761   0.2493759   0.7500011  )
        13           Fe1 tau(  13) = (   0.5012510   0.4987510   0.0000000  )
        14           Fe2 tau(  14) = (   0.7518761   0.7481261   0.2500010  )
        15           Fe1 tau(  15) = (   0.5012510   0.4987510   0.5000010  )
        16           Fe2 tau(  16) = (   0.7518761   0.7481261   0.7500011  )

     number of k points=   125  Marzari-Vanderbilt smearing, width (Ry)=  0.0400

     Number of k-points >= 100: set verbosity='high' to print them.

     Dense  grid:   178971 G-vectors     FFT dimensions: (  72,  72,  72)

     Smooth grid:    96149 G-vectors     FFT dimensions: (  60,  60,  60)

     Estimated max dynamical RAM per process >     215.38 MB

     Estimated total dynamical RAM >       8.41 GB
     Generating pointlists ...
     new r_m :   0.1786 (alat units)  1.8922 (a.u.) for type    1
     new r_m :   0.1786 (alat units)  1.8922 (a.u.) for type    2

     Check: negative/imaginary core charge=   -0.000006    0.000000

     Initial potential from superposition of free atoms

     starting charge  255.99300, renormalised to  256.00000
     Starting wfcs are  160 randomized atomic wfcs
     Checking if some PAW data can be deallocated... 

     total cpu time spent up to now is       23.5 secs

     Self-consistent Calculation

     iteration #  1     ecut=    71.00 Ry     beta= 0.10
     Davidson diagonalization with overlap
     ethr =  1.00E-02,  avg # of iterations =  3.4

     Threshold (ethr) on eigenvalues was too large:
     Diagonalizing with lowered threshold

     Davidson diagonalization with overlap
     ethr =  2.83E-04,  avg # of iterations =  3.4

     total cpu time spent up to now is      209.9 secs

     total energy              =   -5268.17613001 Ry
     Harris-Foulkes estimate   =   -5268.32781861 Ry
     estimated scf accuracy    <       0.82056023 Ry

     total magnetization       =    28.04 Bohr mag/cell
     absolute magnetization    =    28.41 Bohr mag/cell

     iteration #  2     ecut=    71.00 Ry     beta= 0.10
     Davidson diagonalization with overlap
     ethr =  3.21E-04,  avg # of iterations =  1.0

     total cpu time spent up to now is      265.6 secs

     total energy              =   -5268.06990956 Ry
     Harris-Foulkes estimate   =   -5268.19490714 Ry
     estimated scf accuracy    <       0.49763752 Ry

     total magnetization       =    28.67 Bohr mag/cell
     absolute magnetization    =    28.95 Bohr mag/cell

     iteration #  3     ecut=    71.00 Ry     beta= 0.10
     Davidson diagonalization with overlap
     ethr =  1.94E-04,  avg # of iterations =  2.5

     total cpu time spent up to now is      343.4 secs

     total energy              =   -5268.03743419 Ry
     Harris-Foulkes estimate   =   -5268.11660465 Ry
     estimated scf accuracy    <       0.57138497 Ry

     total magnetization       =    29.37 Bohr mag/cell
     absolute magnetization    =    29.71 Bohr mag/cell

     iteration #  4     ecut=    71.00 Ry     beta= 0.10
     Davidson diagonalization with overlap
     ethr =  1.94E-04,  avg # of iterations =  2.1

     total cpu time spent up to now is      412.1 secs

     total energy              =   -5268.06937813 Ry
     Harris-Foulkes estimate   =   -5268.07302853 Ry
     estimated scf accuracy    <       0.17645525 Ry

     total magnetization       =    30.20 Bohr mag/cell
     absolute magnetization    =    30.58 Bohr mag/cell

     iteration #  5     ecut=    71.00 Ry     beta= 0.10
     Davidson diagonalization with overlap
     ethr =  6.89E-05,  avg # of iterations =  1.4

     total cpu time spent up to now is      471.8 secs

     total energy              =   -5268.08820149 Ry
     Harris-Foulkes estimate   =   -5268.07353764 Ry
     estimated scf accuracy    <       0.11145174 Ry

     total magnetization       =    30.30 Bohr mag/cell
     absolute magnetization    =    30.69 Bohr mag/cell

     iteration #  6     ecut=    71.00 Ry     beta= 0.10
     Davidson diagonalization with overlap
     ethr =  4.35E-05,  avg # of iterations =  3.3

     total cpu time spent up to now is      575.2 secs

     total energy              =   -5268.14476466 Ry
     Harris-Foulkes estimate   =   -5268.12706994 Ry
     estimated scf accuracy    <       0.13305441 Ry

     total magnetization       =    30.92 Bohr mag/cell
     absolute magnetization    =    31.63 Bohr mag/cell

     iteration #  7     ecut=    71.00 Ry     beta= 0.10
     Davidson diagonalization with overlap
     ethr =  4.35E-05,  avg # of iterations =  2.0

     total cpu time spent up to now is      648.5 secs

     total energy              =   -5268.15311923 Ry
     Harris-Foulkes estimate   =   -5268.15267134 Ry
     estimated scf accuracy    <       0.09936249 Ry

     total magnetization       =    31.45 Bohr mag/cell
     absolute magnetization    =    32.36 Bohr mag/cell

     iteration #  8     ecut=    71.00 Ry     beta= 0.10
     Davidson diagonalization with overlap
     ethr =  3.88E-05,  avg # of iterations =  1.0

     negative rho (up, down):  0.000E+00 1.582E-03

     total cpu time spent up to now is      704.0 secs

     total energy              =   -5268.17033559 Ry
     Harris-Foulkes estimate   =   -5268.15443250 Ry
     estimated scf accuracy    <       0.07784010 Ry

     total magnetization       =    31.59 Bohr mag/cell
     absolute magnetization    =    32.57 Bohr mag/cell

     iteration #  9     ecut=    71.00 Ry     beta= 0.10
     Davidson diagonalization with overlap
     ethr =  3.04E-05,  avg # of iterations =  2.7

     negative rho (up, down):  0.000E+00 2.151E-03

     total cpu time spent up to now is      793.7 secs

     total energy              =   -5268.18880789 Ry
     Harris-Foulkes estimate   =   -5268.18513957 Ry
     estimated scf accuracy    <       0.03616944 Ry

     total magnetization       =    32.28 Bohr mag/cell
     absolute magnetization    =    33.65 Bohr mag/cell

     iteration # 10     ecut=    71.00 Ry     beta= 0.10
     Davidson diagonalization with overlap
     ethr =  1.41E-05,  avg # of iterations =  1.0

     negative rho (up, down):  0.000E+00 2.507E-03

     total cpu time spent up to now is      849.5 secs

     total energy              =   -5268.18771666 Ry
     Harris-Foulkes estimate   =   -5268.19011325 Ry
     estimated scf accuracy    <       0.01640837 Ry

     total magnetization       =    32.48 Bohr mag/cell
     absolute magnetization    =    33.92 Bohr mag/cell

     iteration # 11     ecut=    71.00 Ry     beta= 0.10
     Davidson diagonalization with overlap
     ethr =  6.41E-06,  avg # of iterations =  2.8

     negative rho (up, down):  0.000E+00 2.556E-03

     total cpu time spent up to now is      930.4 secs

     total energy              =   -5268.18863319 Ry
     Harris-Foulkes estimate   =   -5268.18882414 Ry
     estimated scf accuracy    <       0.00164111 Ry

     total magnetization       =    32.65 Bohr mag/cell
     absolute magnetization    =    34.26 Bohr mag/cell

     iteration # 12     ecut=    71.00 Ry     beta= 0.10
     Davidson diagonalization with overlap
     ethr =  6.41E-07,  avg # of iterations =  2.9

     negative rho (up, down):  0.000E+00 2.585E-03

     total cpu time spent up to now is     1012.6 secs

     total energy              =   -5268.18893841 Ry
     Harris-Foulkes estimate   =   -5268.18876785 Ry
     estimated scf accuracy    <       0.00082132 Ry

     total magnetization       =    32.69 Bohr mag/cell
     absolute magnetization    =    34.34 Bohr mag/cell

     iteration # 13     ecut=    71.00 Ry     beta= 0.10
     Davidson diagonalization with overlap
     ethr =  3.21E-07,  avg # of iterations =  1.9

     negative rho (up, down):  0.000E+00 2.552E-03

     total cpu time spent up to now is     1078.5 secs

     total energy              =   -5268.18889844 Ry
     Harris-Foulkes estimate   =   -5268.18900421 Ry
     estimated scf accuracy    <       0.00090080 Ry

     total magnetization       =    32.73 Bohr mag/cell
     absolute magnetization    =    34.40 Bohr mag/cell

     iteration # 14     ecut=    71.00 Ry     beta= 0.10
     Davidson diagonalization with overlap
     c_bands:  1 eigenvalues not converged
     ethr =  3.21E-07,  avg # of iterations =  2.6

     negative rho (up, down):  0.000E+00 2.457E-03

     total cpu time spent up to now is     1159.6 secs

     total energy              =   -5268.18916139 Ry
     Harris-Foulkes estimate   =   -5268.18899676 Ry
     estimated scf accuracy    <       0.00070926 Ry

     total magnetization       =    32.76 Bohr mag/cell
     absolute magnetization    =    34.48 Bohr mag/cell

     iteration # 15     ecut=    71.00 Ry     beta= 0.10
     Davidson diagonalization with overlap
     ethr =  2.77E-07,  avg # of iterations =  1.9

     negative rho (up, down):  0.000E+00 2.493E-03

     total cpu time spent up to now is     1228.7 secs

     total energy              =   -5268.18926053 Ry
     Harris-Foulkes estimate   =   -5268.18922313 Ry
     estimated scf accuracy    <       0.00019451 Ry

     total magnetization       =    32.78 Bohr mag/cell
     absolute magnetization    =    34.50 Bohr mag/cell

     iteration # 16     ecut=    71.00 Ry     beta= 0.10
     Davidson diagonalization with overlap
     ethr =  7.60E-08,  avg # of iterations =  2.3

     negative rho (up, down):  0.000E+00 2.466E-03

     total cpu time spent up to now is     1305.1 secs

     total energy              =   -5268.18932294 Ry
     Harris-Foulkes estimate   =   -5268.18928270 Ry
     estimated scf accuracy    <       0.00010204 Ry

     total magnetization       =    32.82 Bohr mag/cell
     absolute magnetization    =    34.56 Bohr mag/cell

     iteration # 17     ecut=    71.00 Ry     beta= 0.10
     Davidson diagonalization with overlap
     ethr =  3.99E-08,  avg # of iterations =  2.0

     negative rho (up, down):  0.000E+00 2.453E-03

     total cpu time spent up to now is     1376.0 secs

     total energy              =   -5268.18936657 Ry
     Harris-Foulkes estimate   =   -5268.18932965 Ry
     estimated scf accuracy    <       0.00007189 Ry

     total magnetization       =    32.83 Bohr mag/cell
     absolute magnetization    =    34.57 Bohr mag/cell

     iteration # 18     ecut=    71.00 Ry     beta= 0.10
     Davidson diagonalization with overlap
     ethr =  2.81E-08,  avg # of iterations =  2.7

     negative rho (up, down):  0.000E+00 2.444E-03

     total cpu time spent up to now is     1461.4 secs

     total energy              =   -5268.18938617 Ry
     Harris-Foulkes estimate   =   -5268.18937902 Ry
     estimated scf accuracy    <       0.00004653 Ry

     total magnetization       =    32.85 Bohr mag/cell
     absolute magnetization    =    34.61 Bohr mag/cell

     iteration # 19     ecut=    71.00 Ry     beta= 0.10
     Davidson diagonalization with overlap
     ethr =  1.82E-08,  avg # of iterations =  2.6

     negative rho (up, down):  0.000E+00 2.439E-03

     total cpu time spent up to now is     1543.3 secs

     total energy              =   -5268.18939610 Ry
     Harris-Foulkes estimate   =   -5268.18939304 Ry
     estimated scf accuracy    <       0.00001953 Ry

     total magnetization       =    32.87 Bohr mag/cell
     absolute magnetization    =    34.63 Bohr mag/cell

     iteration # 20     ecut=    71.00 Ry     beta= 0.10
     Davidson diagonalization with overlap
     ethr =  7.63E-09,  avg # of iterations =  1.2

     negative rho (up, down):  0.000E+00 2.430E-03

     total cpu time spent up to now is     1600.3 secs

     total energy              =   -5268.18940048 Ry
     Harris-Foulkes estimate   =   -5268.18939654 Ry
     estimated scf accuracy    <       0.00001441 Ry

     total magnetization       =    32.87 Bohr mag/cell
     absolute magnetization    =    34.64 Bohr mag/cell

     iteration # 21     ecut=    71.00 Ry     beta= 0.10
     Davidson diagonalization with overlap
     ethr =  5.63E-09,  avg # of iterations =  2.8

     negative rho (up, down):  0.000E+00 2.431E-03

     total cpu time spent up to now is     1688.1 secs

     total energy              =   -5268.18940540 Ry
     Harris-Foulkes estimate   =   -5268.18940466 Ry
     estimated scf accuracy    <       0.00000415 Ry

     total magnetization       =    32.89 Bohr mag/cell
     absolute magnetization    =    34.65 Bohr mag/cell

     iteration # 22     ecut=    71.00 Ry     beta= 0.10
     Davidson diagonalization with overlap
     ethr =  1.62E-09,  avg # of iterations =  1.8

     negative rho (up, down):  0.000E+00 2.434E-03

     total cpu time spent up to now is     1752.1 secs

     total energy              =   -5268.18940598 Ry
     Harris-Foulkes estimate   =   -5268.18940587 Ry
     estimated scf accuracy    <       0.00000204 Ry

     total magnetization       =    32.89 Bohr mag/cell
     absolute magnetization    =    34.66 Bohr mag/cell

     iteration # 23     ecut=    71.00 Ry     beta= 0.10
     Davidson diagonalization with overlap
     ethr =  7.98E-10,  avg # of iterations =  1.8

     negative rho (up, down):  0.000E+00 2.445E-03

     total cpu time spent up to now is     1816.7 secs

     total energy              =   -5268.18940599 Ry
     Harris-Foulkes estimate   =   -5268.18940606 Ry
     estimated scf accuracy    <       0.00000131 Ry

     total magnetization       =    32.90 Bohr mag/cell
     absolute magnetization    =    34.66 Bohr mag/cell

     iteration # 24     ecut=    71.00 Ry     beta= 0.10
     Davidson diagonalization with overlap
     ethr =  5.10E-10,  avg # of iterations =  2.1

     negative rho (up, down):  0.000E+00 2.462E-03
 
     Magnetic moment per site:
     atom:    1    charge:   14.3667    magn:    2.0993    constr:    0.0000
     atom:    2    charge:   14.3664    magn:    2.1015    constr:    0.0000
     atom:    3    charge:   14.3663    magn:    2.1000    constr:    0.0000
     atom:    4    charge:   14.3664    magn:    2.1015    constr:    0.0000
     atom:    5    charge:   14.3666    magn:    2.0999    constr:    0.0000
     atom:    6    charge:   14.3664    magn:    2.1015    constr:    0.0000
     atom:    7    charge:   14.3665    magn:    2.1002    constr:    0.0000
     atom:    8    charge:   14.3664    magn:    2.1015    constr:    0.0000
     atom:    9    charge:   14.3665    magn:    2.0984    constr:    0.0000
     atom:   10    charge:   14.3664    magn:    2.1015    constr:    0.0000
     atom:   11    charge:   14.3665    magn:    2.0987    constr:    0.0000
     atom:   12    charge:   14.3664    magn:    2.1015    constr:    0.0000
     atom:   13    charge:   14.3667    magn:    2.0987    constr:    0.0000
     atom:   14    charge:   14.3664    magn:    2.1015    constr:    0.0000
     atom:   15    charge:   14.3665    magn:    2.0992    constr:    0.0000
     atom:   16    charge:   14.3664    magn:    2.1015    constr:    0.0000

     total cpu time spent up to now is     1893.3 secs

     End of self-consistent calculation

     Number of k-points >= 100: set verbosity='high' to print the bands.

     the Fermi energy is    18.9744 ev

!    total energy              =   -5268.18940805 Ry
     Harris-Foulkes estimate   =   -5268.18940623 Ry
     estimated scf accuracy    <       0.00000067 Ry

     total all-electron energy =    -40728.933937 Ry

     The total energy is the sum of the following terms:

     one-electron contribution =   -1707.43398744 Ry
     hartree contribution      =    1022.28043710 Ry
     xc contribution           =    -444.25983564 Ry
     ewald contribution        =   -2814.22902104 Ry
     one-center paw contrib.   =   -1324.67110788 Ry
     smearing contrib. (-TS)   =       0.12410686 Ry

     total magnetization       =    32.90 Bohr mag/cell
     absolute magnetization    =    34.66 Bohr mag/cell

     convergence has been achieved in  24 iterations

     negative rho (up, down):  0.000E+00 2.462E-03

     Forces acting on atoms (cartesian axes, Ry/au):

     atom    1 type  1   force =     0.00000000    0.00000000    0.00000000
     atom    2 type  2   force =    -0.00006791    0.00032031    0.00008866
     atom    3 type  1   force =     0.00000000    0.00000000    0.00000000
     atom    4 type  2   force =    -0.00006791    0.00032031   -0.00008866
     atom    5 type  1   force =     0.00000000    0.00000000    0.00000000
     atom    6 type  2   force =    -0.00006791   -0.00032031    0.00008866
     atom    7 type  1   force =     0.00000000    0.00000000    0.00000000
     atom    8 type  2   force =    -0.00006791   -0.00032031   -0.00008866
     atom    9 type  1   force =     0.00000000    0.00000000    0.00000000
     atom   10 type  2   force =     0.00006791    0.00032031    0.00008866
     atom   11 type  1   force =     0.00000000    0.00000000    0.00000000
     atom   12 type  2   force =     0.00006791    0.00032031   -0.00008866
     atom   13 type  1   force =     0.00000000    0.00000000    0.00000000
     atom   14 type  2   force =     0.00006791   -0.00032031    0.00008866
     atom   15 type  1   force =     0.00000000    0.00000000    0.00000000
     atom   16 type  2   force =     0.00006791   -0.00032031   -0.00008866

     Total force =     0.000959     Total SCF correction =     0.004295
     SCF correction compared to forces is large: reduce conv_thr to get better values


     Computing stress (Cartesian axis) and pressure


     negative rho (up, down):  0.000E+00 2.462E-03
          total   stress  (Ry/bohr**3)                   (kbar)     P=   -2.43
  -0.00003854   0.00000000   0.00000000         -5.67      0.00      0.00
   0.00000000   0.00000563   0.00000000          0.00      0.83      0.00
   0.00000000   0.00000000  -0.00001658          0.00      0.00     -2.44


     Writing output data file JoKLfUEbFeYelytk.save/
 
     init_run     :     21.18s CPU     22.13s WALL (       1 calls)
     electrons    :   1812.95s CPU   1869.89s WALL (       1 calls)
     forces       :      7.66s CPU      8.35s WALL (       1 calls)
     stress       :     21.64s CPU     21.87s WALL (       1 calls)

     Called by init_run:
     wfcinit      :     20.76s CPU     21.61s WALL (       1 calls)
     potinit      :      0.21s CPU      0.22s WALL (       1 calls)
     hinit0       :      0.11s CPU      0.14s WALL (       1 calls)

     Called by electrons:
     c_bands      :   1635.08s CPU   1682.28s WALL (      25 calls)
     sum_band     :    172.93s CPU    182.00s WALL (      25 calls)
     v_of_rho     :      0.38s CPU      0.39s WALL (      25 calls)
     newd         :      0.78s CPU      1.00s WALL (      25 calls)
     PAW_pot      :      3.71s CPU      4.05s WALL (      25 calls)
     mix_rho      :      0.15s CPU      0.15s WALL (      25 calls)

     Called by c_bands:
     init_us_2    :      9.34s CPU      9.43s WALL (   13250 calls)
     cegterg      :   1589.03s CPU   1635.73s WALL (    6250 calls)

     Called by sum_band:
     sum_band:bec :      2.60s CPU      2.65s WALL (    6250 calls)
     addusdens    :      1.20s CPU      1.42s WALL (      25 calls)

     Called by *egterg:
     h_psi        :    685.06s CPU    713.61s WALL (   20283 calls)
     s_psi        :     37.91s CPU     38.15s WALL (   20283 calls)
     g_psi        :      1.57s CPU      1.59s WALL (   13783 calls)
     cdiaghg      :    705.60s CPU    707.79s WALL (   19783 calls)

     Called by h_psi:
     h_psi:pot    :    681.30s CPU    709.81s WALL (   20283 calls)
     h_psi:calbec :     55.92s CPU     65.17s WALL (   20283 calls)
     vloc_psi     :    587.10s CPU    606.15s WALL (   20283 calls)
     add_vuspsi   :     38.11s CPU     38.36s WALL (   20283 calls)

     General routines
     calbec       :     84.93s CPU     99.32s WALL (   27783 calls)
     fft          :      0.40s CPU      0.42s WALL (     667 calls)
     ffts         :      0.06s CPU      0.24s WALL (     100 calls)
     fftw         :    683.91s CPU    706.00s WALL ( 5183754 calls)
     interpolate  :      0.07s CPU      0.15s WALL (      50 calls)
 
     Parallel routines
     fft_scatt_xy :     45.07s CPU     46.43s WALL ( 5184521 calls)
     fft_scatt_yz :    458.69s CPU    473.83s WALL ( 5184521 calls)
 
     PWSCF        : 31m18.67s CPU    33m 6.43s WALL

 
   This run was terminated on:   3:39:59  10Sep2020            

=------------------------------------------------------------------------------=
   JOB DONE.
=------------------------------------------------------------------------------=
