--------------------------------------------------------------------------
WARNING: No preset parameters were found for the device that Open MPI
detected:

  Local host:            bear-pg0206u39a
  Device name:           mlx5_0
  Device vendor ID:      0x02c9
  Device vendor part ID: 4123

Default device parameters will be used, which may result in lower
performance.  You can edit any of the files specified by the
btl_openib_device_param_files MCA parameter to set values for your
device.

NOTE: You can turn off this warning by setting the MCA parameter
      btl_openib_warn_no_device_params_found to 0.
--------------------------------------------------------------------------
--------------------------------------------------------------------------
WARNING: There was an error initializing an OpenFabrics device.

  Local host:   bear-pg0206u39a
  Local device: mlx5_0
--------------------------------------------------------------------------

     Program PWSCF v.6.3 starts on 10Sep2020 at  4:47:42 

     This program is part of the open-source Quantum ESPRESSO suite
     for quantum simulation of materials; please cite
         "P. Giannozzi et al., J. Phys.:Condens. Matter 21 395502 (2009);
         "P. Giannozzi et al., J. Phys.:Condens. Matter 29 465901 (2017);
          URL http://www.quantum-espresso.org", 
     in publications or presentations arising from this work. More details at
     http://www.quantum-espresso.org/quote

     Parallel version (MPI & OpenMP), running on      40 processor cores
     Number of MPI processes:                40
     Threads/MPI process:                     1

     MPI processes distributed on     1 nodes
     R & G space division:  proc/nbgrp/npool/nimage =      40
     Reading input from wd/ec/ec_7_007.in
Warning: card &IONS ignored
Warning: card ION_DYNAMICS = 'BFGS', ignored
Warning: card / ignored
Warning: card &CELL ignored
Warning: card CELL_DYNAMICS = 'BFGS', ignored
Warning: card CELL_FACTOR = 2.0, ignored
Warning: card PRESS = 0.0, ignored
Warning: card / ignored

     Current dimensions of program PWSCF are:
     Max number of different atomic species (ntypx) = 10
     Max number of k-points (npk) =  40000
     Max angular momentum in pseudopotentials (lmaxx) =  3
               file Fe.pbe-spn-kjpaw_psl.1.0.0.UPF: wavefunction(s)  3P 3D renormalized
               file Fe.pbe-spn-kjpaw_psl.1.0.0.UPF: wavefunction(s)  3P 3D renormalized

     Subspace diagonalization in iterative solution of the eigenvalue problem:
     a serial algorithm will be used

     Found symmetry operation: I + (  0.0000  0.0000 -0.5000)
     This is a supercell, fractional translations are disabled
 
     Parallelization info
     --------------------
     sticks:   dense  smooth     PW     G-vecs:    dense   smooth      PW
     Min          96      63     17                 4472     2401     355
     Max          97      64     18                 4476     2406     360
     Sum        3843    2545    715               179003    96141   14305
 


     bravais-lattice index     =            0
     lattice parameter (alat)  =      10.5935  a.u.
     unit-cell volume          =    1188.8329 (a.u.)^3
     number of atoms/cell      =           16
     number of atomic types    =            2
     number of electrons       =       256.00
     number of Kohn-Sham states=          154
     kinetic-energy cutoff     =      71.0000  Ry
     charge density cutoff     =     430.0000  Ry
     convergence threshold     =      1.0E-06
     mixing beta               =       0.1000
     number of iterations used =           10  plain     mixing
     Exchange-correlation      = SLA PW PBX PBC ( 1  4  3  4 0 0)

     celldm(1)=  10.593520  celldm(2)=   0.000000  celldm(3)=   0.000000
     celldm(4)=   0.000000  celldm(5)=   0.000000  celldm(6)=   0.000000

     crystal axes: (cart. coord. in units of alat)
               a(1) = (   1.005008   0.000000   0.000000 )  
               a(2) = (   0.000000   0.995008   0.000000 )  
               a(3) = (   0.000000   0.000000   1.000008 )  

     reciprocal axes: (cart. coord. in units 2 pi/alat)
               b(1) = (  0.995017  0.000000  0.000000 )  
               b(2) = (  0.000000  1.005017  0.000000 )  
               b(3) = (  0.000000  0.000000  0.999992 )  


     PseudoPot. # 1 for Fe read from file:
     /rds/homes/b/bxp912/pp/Fe.pbe-spn-kjpaw_psl.1.0.0.UPF
     MD5 check sum: 42f43b795421b414b0dc916aa790dbcb
     Pseudo is Projector augmented-wave + core cor, Zval = 16.0
     Generated using "atomic" code by A. Dal Corso v.6.3
     Shape of augmentation charge: PSQ
     Using radial grid of 1191 points,  6 beta functions with: 
                l(1) =   0
                l(2) =   0
                l(3) =   1
                l(4) =   1
                l(5) =   2
                l(6) =   2
     Q(r) pseudized with 0 coefficients 


     PseudoPot. # 2 for Fe read from file:
     /rds/homes/b/bxp912/pp/Fe.pbe-spn-kjpaw_psl.1.0.0.UPF
     MD5 check sum: 42f43b795421b414b0dc916aa790dbcb
     Pseudo is Projector augmented-wave + core cor, Zval = 16.0
     Generated using "atomic" code by A. Dal Corso v.6.3
     Shape of augmentation charge: PSQ
     Using radial grid of 1191 points,  6 beta functions with: 
                l(1) =   0
                l(2) =   0
                l(3) =   1
                l(4) =   1
                l(5) =   2
                l(6) =   2
     Q(r) pseudized with 0 coefficients 


     atomic species   valence    mass     pseudopotential
        Fe1           16.00    55.84500     Fe( 1.00)
        Fe2           16.00    55.84500     Fe( 1.00)

     Starting magnetic structure 
     atomic species   magnetization
        Fe1          0.100
        Fe2          0.100

      8 Sym. Ops., with inversion, found



   Cartesian axes

     site n.     atom                  positions (alat units)
         1           Fe1 tau(   1) = (   0.0000000   0.0000000   0.0000000  )
         2           Fe2 tau(   2) = (   0.2512525   0.2487525   0.2500025  )
         3           Fe1 tau(   3) = (   0.0000000   0.0000000   0.5000042  )
         4           Fe2 tau(   4) = (   0.2512525   0.2487525   0.7500058  )
         5           Fe1 tau(   5) = (   0.0000000   0.4975041   0.0000000  )
         6           Fe2 tau(   6) = (   0.2512525   0.7462558   0.2500025  )
         7           Fe1 tau(   7) = (   0.0000000   0.4975041   0.5000042  )
         8           Fe2 tau(   8) = (   0.2512525   0.7462558   0.7500058  )
         9           Fe1 tau(   9) = (   0.5025042   0.0000000   0.0000000  )
        10           Fe2 tau(  10) = (   0.7537558   0.2487525   0.2500025  )
        11           Fe1 tau(  11) = (   0.5025042   0.0000000   0.5000042  )
        12           Fe2 tau(  12) = (   0.7537558   0.2487525   0.7500058  )
        13           Fe1 tau(  13) = (   0.5025042   0.4975041   0.0000000  )
        14           Fe2 tau(  14) = (   0.7537558   0.7462558   0.2500025  )
        15           Fe1 tau(  15) = (   0.5025042   0.4975041   0.5000042  )
        16           Fe2 tau(  16) = (   0.7537558   0.7462558   0.7500058  )

     number of k points=   125  Marzari-Vanderbilt smearing, width (Ry)=  0.0400

     Number of k-points >= 100: set verbosity='high' to print them.

     Dense  grid:   179003 G-vectors     FFT dimensions: (  72,  72,  72)

     Smooth grid:    96141 G-vectors     FFT dimensions: (  60,  60,  60)

     Estimated max dynamical RAM per process >     215.38 MB

     Estimated total dynamical RAM >       8.41 GB
     Generating pointlists ...
     new r_m :   0.1786 (alat units)  1.8922 (a.u.) for type    1
     new r_m :   0.1786 (alat units)  1.8922 (a.u.) for type    2

     Check: negative/imaginary core charge=   -0.000006    0.000000

     Initial potential from superposition of free atoms

     starting charge  255.99300, renormalised to  256.00000
     Starting wfcs are  160 randomized atomic wfcs
     Checking if some PAW data can be deallocated... 

     total cpu time spent up to now is       23.4 secs

     Self-consistent Calculation

     iteration #  1     ecut=    71.00 Ry     beta= 0.10
     Davidson diagonalization with overlap
     ethr =  1.00E-02,  avg # of iterations =  3.3

     Threshold (ethr) on eigenvalues was too large:
     Diagonalizing with lowered threshold

     Davidson diagonalization with overlap
     ethr =  2.83E-04,  avg # of iterations =  3.4

     total cpu time spent up to now is      210.9 secs

     total energy              =   -5268.17602868 Ry
     Harris-Foulkes estimate   =   -5268.32770421 Ry
     estimated scf accuracy    <       0.82025361 Ry

     total magnetization       =    28.04 Bohr mag/cell
     absolute magnetization    =    28.40 Bohr mag/cell

     iteration #  2     ecut=    71.00 Ry     beta= 0.10
     Davidson diagonalization with overlap
     ethr =  3.20E-04,  avg # of iterations =  1.0

     total cpu time spent up to now is      266.4 secs

     total energy              =   -5268.06963616 Ry
     Harris-Foulkes estimate   =   -5268.19479278 Ry
     estimated scf accuracy    <       0.49727236 Ry

     total magnetization       =    28.66 Bohr mag/cell
     absolute magnetization    =    28.95 Bohr mag/cell

     iteration #  3     ecut=    71.00 Ry     beta= 0.10
     Davidson diagonalization with overlap
     ethr =  1.94E-04,  avg # of iterations =  2.5

     total cpu time spent up to now is      342.1 secs

     total energy              =   -5268.03749024 Ry
     Harris-Foulkes estimate   =   -5268.11632252 Ry
     estimated scf accuracy    <       0.56731089 Ry

     total magnetization       =    29.37 Bohr mag/cell
     absolute magnetization    =    29.70 Bohr mag/cell

     iteration #  4     ecut=    71.00 Ry     beta= 0.10
     Davidson diagonalization with overlap
     ethr =  1.94E-04,  avg # of iterations =  2.1

     total cpu time spent up to now is      411.2 secs

     total energy              =   -5268.06927385 Ry
     Harris-Foulkes estimate   =   -5268.07277366 Ry
     estimated scf accuracy    <       0.17391095 Ry

     total magnetization       =    30.20 Bohr mag/cell
     absolute magnetization    =    30.58 Bohr mag/cell

     iteration #  5     ecut=    71.00 Ry     beta= 0.10
     Davidson diagonalization with overlap
     ethr =  6.79E-05,  avg # of iterations =  1.4

     total cpu time spent up to now is      470.9 secs

     total energy              =   -5268.08807071 Ry
     Harris-Foulkes estimate   =   -5268.07337707 Ry
     estimated scf accuracy    <       0.11131765 Ry

     total magnetization       =    30.29 Bohr mag/cell
     absolute magnetization    =    30.69 Bohr mag/cell

     iteration #  6     ecut=    71.00 Ry     beta= 0.10
     Davidson diagonalization with overlap
     ethr =  4.35E-05,  avg # of iterations =  3.3

     total cpu time spent up to now is      574.8 secs

     total energy              =   -5268.14469697 Ry
     Harris-Foulkes estimate   =   -5268.12697784 Ry
     estimated scf accuracy    <       0.13309449 Ry

     total magnetization       =    30.92 Bohr mag/cell
     absolute magnetization    =    31.63 Bohr mag/cell

     iteration #  7     ecut=    71.00 Ry     beta= 0.10
     Davidson diagonalization with overlap
     ethr =  4.35E-05,  avg # of iterations =  2.0

     total cpu time spent up to now is      646.6 secs

     total energy              =   -5268.15237317 Ry
     Harris-Foulkes estimate   =   -5268.15252455 Ry
     estimated scf accuracy    <       0.09973498 Ry

     total magnetization       =    31.45 Bohr mag/cell
     absolute magnetization    =    32.36 Bohr mag/cell

     iteration #  8     ecut=    71.00 Ry     beta= 0.10
     Davidson diagonalization with overlap
     ethr =  3.90E-05,  avg # of iterations =  1.0

     negative rho (up, down):  0.000E+00 1.215E-03

     total cpu time spent up to now is      702.2 secs

     total energy              =   -5268.16902595 Ry
     Harris-Foulkes estimate   =   -5268.15356724 Ry
     estimated scf accuracy    <       0.07967805 Ry

     total magnetization       =    31.57 Bohr mag/cell
     absolute magnetization    =    32.54 Bohr mag/cell

     iteration #  9     ecut=    71.00 Ry     beta= 0.10
     Davidson diagonalization with overlap
     ethr =  3.11E-05,  avg # of iterations =  2.7

     negative rho (up, down):  0.000E+00 2.163E-03

     total cpu time spent up to now is      787.9 secs

     total energy              =   -5268.18706995 Ry
     Harris-Foulkes estimate   =   -5268.18031687 Ry
     estimated scf accuracy    <       0.04292165 Ry

     total magnetization       =    32.17 Bohr mag/cell
     absolute magnetization    =    33.47 Bohr mag/cell

     iteration # 10     ecut=    71.00 Ry     beta= 0.10
     Davidson diagonalization with overlap
     ethr =  1.68E-05,  avg # of iterations =  2.1

     negative rho (up, down):  0.000E+00 2.504E-03

     total cpu time spent up to now is      861.4 secs

     total energy              =   -5268.18749183 Ry
     Harris-Foulkes estimate   =   -5268.19003717 Ry
     estimated scf accuracy    <       0.01654896 Ry

     total magnetization       =    32.48 Bohr mag/cell
     absolute magnetization    =    33.93 Bohr mag/cell

     iteration # 11     ecut=    71.00 Ry     beta= 0.10
     Davidson diagonalization with overlap
     ethr =  6.46E-06,  avg # of iterations =  2.7

     negative rho (up, down):  0.000E+00 2.549E-03

     total cpu time spent up to now is      941.6 secs

     total energy              =   -5268.18838982 Ry
     Harris-Foulkes estimate   =   -5268.18863600 Ry
     estimated scf accuracy    <       0.00170840 Ry

     total magnetization       =    32.65 Bohr mag/cell
     absolute magnetization    =    34.25 Bohr mag/cell

     iteration # 12     ecut=    71.00 Ry     beta= 0.10
     Davidson diagonalization with overlap
     ethr =  6.67E-07,  avg # of iterations =  2.9

     negative rho (up, down):  0.000E+00 2.578E-03

     total cpu time spent up to now is     1024.4 secs

     total energy              =   -5268.18868255 Ry
     Harris-Foulkes estimate   =   -5268.18851699 Ry
     estimated scf accuracy    <       0.00082422 Ry

     total magnetization       =    32.69 Bohr mag/cell
     absolute magnetization    =    34.33 Bohr mag/cell

     iteration # 13     ecut=    71.00 Ry     beta= 0.10
     Davidson diagonalization with overlap
     ethr =  3.22E-07,  avg # of iterations =  1.5

     negative rho (up, down):  0.000E+00 2.589E-03

     total cpu time spent up to now is     1088.6 secs

     total energy              =   -5268.18859489 Ry
     Harris-Foulkes estimate   =   -5268.18873377 Ry
     estimated scf accuracy    <       0.00073438 Ry

     total magnetization       =    32.72 Bohr mag/cell
     absolute magnetization    =    34.39 Bohr mag/cell

     iteration # 14     ecut=    71.00 Ry     beta= 0.10
     Davidson diagonalization with overlap
     ethr =  2.87E-07,  avg # of iterations =  2.2

     negative rho (up, down):  0.000E+00 2.447E-03

     total cpu time spent up to now is     1166.1 secs

     total energy              =   -5268.18892439 Ry
     Harris-Foulkes estimate   =   -5268.18867992 Ry
     estimated scf accuracy    <       0.00085626 Ry

     total magnetization       =    32.76 Bohr mag/cell
     absolute magnetization    =    34.47 Bohr mag/cell

     iteration # 15     ecut=    71.00 Ry     beta= 0.10
     Davidson diagonalization with overlap
     ethr =  2.87E-07,  avg # of iterations =  2.0

     negative rho (up, down):  0.000E+00 2.494E-03

     total cpu time spent up to now is     1239.2 secs

     total energy              =   -5268.18905337 Ry
     Harris-Foulkes estimate   =   -5268.18902538 Ry
     estimated scf accuracy    <       0.00017966 Ry

     total magnetization       =    32.78 Bohr mag/cell
     absolute magnetization    =    34.49 Bohr mag/cell

     iteration # 16     ecut=    71.00 Ry     beta= 0.10
     Davidson diagonalization with overlap
     ethr =  7.02E-08,  avg # of iterations =  2.7

     negative rho (up, down):  0.000E+00 2.475E-03

     total cpu time spent up to now is     1320.6 secs

     total energy              =   -5268.18911482 Ry
     Harris-Foulkes estimate   =   -5268.18907438 Ry
     estimated scf accuracy    <       0.00010589 Ry

     total magnetization       =    32.82 Bohr mag/cell
     absolute magnetization    =    34.56 Bohr mag/cell

     iteration # 17     ecut=    71.00 Ry     beta= 0.10
     Davidson diagonalization with overlap
     ethr =  4.14E-08,  avg # of iterations =  1.8

     negative rho (up, down):  0.000E+00 2.467E-03

     total cpu time spent up to now is     1387.0 secs

     total energy              =   -5268.18916178 Ry
     Harris-Foulkes estimate   =   -5268.18912068 Ry
     estimated scf accuracy    <       0.00007441 Ry

     total magnetization       =    32.83 Bohr mag/cell
     absolute magnetization    =    34.57 Bohr mag/cell

     iteration # 18     ecut=    71.00 Ry     beta= 0.10
     Davidson diagonalization with overlap
     ethr =  2.91E-08,  avg # of iterations =  2.9

     negative rho (up, down):  0.000E+00 2.455E-03

     total cpu time spent up to now is     1475.3 secs

     total energy              =   -5268.18918168 Ry
     Harris-Foulkes estimate   =   -5268.18917451 Ry
     estimated scf accuracy    <       0.00004802 Ry

     total magnetization       =    32.86 Bohr mag/cell
     absolute magnetization    =    34.61 Bohr mag/cell

     iteration # 19     ecut=    71.00 Ry     beta= 0.10
     Davidson diagonalization with overlap
     ethr =  1.88E-08,  avg # of iterations =  2.5

     negative rho (up, down):  0.000E+00 2.440E-03

     total cpu time spent up to now is     1555.2 secs

     total energy              =   -5268.18919445 Ry
     Harris-Foulkes estimate   =   -5268.18918900 Ry
     estimated scf accuracy    <       0.00001984 Ry

     total magnetization       =    32.87 Bohr mag/cell
     absolute magnetization    =    34.64 Bohr mag/cell

     iteration # 20     ecut=    71.00 Ry     beta= 0.10
     Davidson diagonalization with overlap
     ethr =  7.75E-09,  avg # of iterations =  1.8

     negative rho (up, down):  0.000E+00 2.424E-03

     total cpu time spent up to now is     1621.4 secs

     total energy              =   -5268.18919953 Ry
     Harris-Foulkes estimate   =   -5268.18919546 Ry
     estimated scf accuracy    <       0.00001394 Ry

     total magnetization       =    32.88 Bohr mag/cell
     absolute magnetization    =    34.64 Bohr mag/cell

     iteration # 21     ecut=    71.00 Ry     beta= 0.10
     Davidson diagonalization with overlap
     ethr =  5.45E-09,  avg # of iterations =  2.5

     negative rho (up, down):  0.000E+00 2.422E-03

     total cpu time spent up to now is     1701.6 secs

     total energy              =   -5268.18920323 Ry
     Harris-Foulkes estimate   =   -5268.18920209 Ry
     estimated scf accuracy    <       0.00000715 Ry

     total magnetization       =    32.88 Bohr mag/cell
     absolute magnetization    =    34.65 Bohr mag/cell

     iteration # 22     ecut=    71.00 Ry     beta= 0.10
     Davidson diagonalization with overlap
     ethr =  2.79E-09,  avg # of iterations =  2.3

     negative rho (up, down):  0.000E+00 2.432E-03

     total cpu time spent up to now is     1775.6 secs

     total energy              =   -5268.18920432 Ry
     Harris-Foulkes estimate   =   -5268.18920427 Ry
     estimated scf accuracy    <       0.00000423 Ry

     total magnetization       =    32.89 Bohr mag/cell
     absolute magnetization    =    34.65 Bohr mag/cell

     iteration # 23     ecut=    71.00 Ry     beta= 0.10
     Davidson diagonalization with overlap
     ethr =  1.65E-09,  avg # of iterations =  2.3

     negative rho (up, down):  0.000E+00 2.443E-03

     total cpu time spent up to now is     1846.9 secs

     total energy              =   -5268.18920479 Ry
     Harris-Foulkes estimate   =   -5268.18920470 Ry
     estimated scf accuracy    <       0.00000279 Ry

     total magnetization       =    32.90 Bohr mag/cell
     absolute magnetization    =    34.66 Bohr mag/cell

     iteration # 24     ecut=    71.00 Ry     beta= 0.10
     Davidson diagonalization with overlap
     ethr =  1.09E-09,  avg # of iterations =  2.2

     negative rho (up, down):  0.000E+00 2.461E-03
 
     Magnetic moment per site:
     atom:    1    charge:   14.3664    magn:    2.0994    constr:    0.0000
     atom:    2    charge:   14.3664    magn:    2.1016    constr:    0.0000
     atom:    3    charge:   14.3667    magn:    2.1000    constr:    0.0000
     atom:    4    charge:   14.3664    magn:    2.1016    constr:    0.0000
     atom:    5    charge:   14.3663    magn:    2.1000    constr:    0.0000
     atom:    6    charge:   14.3664    magn:    2.1016    constr:    0.0000
     atom:    7    charge:   14.3669    magn:    2.1001    constr:    0.0000
     atom:    8    charge:   14.3664    magn:    2.1016    constr:    0.0000
     atom:    9    charge:   14.3667    magn:    2.0983    constr:    0.0000
     atom:   10    charge:   14.3664    magn:    2.1016    constr:    0.0000
     atom:   11    charge:   14.3667    magn:    2.0987    constr:    0.0000
     atom:   12    charge:   14.3664    magn:    2.1016    constr:    0.0000
     atom:   13    charge:   14.3662    magn:    2.0988    constr:    0.0000
     atom:   14    charge:   14.3664    magn:    2.1016    constr:    0.0000
     atom:   15    charge:   14.3666    magn:    2.0992    constr:    0.0000
     atom:   16    charge:   14.3664    magn:    2.1016    constr:    0.0000

     total cpu time spent up to now is     1921.9 secs

     End of self-consistent calculation

     Number of k-points >= 100: set verbosity='high' to print the bands.

     the Fermi energy is    18.9749 ev

!    total energy              =   -5268.18920646 Ry
     Harris-Foulkes estimate   =   -5268.18920513 Ry
     estimated scf accuracy    <       0.00000097 Ry

     total all-electron energy =    -40728.933735 Ry

     The total energy is the sum of the following terms:

     one-electron contribution =   -1707.43352504 Ry
     hartree contribution      =    1022.27662457 Ry
     xc contribution           =    -444.25900281 Ry
     ewald contribution        =   -2814.22613397 Ry
     one-center paw contrib.   =   -1324.67105500 Ry
     smearing contrib. (-TS)   =       0.12388579 Ry

     total magnetization       =    32.90 Bohr mag/cell
     absolute magnetization    =    34.66 Bohr mag/cell

     convergence has been achieved in  24 iterations

     negative rho (up, down):  0.000E+00 2.461E-03

     Forces acting on atoms (cartesian axes, Ry/au):

     atom    1 type  1   force =     0.00000000    0.00000000    0.00000000
     atom    2 type  2   force =    -0.00004338    0.00029445    0.00002362
     atom    3 type  1   force =     0.00000000    0.00000000    0.00000000
     atom    4 type  2   force =    -0.00004338    0.00029445   -0.00002362
     atom    5 type  1   force =     0.00000000    0.00000000    0.00000000
     atom    6 type  2   force =    -0.00004338   -0.00029445    0.00002362
     atom    7 type  1   force =     0.00000000    0.00000000    0.00000000
     atom    8 type  2   force =    -0.00004338   -0.00029445   -0.00002362
     atom    9 type  1   force =     0.00000000    0.00000000    0.00000000
     atom   10 type  2   force =     0.00004338    0.00029445    0.00002362
     atom   11 type  1   force =     0.00000000    0.00000000    0.00000000
     atom   12 type  2   force =     0.00004338    0.00029445   -0.00002362
     atom   13 type  1   force =     0.00000000    0.00000000    0.00000000
     atom   14 type  2   force =     0.00004338   -0.00029445    0.00002362
     atom   15 type  1   force =     0.00000000    0.00000000    0.00000000
     atom   16 type  2   force =     0.00004338   -0.00029445   -0.00002362

     Total force =     0.000844     Total SCF correction =     0.004616
     SCF correction compared to forces is large: reduce conv_thr to get better values


     Computing stress (Cartesian axis) and pressure


     negative rho (up, down):  0.000E+00 2.461E-03
          total   stress  (Ry/bohr**3)                   (kbar)     P=   -3.51
  -0.00006771   0.00000000   0.00000000         -9.96      0.00      0.00
   0.00000000   0.00002070   0.00000000          0.00      3.04      0.00
   0.00000000   0.00000000  -0.00002456          0.00      0.00     -3.61


     Writing output data file fLtSYlVJHkjbaSXB.save/
 
     init_run     :     21.09s CPU     22.12s WALL (       1 calls)
     electrons    :   1841.75s CPU   1898.52s WALL (       1 calls)
     forces       :      7.68s CPU      8.35s WALL (       1 calls)
     stress       :     23.07s CPU     23.31s WALL (       1 calls)

     Called by init_run:
     wfcinit      :     20.67s CPU     21.58s WALL (       1 calls)
     potinit      :      0.21s CPU      0.23s WALL (       1 calls)
     hinit0       :      0.12s CPU      0.13s WALL (       1 calls)

     Called by electrons:
     c_bands      :   1657.74s CPU   1704.09s WALL (      25 calls)
     sum_band     :    178.99s CPU    188.72s WALL (      25 calls)
     v_of_rho     :      0.43s CPU      0.44s WALL (      25 calls)
     newd         :      0.78s CPU      1.01s WALL (      25 calls)
     PAW_pot      :      3.74s CPU      4.09s WALL (      25 calls)
     mix_rho      :      0.16s CPU      0.16s WALL (      25 calls)

     Called by c_bands:
     init_us_2    :      9.36s CPU      9.47s WALL (   13250 calls)
     cegterg      :   1611.76s CPU   1657.65s WALL (    6250 calls)

     Called by sum_band:
     sum_band:bec :      2.61s CPU      2.67s WALL (    6250 calls)
     addusdens    :      1.23s CPU      1.44s WALL (      25 calls)

     Called by *egterg:
     h_psi        :    683.14s CPU    711.63s WALL (   20777 calls)
     s_psi        :     37.85s CPU     38.07s WALL (   20777 calls)
     g_psi        :      1.55s CPU      1.57s WALL (   14277 calls)
     cdiaghg      :    728.32s CPU    730.67s WALL (   20277 calls)

     Called by h_psi:
     h_psi:pot    :    678.91s CPU    707.37s WALL (   20777 calls)
     h_psi:calbec :     55.91s CPU     64.84s WALL (   20777 calls)
     vloc_psi     :    585.14s CPU    604.42s WALL (   20777 calls)
     add_vuspsi   :     37.69s CPU     37.97s WALL (   20777 calls)

     General routines
     calbec       :     84.59s CPU     98.68s WALL (   28277 calls)
     fft          :      0.46s CPU      0.49s WALL (     667 calls)
     ffts         :      0.05s CPU      0.24s WALL (     100 calls)
     fftw         :    687.82s CPU    710.72s WALL ( 5179494 calls)
     interpolate  :      0.07s CPU      0.15s WALL (      50 calls)
 
     Parallel routines
     fft_scatt_xy :     45.38s CPU     46.91s WALL ( 5180261 calls)
     fft_scatt_yz :    460.83s CPU    476.59s WALL ( 5180261 calls)
 
     PWSCF        : 31m48.51s CPU    33m36.24s WALL

 
   This run was terminated on:   5:21:18  10Sep2020            

=------------------------------------------------------------------------------=
   JOB DONE.
=------------------------------------------------------------------------------=
