--------------------------------------------------------------------------
WARNING: No preset parameters were found for the device that Open MPI
detected:

  Local host:            bear-pg0206u39a
  Device name:           mlx5_0
  Device vendor ID:      0x02c9
  Device vendor part ID: 4123

Default device parameters will be used, which may result in lower
performance.  You can edit any of the files specified by the
btl_openib_device_param_files MCA parameter to set values for your
device.

NOTE: You can turn off this warning by setting the MCA parameter
      btl_openib_warn_no_device_params_found to 0.
--------------------------------------------------------------------------
--------------------------------------------------------------------------
WARNING: There was an error initializing an OpenFabrics device.

  Local host:   bear-pg0206u39a
  Local device: mlx5_0
--------------------------------------------------------------------------

     Program PWSCF v.6.3 starts on 10Sep2020 at  5:54:30 

     This program is part of the open-source Quantum ESPRESSO suite
     for quantum simulation of materials; please cite
         "P. Giannozzi et al., J. Phys.:Condens. Matter 21 395502 (2009);
         "P. Giannozzi et al., J. Phys.:Condens. Matter 29 465901 (2017);
          URL http://www.quantum-espresso.org", 
     in publications or presentations arising from this work. More details at
     http://www.quantum-espresso.org/quote

     Parallel version (MPI & OpenMP), running on      40 processor cores
     Number of MPI processes:                40
     Threads/MPI process:                     1

     MPI processes distributed on     1 nodes
     R & G space division:  proc/nbgrp/npool/nimage =      40
     Reading input from wd/ec/ec_8_003.in
Warning: card &IONS ignored
Warning: card ION_DYNAMICS = 'BFGS', ignored
Warning: card / ignored
Warning: card &CELL ignored
Warning: card CELL_DYNAMICS = 'BFGS', ignored
Warning: card CELL_FACTOR = 2.0, ignored
Warning: card PRESS = 0.0, ignored
Warning: card / ignored

     Current dimensions of program PWSCF are:
     Max number of different atomic species (ntypx) = 10
     Max number of k-points (npk) =  40000
     Max angular momentum in pseudopotentials (lmaxx) =  3
               file Fe.pbe-spn-kjpaw_psl.1.0.0.UPF: wavefunction(s)  3P 3D renormalized
               file Fe.pbe-spn-kjpaw_psl.1.0.0.UPF: wavefunction(s)  3P 3D renormalized

     Subspace diagonalization in iterative solution of the eigenvalue problem:
     a serial algorithm will be used

     Found symmetry operation: I + (  0.0000  0.0000 -0.5000)
     This is a supercell, fractional translations are disabled
 
     Parallelization info
     --------------------
     sticks:   dense  smooth     PW     G-vecs:    dense   smooth      PW
     Min          96      63     17                 4472     2401     355
     Max          98      64     18                 4474     2406     360
     Sum        3843    2549    717               178927    96113   14323
 


     bravais-lattice index     =            0
     lattice parameter (alat)  =      10.5935  a.u.
     unit-cell volume          =    1188.8329 (a.u.)^3
     number of atoms/cell      =           16
     number of atomic types    =            2
     number of electrons       =       256.00
     number of Kohn-Sham states=          154
     kinetic-energy cutoff     =      71.0000  Ry
     charge density cutoff     =     430.0000  Ry
     convergence threshold     =      1.0E-06
     mixing beta               =       0.1000
     number of iterations used =           10  plain     mixing
     Exchange-correlation      = SLA PW PBX PBC ( 1  4  3  4 0 0)

     celldm(1)=  10.593520  celldm(2)=   0.000000  celldm(3)=   0.000000
     celldm(4)=   0.000000  celldm(5)=   0.000000  celldm(6)=   0.000000

     crystal axes: (cart. coord. in units of alat)
               a(1) = (   1.001668   0.000000   0.000000 )  
               a(2) = (   0.000000   1.000001   0.000000 )  
               a(3) = (   0.000000   0.000000   0.998334 )  

     reciprocal axes: (cart. coord. in units 2 pi/alat)
               b(1) = (  0.998335  0.000000  0.000000 )  
               b(2) = (  0.000000  0.999999  0.000000 )  
               b(3) = (  0.000000  0.000000  1.001669 )  


     PseudoPot. # 1 for Fe read from file:
     /rds/homes/b/bxp912/pp/Fe.pbe-spn-kjpaw_psl.1.0.0.UPF
     MD5 check sum: 42f43b795421b414b0dc916aa790dbcb
     Pseudo is Projector augmented-wave + core cor, Zval = 16.0
     Generated using "atomic" code by A. Dal Corso v.6.3
     Shape of augmentation charge: PSQ
     Using radial grid of 1191 points,  6 beta functions with: 
                l(1) =   0
                l(2) =   0
                l(3) =   1
                l(4) =   1
                l(5) =   2
                l(6) =   2
     Q(r) pseudized with 0 coefficients 


     PseudoPot. # 2 for Fe read from file:
     /rds/homes/b/bxp912/pp/Fe.pbe-spn-kjpaw_psl.1.0.0.UPF
     MD5 check sum: 42f43b795421b414b0dc916aa790dbcb
     Pseudo is Projector augmented-wave + core cor, Zval = 16.0
     Generated using "atomic" code by A. Dal Corso v.6.3
     Shape of augmentation charge: PSQ
     Using radial grid of 1191 points,  6 beta functions with: 
                l(1) =   0
                l(2) =   0
                l(3) =   1
                l(4) =   1
                l(5) =   2
                l(6) =   2
     Q(r) pseudized with 0 coefficients 


     atomic species   valence    mass     pseudopotential
        Fe1           16.00    55.84500     Fe( 1.00)
        Fe2           16.00    55.84500     Fe( 1.00)

     Starting magnetic structure 
     atomic species   magnetization
        Fe1          0.100
        Fe2          0.100

      8 Sym. Ops., with inversion, found



   Cartesian axes

     site n.     atom                  positions (alat units)
         1           Fe1 tau(   1) = (   0.0000000   0.0000000   0.0000000  )
         2           Fe2 tau(   2) = (   0.2504173   0.2500007   0.2495840  )
         3           Fe1 tau(   3) = (   0.0000000   0.0000000   0.4991671  )
         4           Fe2 tau(   4) = (   0.2504173   0.2500007   0.7487503  )
         5           Fe1 tau(   5) = (   0.0000000   0.5000005   0.0000000  )
         6           Fe2 tau(   6) = (   0.2504173   0.7500003   0.2495840  )
         7           Fe1 tau(   7) = (   0.0000000   0.5000005   0.4991671  )
         8           Fe2 tau(   8) = (   0.2504173   0.7500003   0.7487503  )
         9           Fe1 tau(   9) = (   0.5008338   0.0000000   0.0000000  )
        10           Fe2 tau(  10) = (   0.7512503   0.2500007   0.2495840  )
        11           Fe1 tau(  11) = (   0.5008338   0.0000000   0.4991671  )
        12           Fe2 tau(  12) = (   0.7512503   0.2500007   0.7487503  )
        13           Fe1 tau(  13) = (   0.5008338   0.5000005   0.0000000  )
        14           Fe2 tau(  14) = (   0.7512503   0.7500003   0.2495840  )
        15           Fe1 tau(  15) = (   0.5008338   0.5000005   0.4991671  )
        16           Fe2 tau(  16) = (   0.7512503   0.7500003   0.7487503  )

     number of k points=   125  Marzari-Vanderbilt smearing, width (Ry)=  0.0400

     Number of k-points >= 100: set verbosity='high' to print them.

     Dense  grid:   178927 G-vectors     FFT dimensions: (  72,  72,  72)

     Smooth grid:    96113 G-vectors     FFT dimensions: (  60,  60,  60)

     Estimated max dynamical RAM per process >     215.38 MB

     Estimated total dynamical RAM >       8.41 GB
     Generating pointlists ...
     new r_m :   0.1786 (alat units)  1.8922 (a.u.) for type    1
     new r_m :   0.1786 (alat units)  1.8922 (a.u.) for type    2

     Check: negative/imaginary core charge=   -0.000006    0.000000

     Initial potential from superposition of free atoms

     starting charge  255.99300, renormalised to  256.00000
     Starting wfcs are  160 randomized atomic wfcs
     Checking if some PAW data can be deallocated... 

     total cpu time spent up to now is       23.3 secs

     Self-consistent Calculation

     iteration #  1     ecut=    71.00 Ry     beta= 0.10
     Davidson diagonalization with overlap
     ethr =  1.00E-02,  avg # of iterations =  3.4

     Threshold (ethr) on eigenvalues was too large:
     Diagonalizing with lowered threshold

     Davidson diagonalization with overlap
     ethr =  2.83E-04,  avg # of iterations =  3.4

     total cpu time spent up to now is      209.4 secs

     total energy              =   -5268.17616122 Ry
     Harris-Foulkes estimate   =   -5268.32780573 Ry
     estimated scf accuracy    <       0.82020146 Ry

     total magnetization       =    28.04 Bohr mag/cell
     absolute magnetization    =    28.41 Bohr mag/cell

     iteration #  2     ecut=    71.00 Ry     beta= 0.10
     Davidson diagonalization with overlap
     ethr =  3.20E-04,  avg # of iterations =  1.0

     total cpu time spent up to now is      265.1 secs

     total energy              =   -5268.07011229 Ry
     Harris-Foulkes estimate   =   -5268.19495214 Ry
     estimated scf accuracy    <       0.49774229 Ry

     total magnetization       =    28.67 Bohr mag/cell
     absolute magnetization    =    28.95 Bohr mag/cell

     iteration #  3     ecut=    71.00 Ry     beta= 0.10
     Davidson diagonalization with overlap
     ethr =  1.94E-04,  avg # of iterations =  2.5

     total cpu time spent up to now is      340.9 secs

     total energy              =   -5268.03729458 Ry
     Harris-Foulkes estimate   =   -5268.11681983 Ry
     estimated scf accuracy    <       0.57541696 Ry

     total magnetization       =    29.37 Bohr mag/cell
     absolute magnetization    =    29.71 Bohr mag/cell

     iteration #  4     ecut=    71.00 Ry     beta= 0.10
     Davidson diagonalization with overlap
     ethr =  1.94E-04,  avg # of iterations =  2.1

     total cpu time spent up to now is      410.1 secs

     total energy              =   -5268.06930342 Ry
     Harris-Foulkes estimate   =   -5268.07312814 Ry
     estimated scf accuracy    <       0.17926540 Ry

     total magnetization       =    30.20 Bohr mag/cell
     absolute magnetization    =    30.58 Bohr mag/cell

     iteration #  5     ecut=    71.00 Ry     beta= 0.10
     Davidson diagonalization with overlap
     ethr =  7.00E-05,  avg # of iterations =  1.3

     total cpu time spent up to now is      471.6 secs

     total energy              =   -5268.08820431 Ry
     Harris-Foulkes estimate   =   -5268.07353449 Ry
     estimated scf accuracy    <       0.11150986 Ry

     total magnetization       =    30.30 Bohr mag/cell
     absolute magnetization    =    30.69 Bohr mag/cell

     iteration #  6     ecut=    71.00 Ry     beta= 0.10
     Davidson diagonalization with overlap
     ethr =  4.36E-05,  avg # of iterations =  3.2

     total cpu time spent up to now is      573.8 secs

     total energy              =   -5268.14472147 Ry
     Harris-Foulkes estimate   =   -5268.12704382 Ry
     estimated scf accuracy    <       0.13342028 Ry

     total magnetization       =    30.92 Bohr mag/cell
     absolute magnetization    =    31.62 Bohr mag/cell

     iteration #  7     ecut=    71.00 Ry     beta= 0.10
     Davidson diagonalization with overlap
     ethr =  4.36E-05,  avg # of iterations =  2.0

     total cpu time spent up to now is      644.7 secs

     total energy              =   -5268.15345334 Ry
     Harris-Foulkes estimate   =   -5268.15268193 Ry
     estimated scf accuracy    <       0.09947663 Ry

     total magnetization       =    31.45 Bohr mag/cell
     absolute magnetization    =    32.36 Bohr mag/cell

     iteration #  8     ecut=    71.00 Ry     beta= 0.10
     Davidson diagonalization with overlap
     ethr =  3.89E-05,  avg # of iterations =  1.0

     negative rho (up, down):  0.000E+00 1.852E-03

     total cpu time spent up to now is      700.4 secs

     total energy              =   -5268.17025780 Ry
     Harris-Foulkes estimate   =   -5268.15482828 Ry
     estimated scf accuracy    <       0.07705070 Ry

     total magnetization       =    31.60 Bohr mag/cell
     absolute magnetization    =    32.58 Bohr mag/cell

     iteration #  9     ecut=    71.00 Ry     beta= 0.10
     Davidson diagonalization with overlap
     ethr =  3.01E-05,  avg # of iterations =  2.7

     negative rho (up, down):  0.000E+00 2.151E-03

     total cpu time spent up to now is      795.5 secs

     total energy              =   -5268.18956571 Ry
     Harris-Foulkes estimate   =   -5268.18820379 Ry
     estimated scf accuracy    <       0.02883277 Ry

     total magnetization       =    32.37 Bohr mag/cell
     absolute magnetization    =    33.78 Bohr mag/cell

     iteration # 10     ecut=    71.00 Ry     beta= 0.10
     Davidson diagonalization with overlap
     ethr =  1.13E-05,  avg # of iterations =  1.0

     negative rho (up, down):  0.000E+00 2.512E-03

     total cpu time spent up to now is      851.5 secs

     total energy              =   -5268.18796224 Ry
     Harris-Foulkes estimate   =   -5268.19009434 Ry
     estimated scf accuracy    <       0.01603921 Ry

     total magnetization       =    32.48 Bohr mag/cell
     absolute magnetization    =    33.94 Bohr mag/cell

     iteration # 11     ecut=    71.00 Ry     beta= 0.10
     Davidson diagonalization with overlap
     ethr =  6.27E-06,  avg # of iterations =  2.3

     negative rho (up, down):  0.000E+00 2.558E-03

     total cpu time spent up to now is      926.2 secs

     total energy              =   -5268.18870512 Ry
     Harris-Foulkes estimate   =   -5268.18892652 Ry
     estimated scf accuracy    <       0.00173541 Ry

     total magnetization       =    32.65 Bohr mag/cell
     absolute magnetization    =    34.26 Bohr mag/cell

     iteration # 12     ecut=    71.00 Ry     beta= 0.10
     Davidson diagonalization with overlap
     ethr =  6.78E-07,  avg # of iterations =  2.8

     negative rho (up, down):  0.000E+00 2.576E-03

     total cpu time spent up to now is     1006.3 secs

     total energy              =   -5268.18899212 Ry
     Harris-Foulkes estimate   =   -5268.18884486 Ry
     estimated scf accuracy    <       0.00080373 Ry

     total magnetization       =    32.70 Bohr mag/cell
     absolute magnetization    =    34.35 Bohr mag/cell

     iteration # 13     ecut=    71.00 Ry     beta= 0.10
     Davidson diagonalization with overlap
     ethr =  3.14E-07,  avg # of iterations =  2.1

     negative rho (up, down):  0.000E+00 2.549E-03

     total cpu time spent up to now is     1076.4 secs

     total energy              =   -5268.18894347 Ry
     Harris-Foulkes estimate   =   -5268.18907310 Ry
     estimated scf accuracy    <       0.00122171 Ry

     total magnetization       =    32.75 Bohr mag/cell
     absolute magnetization    =    34.42 Bohr mag/cell

     iteration # 14     ecut=    71.00 Ry     beta= 0.10
     Davidson diagonalization with overlap
     ethr =  3.14E-07,  avg # of iterations =  2.7

     negative rho (up, down):  0.000E+00 2.485E-03

     total cpu time spent up to now is     1159.9 secs

     total energy              =   -5268.18921104 Ry
     Harris-Foulkes estimate   =   -5268.18907924 Ry
     estimated scf accuracy    <       0.00067866 Ry

     total magnetization       =    32.78 Bohr mag/cell
     absolute magnetization    =    34.50 Bohr mag/cell

     iteration # 15     ecut=    71.00 Ry     beta= 0.10
     Davidson diagonalization with overlap
     ethr =  2.65E-07,  avg # of iterations =  1.4

     negative rho (up, down):  0.000E+00 2.480E-03

     total cpu time spent up to now is     1220.6 secs

     total energy              =   -5268.18929202 Ry
     Harris-Foulkes estimate   =   -5268.18925127 Ry
     estimated scf accuracy    <       0.00020121 Ry

     total magnetization       =    32.78 Bohr mag/cell
     absolute magnetization    =    34.51 Bohr mag/cell

     iteration # 16     ecut=    71.00 Ry     beta= 0.10
     Davidson diagonalization with overlap
     ethr =  7.86E-08,  avg # of iterations =  2.5

     negative rho (up, down):  0.000E+00 2.458E-03

     total cpu time spent up to now is     1302.5 secs

     total energy              =   -5268.18935978 Ry
     Harris-Foulkes estimate   =   -5268.18931666 Ry
     estimated scf accuracy    <       0.00010340 Ry

     total magnetization       =    32.82 Bohr mag/cell
     absolute magnetization    =    34.55 Bohr mag/cell

     iteration # 17     ecut=    71.00 Ry     beta= 0.10
     Davidson diagonalization with overlap
     ethr =  4.04E-08,  avg # of iterations =  2.1

     negative rho (up, down):  0.000E+00 2.394E-03

     total cpu time spent up to now is     1376.2 secs

     total energy              =   -5268.18939201 Ry
     Harris-Foulkes estimate   =   -5268.18936866 Ry
     estimated scf accuracy    <       0.00006874 Ry

     total magnetization       =    32.83 Bohr mag/cell
     absolute magnetization    =    34.58 Bohr mag/cell

     iteration # 18     ecut=    71.00 Ry     beta= 0.10
     Davidson diagonalization with overlap
     ethr =  2.69E-08,  avg # of iterations =  2.5

     negative rho (up, down):  0.000E+00 2.431E-03

     total cpu time spent up to now is     1461.2 secs

     total energy              =   -5268.18941673 Ry
     Harris-Foulkes estimate   =   -5268.18941189 Ry
     estimated scf accuracy    <       0.00004040 Ry

     total magnetization       =    32.85 Bohr mag/cell
     absolute magnetization    =    34.60 Bohr mag/cell

     iteration # 19     ecut=    71.00 Ry     beta= 0.10
     Davidson diagonalization with overlap
     ethr =  1.58E-08,  avg # of iterations =  2.4

     negative rho (up, down):  0.000E+00 2.443E-03

     total cpu time spent up to now is     1540.3 secs

     total energy              =   -5268.18942287 Ry
     Harris-Foulkes estimate   =   -5268.18942281 Ry
     estimated scf accuracy    <       0.00001849 Ry

     total magnetization       =    32.87 Bohr mag/cell
     absolute magnetization    =    34.63 Bohr mag/cell

     iteration # 20     ecut=    71.00 Ry     beta= 0.10
     Davidson diagonalization with overlap
     ethr =  7.22E-09,  avg # of iterations =  1.6

     negative rho (up, down):  0.000E+00 2.463E-03

     total cpu time spent up to now is     1602.8 secs

     total energy              =   -5268.18942387 Ry
     Harris-Foulkes estimate   =   -5268.18942388 Ry
     estimated scf accuracy    <       0.00001700 Ry

     total magnetization       =    32.87 Bohr mag/cell
     absolute magnetization    =    34.64 Bohr mag/cell

     iteration # 21     ecut=    71.00 Ry     beta= 0.10
     Davidson diagonalization with overlap
     ethr =  6.64E-09,  avg # of iterations =  2.3

     negative rho (up, down):  0.000E+00 2.461E-03

     total cpu time spent up to now is     1674.7 secs

     total energy              =   -5268.18942849 Ry
     Harris-Foulkes estimate   =   -5268.18942531 Ry
     estimated scf accuracy    <       0.00000830 Ry

     total magnetization       =    32.89 Bohr mag/cell
     absolute magnetization    =    34.65 Bohr mag/cell

     iteration # 22     ecut=    71.00 Ry     beta= 0.10
     Davidson diagonalization with overlap
     ethr =  3.24E-09,  avg # of iterations =  2.3

     negative rho (up, down):  0.000E+00 2.457E-03

     total cpu time spent up to now is     1748.3 secs

     total energy              =   -5268.18943129 Ry
     Harris-Foulkes estimate   =   -5268.18942949 Ry
     estimated scf accuracy    <       0.00000645 Ry

     total magnetization       =    32.89 Bohr mag/cell
     absolute magnetization    =    34.66 Bohr mag/cell

     iteration # 23     ecut=    71.00 Ry     beta= 0.10
     Davidson diagonalization with overlap
     ethr =  2.52E-09,  avg # of iterations =  2.4

     negative rho (up, down):  0.000E+00 2.452E-03

     total cpu time spent up to now is     1824.6 secs

     total energy              =   -5268.18943312 Ry
     Harris-Foulkes estimate   =   -5268.18943237 Ry
     estimated scf accuracy    <       0.00000153 Ry

     total magnetization       =    32.90 Bohr mag/cell
     absolute magnetization    =    34.67 Bohr mag/cell

     iteration # 24     ecut=    71.00 Ry     beta= 0.10
     Davidson diagonalization with overlap
     ethr =  5.99E-10,  avg # of iterations =  2.7

     negative rho (up, down):  0.000E+00 2.464E-03
 
     Magnetic moment per site:
     atom:    1    charge:   14.3662    magn:    2.0996    constr:    0.0000
     atom:    2    charge:   14.3663    magn:    2.1017    constr:    0.0000
     atom:    3    charge:   14.3667    magn:    2.1002    constr:    0.0000
     atom:    4    charge:   14.3663    magn:    2.1017    constr:    0.0000
     atom:    5    charge:   14.3663    magn:    2.1002    constr:    0.0000
     atom:    6    charge:   14.3663    magn:    2.1017    constr:    0.0000
     atom:    7    charge:   14.3666    magn:    2.1004    constr:    0.0000
     atom:    8    charge:   14.3663    magn:    2.1017    constr:    0.0000
     atom:    9    charge:   14.3666    magn:    2.0983    constr:    0.0000
     atom:   10    charge:   14.3663    magn:    2.1017    constr:    0.0000
     atom:   11    charge:   14.3666    magn:    2.0987    constr:    0.0000
     atom:   12    charge:   14.3663    magn:    2.1017    constr:    0.0000
     atom:   13    charge:   14.3665    magn:    2.0988    constr:    0.0000
     atom:   14    charge:   14.3663    magn:    2.1017    constr:    0.0000
     atom:   15    charge:   14.3666    magn:    2.0993    constr:    0.0000
     atom:   16    charge:   14.3663    magn:    2.1017    constr:    0.0000

     total cpu time spent up to now is     1904.2 secs

     End of self-consistent calculation

     Number of k-points >= 100: set verbosity='high' to print the bands.

     the Fermi energy is    18.9743 ev

!    total energy              =   -5268.18943514 Ry
     Harris-Foulkes estimate   =   -5268.18943329 Ry
     estimated scf accuracy    <       0.00000093 Ry

     total all-electron energy =    -40728.933964 Ry

     The total energy is the sum of the following terms:

     one-electron contribution =   -1707.42908287 Ry
     hartree contribution      =    1022.27584315 Ry
     xc contribution           =    -444.25973192 Ry
     ewald contribution        =   -2814.22955535 Ry
     one-center paw contrib.   =   -1324.67105046 Ry
     smearing contrib. (-TS)   =       0.12414231 Ry

     total magnetization       =    32.90 Bohr mag/cell
     absolute magnetization    =    34.67 Bohr mag/cell

     convergence has been achieved in  24 iterations

     negative rho (up, down):  0.000E+00 2.464E-03

     Forces acting on atoms (cartesian axes, Ry/au):

     atom    1 type  1   force =     0.00000000    0.00000000    0.00000000
     atom    2 type  2   force =    -0.00006928    0.00022914    0.00003690
     atom    3 type  1   force =     0.00000000    0.00000000    0.00000000
     atom    4 type  2   force =    -0.00006928    0.00022914   -0.00003690
     atom    5 type  1   force =     0.00000000    0.00000000    0.00000000
     atom    6 type  2   force =    -0.00006928   -0.00022914    0.00003690
     atom    7 type  1   force =     0.00000000    0.00000000    0.00000000
     atom    8 type  2   force =    -0.00006928   -0.00022914   -0.00003690
     atom    9 type  1   force =     0.00000000    0.00000000    0.00000000
     atom   10 type  2   force =     0.00006928    0.00022914    0.00003690
     atom   11 type  1   force =     0.00000000    0.00000000    0.00000000
     atom   12 type  2   force =     0.00006928    0.00022914   -0.00003690
     atom   13 type  1   force =     0.00000000    0.00000000    0.00000000
     atom   14 type  2   force =     0.00006928   -0.00022914    0.00003690
     atom   15 type  1   force =     0.00000000    0.00000000    0.00000000
     atom   16 type  2   force =     0.00006928   -0.00022914   -0.00003690

     Total force =     0.000685     Total SCF correction =     0.005538
     SCF correction compared to forces is large: reduce conv_thr to get better values


     Computing stress (Cartesian axis) and pressure


     negative rho (up, down):  0.000E+00 2.464E-03
          total   stress  (Ry/bohr**3)                   (kbar)     P=   -3.05
  -0.00003547   0.00000000   0.00000000         -5.22      0.00      0.00
   0.00000000  -0.00002087   0.00000000          0.00     -3.07      0.00
   0.00000000   0.00000000  -0.00000575          0.00      0.00     -0.85


     Writing output data file tslwBSUOjlXCwEtU.save/
 
     init_run     :     21.13s CPU     22.03s WALL (       1 calls)
     electrons    :   1823.75s CPU   1880.90s WALL (       1 calls)
     forces       :      7.70s CPU      8.35s WALL (       1 calls)
     stress       :     23.30s CPU     23.52s WALL (       1 calls)

     Called by init_run:
     wfcinit      :     20.72s CPU     21.51s WALL (       1 calls)
     potinit      :      0.20s CPU      0.22s WALL (       1 calls)
     hinit0       :      0.12s CPU      0.13s WALL (       1 calls)

     Called by electrons:
     c_bands      :   1645.59s CPU   1693.17s WALL (      25 calls)
     sum_band     :    173.12s CPU    182.17s WALL (      25 calls)
     v_of_rho     :      0.37s CPU      0.38s WALL (      25 calls)
     newd         :      0.80s CPU      1.00s WALL (      25 calls)
     PAW_pot      :      3.80s CPU      4.04s WALL (      25 calls)
     mix_rho      :      0.14s CPU      0.15s WALL (      25 calls)

     Called by c_bands:
     init_us_2    :      9.04s CPU      9.21s WALL (   13250 calls)
     cegterg      :   1600.17s CPU   1647.17s WALL (    6250 calls)

     Called by sum_band:
     sum_band:bec :      2.59s CPU      2.63s WALL (    6250 calls)
     addusdens    :      1.34s CPU      1.55s WALL (      25 calls)

     Called by *egterg:
     h_psi        :    686.15s CPU    715.32s WALL (   20451 calls)
     s_psi        :     37.70s CPU     37.93s WALL (   20451 calls)
     g_psi        :      1.51s CPU      1.53s WALL (   13951 calls)
     cdiaghg      :    713.71s CPU    715.95s WALL (   19951 calls)

     Called by h_psi:
     h_psi:pot    :    682.59s CPU    711.71s WALL (   20451 calls)
     h_psi:calbec :     56.19s CPU     65.44s WALL (   20451 calls)
     vloc_psi     :    588.26s CPU    607.90s WALL (   20451 calls)
     add_vuspsi   :     37.97s CPU     38.24s WALL (   20451 calls)

     General routines
     calbec       :     86.44s CPU    100.69s WALL (   27951 calls)
     fft          :      0.39s CPU      0.42s WALL (     667 calls)
     ffts         :      0.05s CPU      0.24s WALL (     100 calls)
     fftw         :    685.42s CPU    708.07s WALL ( 5187154 calls)
     interpolate  :      0.07s CPU      0.15s WALL (      50 calls)
 
     Parallel routines
     fft_scatt_xy :     45.46s CPU     46.95s WALL ( 5187921 calls)
     fft_scatt_yz :    459.52s CPU    475.00s WALL ( 5187921 calls)
 
     PWSCF        : 31m30.82s CPU    33m18.74s WALL

 
   This run was terminated on:   6:27:49  10Sep2020            

=------------------------------------------------------------------------------=
   JOB DONE.
=------------------------------------------------------------------------------=
