--------------------------------------------------------------------------
WARNING: No preset parameters were found for the device that Open MPI
detected:

  Local host:            bear-pg0206u39a
  Device name:           mlx5_0
  Device vendor ID:      0x02c9
  Device vendor part ID: 4123

Default device parameters will be used, which may result in lower
performance.  You can edit any of the files specified by the
btl_openib_device_param_files MCA parameter to set values for your
device.

NOTE: You can turn off this warning by setting the MCA parameter
      btl_openib_warn_no_device_params_found to 0.
--------------------------------------------------------------------------
--------------------------------------------------------------------------
WARNING: There was an error initializing an OpenFabrics device.

  Local host:   bear-pg0206u39a
  Local device: mlx5_0
--------------------------------------------------------------------------

     Program PWSCF v.6.3 starts on 10Sep2020 at  6:27:50 

     This program is part of the open-source Quantum ESPRESSO suite
     for quantum simulation of materials; please cite
         "P. Giannozzi et al., J. Phys.:Condens. Matter 21 395502 (2009);
         "P. Giannozzi et al., J. Phys.:Condens. Matter 29 465901 (2017);
          URL http://www.quantum-espresso.org", 
     in publications or presentations arising from this work. More details at
     http://www.quantum-espresso.org/quote

     Parallel version (MPI & OpenMP), running on      40 processor cores
     Number of MPI processes:                40
     Threads/MPI process:                     1

     MPI processes distributed on     1 nodes
     R & G space division:  proc/nbgrp/npool/nimage =      40
     Reading input from wd/ec/ec_8_004.in
Warning: card &IONS ignored
Warning: card ION_DYNAMICS = 'BFGS', ignored
Warning: card / ignored
Warning: card &CELL ignored
Warning: card CELL_DYNAMICS = 'BFGS', ignored
Warning: card CELL_FACTOR = 2.0, ignored
Warning: card PRESS = 0.0, ignored
Warning: card / ignored

     Current dimensions of program PWSCF are:
     Max number of different atomic species (ntypx) = 10
     Max number of k-points (npk) =  40000
     Max angular momentum in pseudopotentials (lmaxx) =  3
               file Fe.pbe-spn-kjpaw_psl.1.0.0.UPF: wavefunction(s)  3P 3D renormalized
               file Fe.pbe-spn-kjpaw_psl.1.0.0.UPF: wavefunction(s)  3P 3D renormalized

     Subspace diagonalization in iterative solution of the eigenvalue problem:
     a serial algorithm will be used

     Found symmetry operation: I + (  0.0000  0.0000 -0.5000)
     This is a supercell, fractional translations are disabled
 
     Parallelization info
     --------------------
     sticks:   dense  smooth     PW     G-vecs:    dense   smooth      PW
     Min          96      63     17                 4472     2401     355
     Max          97      64     18                 4476     2406     360
     Sum        3847    2553    717               178971    96149   14315
 


     bravais-lattice index     =            0
     lattice parameter (alat)  =      10.5935  a.u.
     unit-cell volume          =    1188.8329 (a.u.)^3
     number of atoms/cell      =           16
     number of atomic types    =            2
     number of electrons       =       256.00
     number of Kohn-Sham states=          154
     kinetic-energy cutoff     =      71.0000  Ry
     charge density cutoff     =     430.0000  Ry
     convergence threshold     =      1.0E-06
     mixing beta               =       0.1000
     number of iterations used =           10  plain     mixing
     Exchange-correlation      = SLA PW PBX PBC ( 1  4  3  4 0 0)

     celldm(1)=  10.593520  celldm(2)=   0.000000  celldm(3)=   0.000000
     celldm(4)=   0.000000  celldm(5)=   0.000000  celldm(6)=   0.000000

     crystal axes: (cart. coord. in units of alat)
               a(1) = (   1.002502   0.000000   0.000000 )  
               a(2) = (   0.000000   1.000002   0.000000 )  
               a(3) = (   0.000000   0.000000   0.997502 )  

     reciprocal axes: (cart. coord. in units 2 pi/alat)
               b(1) = (  0.997504  0.000000  0.000000 )  
               b(2) = (  0.000000  0.999998  0.000000 )  
               b(3) = (  0.000000  0.000000  1.002504 )  


     PseudoPot. # 1 for Fe read from file:
     /rds/homes/b/bxp912/pp/Fe.pbe-spn-kjpaw_psl.1.0.0.UPF
     MD5 check sum: 42f43b795421b414b0dc916aa790dbcb
     Pseudo is Projector augmented-wave + core cor, Zval = 16.0
     Generated using "atomic" code by A. Dal Corso v.6.3
     Shape of augmentation charge: PSQ
     Using radial grid of 1191 points,  6 beta functions with: 
                l(1) =   0
                l(2) =   0
                l(3) =   1
                l(4) =   1
                l(5) =   2
                l(6) =   2
     Q(r) pseudized with 0 coefficients 


     PseudoPot. # 2 for Fe read from file:
     /rds/homes/b/bxp912/pp/Fe.pbe-spn-kjpaw_psl.1.0.0.UPF
     MD5 check sum: 42f43b795421b414b0dc916aa790dbcb
     Pseudo is Projector augmented-wave + core cor, Zval = 16.0
     Generated using "atomic" code by A. Dal Corso v.6.3
     Shape of augmentation charge: PSQ
     Using radial grid of 1191 points,  6 beta functions with: 
                l(1) =   0
                l(2) =   0
                l(3) =   1
                l(4) =   1
                l(5) =   2
                l(6) =   2
     Q(r) pseudized with 0 coefficients 


     atomic species   valence    mass     pseudopotential
        Fe1           16.00    55.84500     Fe( 1.00)
        Fe2           16.00    55.84500     Fe( 1.00)

     Starting magnetic structure 
     atomic species   magnetization
        Fe1          0.100
        Fe2          0.100

      8 Sym. Ops., with inversion, found



   Cartesian axes

     site n.     atom                  positions (alat units)
         1           Fe1 tau(   1) = (   0.0000000   0.0000000   0.0000000  )
         2           Fe2 tau(   2) = (   0.2506260   0.2500010   0.2493759  )
         3           Fe1 tau(   3) = (   0.0000000   0.0000000   0.4987510  )
         4           Fe2 tau(   4) = (   0.2506260   0.2500010   0.7481261  )
         5           Fe1 tau(   5) = (   0.0000000   0.5000010   0.0000000  )
         6           Fe2 tau(   6) = (   0.2506260   0.7500011   0.2493759  )
         7           Fe1 tau(   7) = (   0.0000000   0.5000010   0.4987510  )
         8           Fe2 tau(   8) = (   0.2506260   0.7500011   0.7481261  )
         9           Fe1 tau(   9) = (   0.5012510   0.0000000   0.0000000  )
        10           Fe2 tau(  10) = (   0.7518761   0.2500010   0.2493759  )
        11           Fe1 tau(  11) = (   0.5012510   0.0000000   0.4987510  )
        12           Fe2 tau(  12) = (   0.7518761   0.2500010   0.7481261  )
        13           Fe1 tau(  13) = (   0.5012510   0.5000010   0.0000000  )
        14           Fe2 tau(  14) = (   0.7518761   0.7500011   0.2493759  )
        15           Fe1 tau(  15) = (   0.5012510   0.5000010   0.4987510  )
        16           Fe2 tau(  16) = (   0.7518761   0.7500011   0.7481261  )

     number of k points=   125  Marzari-Vanderbilt smearing, width (Ry)=  0.0400

     Number of k-points >= 100: set verbosity='high' to print them.

     Dense  grid:   178971 G-vectors     FFT dimensions: (  72,  72,  72)

     Smooth grid:    96149 G-vectors     FFT dimensions: (  60,  60,  60)

     Estimated max dynamical RAM per process >     215.38 MB

     Estimated total dynamical RAM >       8.41 GB
     Generating pointlists ...
     new r_m :   0.1786 (alat units)  1.8922 (a.u.) for type    1
     new r_m :   0.1786 (alat units)  1.8922 (a.u.) for type    2

     Check: negative/imaginary core charge=   -0.000006    0.000000

     Initial potential from superposition of free atoms

     starting charge  255.99300, renormalised to  256.00000
     Starting wfcs are  160 randomized atomic wfcs
     Checking if some PAW data can be deallocated... 

     total cpu time spent up to now is       23.5 secs

     Self-consistent Calculation

     iteration #  1     ecut=    71.00 Ry     beta= 0.10
     Davidson diagonalization with overlap
     ethr =  1.00E-02,  avg # of iterations =  3.4

     Threshold (ethr) on eigenvalues was too large:
     Diagonalizing with lowered threshold

     Davidson diagonalization with overlap
     ethr =  2.83E-04,  avg # of iterations =  3.4

     total cpu time spent up to now is      210.1 secs

     total energy              =   -5268.17613966 Ry
     Harris-Foulkes estimate   =   -5268.32781909 Ry
     estimated scf accuracy    <       0.82041456 Ry

     total magnetization       =    28.04 Bohr mag/cell
     absolute magnetization    =    28.41 Bohr mag/cell

     iteration #  2     ecut=    71.00 Ry     beta= 0.10
     Davidson diagonalization with overlap
     ethr =  3.20E-04,  avg # of iterations =  1.0

     total cpu time spent up to now is      267.8 secs

     total energy              =   -5268.07010132 Ry
     Harris-Foulkes estimate   =   -5268.19492938 Ry
     estimated scf accuracy    <       0.49779668 Ry

     total magnetization       =    28.67 Bohr mag/cell
     absolute magnetization    =    28.95 Bohr mag/cell

     iteration #  3     ecut=    71.00 Ry     beta= 0.10
     Davidson diagonalization with overlap
     ethr =  1.94E-04,  avg # of iterations =  2.5

     total cpu time spent up to now is      343.0 secs

     total energy              =   -5268.03727305 Ry
     Harris-Foulkes estimate   =   -5268.11681475 Ry
     estimated scf accuracy    <       0.57569341 Ry

     total magnetization       =    29.37 Bohr mag/cell
     absolute magnetization    =    29.70 Bohr mag/cell

     iteration #  4     ecut=    71.00 Ry     beta= 0.10
     Davidson diagonalization with overlap
     ethr =  1.94E-04,  avg # of iterations =  2.1

     total cpu time spent up to now is      412.0 secs

     total energy              =   -5268.06928700 Ry
     Harris-Foulkes estimate   =   -5268.07311402 Ry
     estimated scf accuracy    <       0.17919123 Ry

     total magnetization       =    30.20 Bohr mag/cell
     absolute magnetization    =    30.58 Bohr mag/cell

     iteration #  5     ecut=    71.00 Ry     beta= 0.10
     Davidson diagonalization with overlap
     ethr =  7.00E-05,  avg # of iterations =  1.3

     total cpu time spent up to now is      470.8 secs

     total energy              =   -5268.08813477 Ry
     Harris-Foulkes estimate   =   -5268.07352641 Ry
     estimated scf accuracy    <       0.11150788 Ry

     total magnetization       =    30.30 Bohr mag/cell
     absolute magnetization    =    30.69 Bohr mag/cell

     iteration #  6     ecut=    71.00 Ry     beta= 0.10
     Davidson diagonalization with overlap
     ethr =  4.36E-05,  avg # of iterations =  3.2

     total cpu time spent up to now is      573.8 secs

     total energy              =   -5268.14459256 Ry
     Harris-Foulkes estimate   =   -5268.12679876 Ry
     estimated scf accuracy    <       0.13300046 Ry

     total magnetization       =    30.92 Bohr mag/cell
     absolute magnetization    =    31.62 Bohr mag/cell

     iteration #  7     ecut=    71.00 Ry     beta= 0.10
     Davidson diagonalization with overlap
     ethr =  4.36E-05,  avg # of iterations =  2.0

     total cpu time spent up to now is      645.0 secs

     total energy              =   -5268.15321101 Ry
     Harris-Foulkes estimate   =   -5268.15257909 Ry
     estimated scf accuracy    <       0.09936909 Ry

     total magnetization       =    31.45 Bohr mag/cell
     absolute magnetization    =    32.36 Bohr mag/cell

     iteration #  8     ecut=    71.00 Ry     beta= 0.10
     Davidson diagonalization with overlap
     ethr =  3.88E-05,  avg # of iterations =  1.0

     negative rho (up, down):  0.000E+00 1.753E-03

     total cpu time spent up to now is      700.4 secs

     total energy              =   -5268.17024974 Ry
     Harris-Foulkes estimate   =   -5268.15454980 Ry
     estimated scf accuracy    <       0.07736887 Ry

     total magnetization       =    31.60 Bohr mag/cell
     absolute magnetization    =    32.57 Bohr mag/cell

     iteration #  9     ecut=    71.00 Ry     beta= 0.10
     Davidson diagonalization with overlap
     ethr =  3.02E-05,  avg # of iterations =  2.7

     negative rho (up, down):  0.000E+00 2.148E-03

     total cpu time spent up to now is      791.7 secs

     total energy              =   -5268.18933462 Ry
     Harris-Foulkes estimate   =   -5268.18711221 Ry
     estimated scf accuracy    <       0.03191486 Ry

     total magnetization       =    32.34 Bohr mag/cell
     absolute magnetization    =    33.73 Bohr mag/cell

     iteration # 10     ecut=    71.00 Ry     beta= 0.10
     Davidson diagonalization with overlap
     ethr =  1.25E-05,  avg # of iterations =  1.0

     negative rho (up, down):  0.000E+00 2.510E-03

     total cpu time spent up to now is      847.6 secs

     total energy              =   -5268.18783882 Ry
     Harris-Foulkes estimate   =   -5268.19010426 Ry
     estimated scf accuracy    <       0.01643057 Ry

     total magnetization       =    32.48 Bohr mag/cell
     absolute magnetization    =    33.93 Bohr mag/cell

     iteration # 11     ecut=    71.00 Ry     beta= 0.10
     Davidson diagonalization with overlap
     ethr =  6.42E-06,  avg # of iterations =  2.4

     negative rho (up, down):  0.000E+00 2.558E-03

     total cpu time spent up to now is      924.0 secs

     total energy              =   -5268.18864926 Ry
     Harris-Foulkes estimate   =   -5268.18887030 Ry
     estimated scf accuracy    <       0.00169913 Ry

     total magnetization       =    32.65 Bohr mag/cell
     absolute magnetization    =    34.26 Bohr mag/cell

     iteration # 12     ecut=    71.00 Ry     beta= 0.10
     Davidson diagonalization with overlap
     ethr =  6.64E-07,  avg # of iterations =  2.9

     negative rho (up, down):  0.000E+00 2.580E-03

     total cpu time spent up to now is     1006.5 secs

     total energy              =   -5268.18895935 Ry
     Harris-Foulkes estimate   =   -5268.18879474 Ry
     estimated scf accuracy    <       0.00079843 Ry

     total magnetization       =    32.70 Bohr mag/cell
     absolute magnetization    =    34.34 Bohr mag/cell

     iteration # 13     ecut=    71.00 Ry     beta= 0.10
     Davidson diagonalization with overlap
     ethr =  3.12E-07,  avg # of iterations =  2.1

     negative rho (up, down):  0.000E+00 2.553E-03

     total cpu time spent up to now is     1074.9 secs

     total energy              =   -5268.18890527 Ry
     Harris-Foulkes estimate   =   -5268.18903527 Ry
     estimated scf accuracy    <       0.00112667 Ry

     total magnetization       =    32.74 Bohr mag/cell
     absolute magnetization    =    34.42 Bohr mag/cell

     iteration # 14     ecut=    71.00 Ry     beta= 0.10
     Davidson diagonalization with overlap
     ethr =  3.12E-07,  avg # of iterations =  2.6

     negative rho (up, down):  0.000E+00 2.474E-03

     total cpu time spent up to now is     1157.8 secs

     total energy              =   -5268.18917576 Ry
     Harris-Foulkes estimate   =   -5268.18902302 Ry
     estimated scf accuracy    <       0.00073162 Ry

     total magnetization       =    32.77 Bohr mag/cell
     absolute magnetization    =    34.49 Bohr mag/cell

     iteration # 15     ecut=    71.00 Ry     beta= 0.10
     Davidson diagonalization with overlap
     ethr =  2.86E-07,  avg # of iterations =  1.5

     negative rho (up, down):  0.000E+00 2.483E-03

     total cpu time spent up to now is     1221.6 secs

     total energy              =   -5268.18926407 Ry
     Harris-Foulkes estimate   =   -5268.18922554 Ry
     estimated scf accuracy    <       0.00019828 Ry

     total magnetization       =    32.78 Bohr mag/cell
     absolute magnetization    =    34.50 Bohr mag/cell

     iteration # 16     ecut=    71.00 Ry     beta= 0.10
     Davidson diagonalization with overlap
     ethr =  7.75E-08,  avg # of iterations =  2.5

     negative rho (up, down):  0.000E+00 2.458E-03

     total cpu time spent up to now is     1302.5 secs

     total energy              =   -5268.18933013 Ry
     Harris-Foulkes estimate   =   -5268.18928809 Ry
     estimated scf accuracy    <       0.00010275 Ry

     total magnetization       =    32.82 Bohr mag/cell
     absolute magnetization    =    34.56 Bohr mag/cell

     iteration # 17     ecut=    71.00 Ry     beta= 0.10
     Davidson diagonalization with overlap
     ethr =  4.01E-08,  avg # of iterations =  2.1

     negative rho (up, down):  0.000E+00 2.402E-03

     total cpu time spent up to now is     1375.7 secs

     total energy              =   -5268.18936495 Ry
     Harris-Foulkes estimate   =   -5268.18933873 Ry
     estimated scf accuracy    <       0.00006911 Ry

     total magnetization       =    32.83 Bohr mag/cell
     absolute magnetization    =    34.58 Bohr mag/cell

     iteration # 18     ecut=    71.00 Ry     beta= 0.10
     Davidson diagonalization with overlap
     ethr =  2.70E-08,  avg # of iterations =  2.7

     negative rho (up, down):  0.000E+00 2.414E-03

     total cpu time spent up to now is     1463.3 secs

     total energy              =   -5268.18939302 Ry
     Harris-Foulkes estimate   =   -5268.18938533 Ry
     estimated scf accuracy    <       0.00003820 Ry

     total magnetization       =    32.85 Bohr mag/cell
     absolute magnetization    =    34.60 Bohr mag/cell

     iteration # 19     ecut=    71.00 Ry     beta= 0.10
     Davidson diagonalization with overlap
     ethr =  1.49E-08,  avg # of iterations =  2.0

     negative rho (up, down):  0.000E+00 2.417E-03

     total cpu time spent up to now is     1532.5 secs

     total energy              =   -5268.18939640 Ry
     Harris-Foulkes estimate   =   -5268.18939606 Ry
     estimated scf accuracy    <       0.00002298 Ry

     total magnetization       =    32.87 Bohr mag/cell
     absolute magnetization    =    34.62 Bohr mag/cell

     iteration # 20     ecut=    71.00 Ry     beta= 0.10
     Davidson diagonalization with overlap
     ethr =  8.98E-09,  avg # of iterations =  1.0

     negative rho (up, down):  0.000E+00 2.463E-03

     total cpu time spent up to now is     1589.0 secs

     total energy              =   -5268.18939581 Ry
     Harris-Foulkes estimate   =   -5268.18939703 Ry
     estimated scf accuracy    <       0.00001831 Ry

     total magnetization       =    32.87 Bohr mag/cell
     absolute magnetization    =    34.63 Bohr mag/cell

     iteration # 21     ecut=    71.00 Ry     beta= 0.10
     Davidson diagonalization with overlap
     ethr =  7.15E-09,  avg # of iterations =  3.0

     negative rho (up, down):  0.000E+00 2.467E-03

     total cpu time spent up to now is     1679.8 secs

     total energy              =   -5268.18940115 Ry
     Harris-Foulkes estimate   =   -5268.18940072 Ry
     estimated scf accuracy    <       0.00000581 Ry

     total magnetization       =    32.89 Bohr mag/cell
     absolute magnetization    =    34.66 Bohr mag/cell

     iteration # 22     ecut=    71.00 Ry     beta= 0.10
     Davidson diagonalization with overlap
     ethr =  2.27E-09,  avg # of iterations =  1.0

     negative rho (up, down):  0.000E+00 2.464E-03

     total cpu time spent up to now is     1735.2 secs

     total energy              =   -5268.18940382 Ry
     Harris-Foulkes estimate   =   -5268.18940146 Ry
     estimated scf accuracy    <       0.00000328 Ry

     total magnetization       =    32.89 Bohr mag/cell
     absolute magnetization    =    34.66 Bohr mag/cell

     iteration # 23     ecut=    71.00 Ry     beta= 0.10
     Davidson diagonalization with overlap
     ethr =  1.28E-09,  avg # of iterations =  2.3

     negative rho (up, down):  0.000E+00 2.452E-03

     total cpu time spent up to now is     1806.9 secs

     total energy              =   -5268.18940563 Ry
     Harris-Foulkes estimate   =   -5268.18940411 Ry
     estimated scf accuracy    <       0.00000203 Ry

     total magnetization       =    32.90 Bohr mag/cell
     absolute magnetization    =    34.67 Bohr mag/cell

     iteration # 24     ecut=    71.00 Ry     beta= 0.10
     Davidson diagonalization with overlap
     ethr =  7.93E-10,  avg # of iterations =  3.0

     negative rho (up, down):  0.000E+00 2.464E-03
 
     Magnetic moment per site:
     atom:    1    charge:   14.3662    magn:    2.0996    constr:    0.0000
     atom:    2    charge:   14.3663    magn:    2.1016    constr:    0.0000
     atom:    3    charge:   14.3664    magn:    2.1002    constr:    0.0000
     atom:    4    charge:   14.3663    magn:    2.1016    constr:    0.0000
     atom:    5    charge:   14.3663    magn:    2.1002    constr:    0.0000
     atom:    6    charge:   14.3663    magn:    2.1016    constr:    0.0000
     atom:    7    charge:   14.3664    magn:    2.1003    constr:    0.0000
     atom:    8    charge:   14.3663    magn:    2.1016    constr:    0.0000
     atom:    9    charge:   14.3665    magn:    2.0984    constr:    0.0000
     atom:   10    charge:   14.3663    magn:    2.1016    constr:    0.0000
     atom:   11    charge:   14.3668    magn:    2.0986    constr:    0.0000
     atom:   12    charge:   14.3663    magn:    2.1016    constr:    0.0000
     atom:   13    charge:   14.3668    magn:    2.0988    constr:    0.0000
     atom:   14    charge:   14.3663    magn:    2.1016    constr:    0.0000
     atom:   15    charge:   14.3668    magn:    2.0993    constr:    0.0000
     atom:   16    charge:   14.3663    magn:    2.1016    constr:    0.0000

     total cpu time spent up to now is     1899.9 secs

     End of self-consistent calculation

     Number of k-points >= 100: set verbosity='high' to print the bands.

     the Fermi energy is    18.9744 ev

!    total energy              =   -5268.18940786 Ry
     Harris-Foulkes estimate   =   -5268.18940622 Ry
     estimated scf accuracy    <       0.00000097 Ry

     total all-electron energy =    -40728.933937 Ry

     The total energy is the sum of the following terms:

     one-electron contribution =   -1707.42930457 Ry
     hartree contribution      =    1022.27529773 Ry
     xc contribution           =    -444.25944294 Ry
     ewald contribution        =   -2814.22902104 Ry
     one-center paw contrib.   =   -1324.67103917 Ry
     smearing contrib. (-TS)   =       0.12410214 Ry

     total magnetization       =    32.90 Bohr mag/cell
     absolute magnetization    =    34.66 Bohr mag/cell

     convergence has been achieved in  24 iterations

     negative rho (up, down):  0.000E+00 2.464E-03

     Forces acting on atoms (cartesian axes, Ry/au):

     atom    1 type  1   force =     0.00000000    0.00000000    0.00000000
     atom    2 type  2   force =    -0.00009417    0.00020137    0.00004430
     atom    3 type  1   force =     0.00000000    0.00000000    0.00000000
     atom    4 type  2   force =    -0.00009417    0.00020137   -0.00004430
     atom    5 type  1   force =     0.00000000    0.00000000    0.00000000
     atom    6 type  2   force =    -0.00009417   -0.00020137    0.00004430
     atom    7 type  1   force =     0.00000000    0.00000000    0.00000000
     atom    8 type  2   force =    -0.00009417   -0.00020137   -0.00004430
     atom    9 type  1   force =     0.00000000    0.00000000    0.00000000
     atom   10 type  2   force =     0.00009417    0.00020137    0.00004430
     atom   11 type  1   force =     0.00000000    0.00000000    0.00000000
     atom   12 type  2   force =     0.00009417    0.00020137   -0.00004430
     atom   13 type  1   force =     0.00000000    0.00000000    0.00000000
     atom   14 type  2   force =     0.00009417   -0.00020137    0.00004430
     atom   15 type  1   force =     0.00000000    0.00000000    0.00000000
     atom   16 type  2   force =     0.00009417   -0.00020137   -0.00004430

     Total force =     0.000641     Total SCF correction =     0.006904
     SCF correction compared to forces is large: reduce conv_thr to get better values


     Computing stress (Cartesian axis) and pressure


     negative rho (up, down):  0.000E+00 2.464E-03
          total   stress  (Ry/bohr**3)                   (kbar)     P=   -3.27
  -0.00004430   0.00000000   0.00000000         -6.52      0.00      0.00
   0.00000000  -0.00002254   0.00000000          0.00     -3.32      0.00
   0.00000000   0.00000000   0.00000010          0.00      0.00      0.01


     Writing output data file MLRUcRIhcYtHsgLm.save/
 
     init_run     :     21.12s CPU     22.11s WALL (       1 calls)
     electrons    :   1817.90s CPU   1876.47s WALL (       1 calls)
     forces       :      7.95s CPU      8.68s WALL (       1 calls)
     stress       :     21.65s CPU     21.85s WALL (       1 calls)

     Called by init_run:
     wfcinit      :     20.71s CPU     21.58s WALL (       1 calls)
     potinit      :      0.20s CPU      0.22s WALL (       1 calls)
     hinit0       :      0.11s CPU      0.12s WALL (       1 calls)

     Called by electrons:
     c_bands      :   1639.01s CPU   1687.71s WALL (      25 calls)
     sum_band     :    173.77s CPU    183.06s WALL (      25 calls)
     v_of_rho     :      0.43s CPU      0.44s WALL (      25 calls)
     newd         :      0.79s CPU      1.02s WALL (      25 calls)
     PAW_pot      :      3.83s CPU      4.06s WALL (      25 calls)
     mix_rho      :      0.14s CPU      0.15s WALL (      25 calls)

     Called by c_bands:
     init_us_2    :      9.29s CPU      9.48s WALL (   13250 calls)
     cegterg      :   1593.36s CPU   1641.37s WALL (    6250 calls)

     Called by sum_band:
     sum_band:bec :      2.46s CPU      2.50s WALL (    6250 calls)
     addusdens    :      1.22s CPU      1.41s WALL (      25 calls)

     Called by *egterg:
     h_psi        :    683.44s CPU    712.86s WALL (   20219 calls)
     s_psi        :     37.61s CPU     37.86s WALL (   20219 calls)
     g_psi        :      1.52s CPU      1.54s WALL (   13719 calls)
     cdiaghg      :    709.63s CPU    712.30s WALL (   19719 calls)

     Called by h_psi:
     h_psi:pot    :    679.50s CPU    708.88s WALL (   20219 calls)
     h_psi:calbec :     56.77s CPU     65.94s WALL (   20219 calls)
     vloc_psi     :    585.09s CPU    605.05s WALL (   20219 calls)
     add_vuspsi   :     37.46s CPU     37.75s WALL (   20219 calls)

     General routines
     calbec       :     86.20s CPU    100.57s WALL (   27719 calls)
     fft          :      0.50s CPU      0.53s WALL (     667 calls)
     ffts         :      0.06s CPU      0.25s WALL (     100 calls)
     fftw         :    682.72s CPU    705.75s WALL ( 5199320 calls)
     interpolate  :      0.08s CPU      0.16s WALL (      50 calls)
 
     Parallel routines
     fft_scatt_xy :     45.54s CPU     47.10s WALL ( 5200087 calls)
     fft_scatt_yz :    456.27s CPU    472.02s WALL ( 5200087 calls)
 
     PWSCF        : 31m23.90s CPU    33m13.09s WALL

 
   This run was terminated on:   7: 1: 4  10Sep2020            

=------------------------------------------------------------------------------=
   JOB DONE.
=------------------------------------------------------------------------------=
