--------------------------------------------------------------------------
WARNING: No preset parameters were found for the device that Open MPI
detected:

  Local host:            bear-pg0206u39a
  Device name:           mlx5_0
  Device vendor ID:      0x02c9
  Device vendor part ID: 4123

Default device parameters will be used, which may result in lower
performance.  You can edit any of the files specified by the
btl_openib_device_param_files MCA parameter to set values for your
device.

NOTE: You can turn off this warning by setting the MCA parameter
      btl_openib_warn_no_device_params_found to 0.
--------------------------------------------------------------------------
--------------------------------------------------------------------------
WARNING: There was an error initializing an OpenFabrics device.

  Local host:   bear-pg0206u39a
  Local device: mlx5_0
--------------------------------------------------------------------------

     Program PWSCF v.6.3 starts on 10Sep2020 at  9:47: 3 

     This program is part of the open-source Quantum ESPRESSO suite
     for quantum simulation of materials; please cite
         "P. Giannozzi et al., J. Phys.:Condens. Matter 21 395502 (2009);
         "P. Giannozzi et al., J. Phys.:Condens. Matter 29 465901 (2017);
          URL http://www.quantum-espresso.org", 
     in publications or presentations arising from this work. More details at
     http://www.quantum-espresso.org/quote

     Parallel version (MPI & OpenMP), running on      40 processor cores
     Number of MPI processes:                40
     Threads/MPI process:                     1

     MPI processes distributed on     1 nodes
     R & G space division:  proc/nbgrp/npool/nimage =      40
     Reading input from wd/ec/ec_9_004.in
Warning: card &IONS ignored
Warning: card ION_DYNAMICS = 'BFGS', ignored
Warning: card / ignored
Warning: card &CELL ignored
Warning: card CELL_DYNAMICS = 'BFGS', ignored
Warning: card CELL_FACTOR = 2.0, ignored
Warning: card PRESS = 0.0, ignored
Warning: card / ignored

     Current dimensions of program PWSCF are:
     Max number of different atomic species (ntypx) = 10
     Max number of k-points (npk) =  40000
     Max angular momentum in pseudopotentials (lmaxx) =  3
               file Fe.pbe-spn-kjpaw_psl.1.0.0.UPF: wavefunction(s)  3P 3D renormalized
               file Fe.pbe-spn-kjpaw_psl.1.0.0.UPF: wavefunction(s)  3P 3D renormalized

     Subspace diagonalization in iterative solution of the eigenvalue problem:
     a serial algorithm will be used

     Found symmetry operation: I + (  0.0000  0.0000 -0.5000)
     This is a supercell, fractional translations are disabled
 
     Parallelization info
     --------------------
     sticks:   dense  smooth     PW     G-vecs:    dense   smooth      PW
     Min          96      63     17                 4472     2401     355
     Max          97      64     18                 4476     2406     360
     Sum        3847    2553    717               178971    96149   14315
 


     bravais-lattice index     =            0
     lattice parameter (alat)  =      10.5935  a.u.
     unit-cell volume          =    1188.8329 (a.u.)^3
     number of atoms/cell      =           16
     number of atomic types    =            2
     number of electrons       =       256.00
     number of Kohn-Sham states=          154
     kinetic-energy cutoff     =      71.0000  Ry
     charge density cutoff     =     430.0000  Ry
     convergence threshold     =      1.0E-06
     mixing beta               =       0.1000
     number of iterations used =           10  plain     mixing
     Exchange-correlation      = SLA PW PBX PBC ( 1  4  3  4 0 0)

     celldm(1)=  10.593520  celldm(2)=   0.000000  celldm(3)=   0.000000
     celldm(4)=   0.000000  celldm(5)=   0.000000  celldm(6)=   0.000000

     crystal axes: (cart. coord. in units of alat)
               a(1) = (   1.000002   0.000000   0.000000 )  
               a(2) = (   0.000000   1.002502   0.000000 )  
               a(3) = (   0.000000   0.000000   0.997502 )  

     reciprocal axes: (cart. coord. in units 2 pi/alat)
               b(1) = (  0.999998  0.000000  0.000000 )  
               b(2) = (  0.000000  0.997504  0.000000 )  
               b(3) = (  0.000000  0.000000  1.002504 )  


     PseudoPot. # 1 for Fe read from file:
     /rds/homes/b/bxp912/pp/Fe.pbe-spn-kjpaw_psl.1.0.0.UPF
     MD5 check sum: 42f43b795421b414b0dc916aa790dbcb
     Pseudo is Projector augmented-wave + core cor, Zval = 16.0
     Generated using "atomic" code by A. Dal Corso v.6.3
     Shape of augmentation charge: PSQ
     Using radial grid of 1191 points,  6 beta functions with: 
                l(1) =   0
                l(2) =   0
                l(3) =   1
                l(4) =   1
                l(5) =   2
                l(6) =   2
     Q(r) pseudized with 0 coefficients 


     PseudoPot. # 2 for Fe read from file:
     /rds/homes/b/bxp912/pp/Fe.pbe-spn-kjpaw_psl.1.0.0.UPF
     MD5 check sum: 42f43b795421b414b0dc916aa790dbcb
     Pseudo is Projector augmented-wave + core cor, Zval = 16.0
     Generated using "atomic" code by A. Dal Corso v.6.3
     Shape of augmentation charge: PSQ
     Using radial grid of 1191 points,  6 beta functions with: 
                l(1) =   0
                l(2) =   0
                l(3) =   1
                l(4) =   1
                l(5) =   2
                l(6) =   2
     Q(r) pseudized with 0 coefficients 


     atomic species   valence    mass     pseudopotential
        Fe1           16.00    55.84500     Fe( 1.00)
        Fe2           16.00    55.84500     Fe( 1.00)

     Starting magnetic structure 
     atomic species   magnetization
        Fe1          0.100
        Fe2          0.100

      8 Sym. Ops., with inversion, found



   Cartesian axes

     site n.     atom                  positions (alat units)
         1           Fe1 tau(   1) = (   0.0000000   0.0000000   0.0000000  )
         2           Fe2 tau(   2) = (   0.2500010   0.2506260   0.2493759  )
         3           Fe1 tau(   3) = (   0.0000000   0.0000000   0.4987510  )
         4           Fe2 tau(   4) = (   0.2500010   0.2506260   0.7481261  )
         5           Fe1 tau(   5) = (   0.0000000   0.5012510   0.0000000  )
         6           Fe2 tau(   6) = (   0.2500010   0.7518761   0.2493759  )
         7           Fe1 tau(   7) = (   0.0000000   0.5012510   0.4987510  )
         8           Fe2 tau(   8) = (   0.2500010   0.7518761   0.7481261  )
         9           Fe1 tau(   9) = (   0.5000010   0.0000000   0.0000000  )
        10           Fe2 tau(  10) = (   0.7500011   0.2506260   0.2493759  )
        11           Fe1 tau(  11) = (   0.5000010   0.0000000   0.4987510  )
        12           Fe2 tau(  12) = (   0.7500011   0.2506260   0.7481261  )
        13           Fe1 tau(  13) = (   0.5000010   0.5012510   0.0000000  )
        14           Fe2 tau(  14) = (   0.7500011   0.7518761   0.2493759  )
        15           Fe1 tau(  15) = (   0.5000010   0.5012510   0.4987510  )
        16           Fe2 tau(  16) = (   0.7500011   0.7518761   0.7481261  )

     number of k points=   125  Marzari-Vanderbilt smearing, width (Ry)=  0.0400

     Number of k-points >= 100: set verbosity='high' to print them.

     Dense  grid:   178971 G-vectors     FFT dimensions: (  72,  72,  72)

     Smooth grid:    96149 G-vectors     FFT dimensions: (  60,  60,  60)

     Estimated max dynamical RAM per process >     215.38 MB

     Estimated total dynamical RAM >       8.41 GB
     Generating pointlists ...
     new r_m :   0.1786 (alat units)  1.8922 (a.u.) for type    1
     new r_m :   0.1786 (alat units)  1.8922 (a.u.) for type    2

     Check: negative/imaginary core charge=   -0.000006    0.000000

     Initial potential from superposition of free atoms

     starting charge  255.99300, renormalised to  256.00000
     Starting wfcs are  160 randomized atomic wfcs
     Checking if some PAW data can be deallocated... 

     total cpu time spent up to now is       23.4 secs

     Self-consistent Calculation

     iteration #  1     ecut=    71.00 Ry     beta= 0.10
     Davidson diagonalization with overlap
     ethr =  1.00E-02,  avg # of iterations =  3.3

     Threshold (ethr) on eigenvalues was too large:
     Diagonalizing with lowered threshold

     Davidson diagonalization with overlap
     ethr =  2.83E-04,  avg # of iterations =  3.4

     total cpu time spent up to now is      209.8 secs

     total energy              =   -5268.17616005 Ry
     Harris-Foulkes estimate   =   -5268.32784955 Ry
     estimated scf accuracy    <       0.82037404 Ry

     total magnetization       =    28.04 Bohr mag/cell
     absolute magnetization    =    28.41 Bohr mag/cell

     iteration #  2     ecut=    71.00 Ry     beta= 0.10
     Davidson diagonalization with overlap
     ethr =  3.20E-04,  avg # of iterations =  1.0

     total cpu time spent up to now is      265.1 secs

     total energy              =   -5268.07031525 Ry
     Harris-Foulkes estimate   =   -5268.19495557 Ry
     estimated scf accuracy    <       0.49807991 Ry

     total magnetization       =    28.67 Bohr mag/cell
     absolute magnetization    =    28.95 Bohr mag/cell

     iteration #  3     ecut=    71.00 Ry     beta= 0.10
     Davidson diagonalization with overlap
     ethr =  1.95E-04,  avg # of iterations =  2.5

     total cpu time spent up to now is      340.8 secs

     total energy              =   -5268.03707801 Ry
     Harris-Foulkes estimate   =   -5268.11704904 Ry
     estimated scf accuracy    <       0.58031133 Ry

     total magnetization       =    29.37 Bohr mag/cell
     absolute magnetization    =    29.70 Bohr mag/cell

     iteration #  4     ecut=    71.00 Ry     beta= 0.10
     Davidson diagonalization with overlap
     ethr =  1.95E-04,  avg # of iterations =  2.1

     total cpu time spent up to now is      409.6 secs

     total energy              =   -5268.06915908 Ry
     Harris-Foulkes estimate   =   -5268.07317470 Ry
     estimated scf accuracy    <       0.18205872 Ry

     total magnetization       =    30.20 Bohr mag/cell
     absolute magnetization    =    30.58 Bohr mag/cell

     iteration #  5     ecut=    71.00 Ry     beta= 0.10
     Davidson diagonalization with overlap
     ethr =  7.11E-05,  avg # of iterations =  1.3

     total cpu time spent up to now is      468.6 secs

     total energy              =   -5268.08804718 Ry
     Harris-Foulkes estimate   =   -5268.07350097 Ry
     estimated scf accuracy    <       0.11156078 Ry

     total magnetization       =    30.30 Bohr mag/cell
     absolute magnetization    =    30.69 Bohr mag/cell

     iteration #  6     ecut=    71.00 Ry     beta= 0.10
     Davidson diagonalization with overlap
     ethr =  4.36E-05,  avg # of iterations =  3.2

     total cpu time spent up to now is      571.6 secs

     total energy              =   -5268.14438464 Ry
     Harris-Foulkes estimate   =   -5268.12648893 Ry
     estimated scf accuracy    <       0.13264821 Ry

     total magnetization       =    30.91 Bohr mag/cell
     absolute magnetization    =    31.62 Bohr mag/cell

     iteration #  7     ecut=    71.00 Ry     beta= 0.10
     Davidson diagonalization with overlap
     ethr =  4.36E-05,  avg # of iterations =  2.0

     total cpu time spent up to now is      642.6 secs

     total energy              =   -5268.15350390 Ry
     Harris-Foulkes estimate   =   -5268.15245513 Ry
     estimated scf accuracy    <       0.09911527 Ry

     total magnetization       =    31.45 Bohr mag/cell
     absolute magnetization    =    32.36 Bohr mag/cell

     iteration #  8     ecut=    71.00 Ry     beta= 0.10
     Davidson diagonalization with overlap
     ethr =  3.87E-05,  avg # of iterations =  1.0

     negative rho (up, down):  0.000E+00 1.961E-03

     total cpu time spent up to now is      698.0 secs

     total energy              =   -5268.16979681 Ry
     Harris-Foulkes estimate   =   -5268.15490080 Ry
     estimated scf accuracy    <       0.07664496 Ry

     total magnetization       =    31.60 Bohr mag/cell
     absolute magnetization    =    32.58 Bohr mag/cell

     iteration #  9     ecut=    71.00 Ry     beta= 0.10
     Davidson diagonalization with overlap
     ethr =  2.99E-05,  avg # of iterations =  2.7

     negative rho (up, down):  0.000E+00 2.281E-03

     total cpu time spent up to now is      791.2 secs

     total energy              =   -5268.18928492 Ry
     Harris-Foulkes estimate   =   -5268.18933157 Ry
     estimated scf accuracy    <       0.02516652 Ry

     total magnetization       =    32.40 Bohr mag/cell
     absolute magnetization    =    33.84 Bohr mag/cell

     iteration # 10     ecut=    71.00 Ry     beta= 0.10
     Davidson diagonalization with overlap
     ethr =  9.83E-06,  avg # of iterations =  1.4

     negative rho (up, down):  0.000E+00 2.510E-03

     total cpu time spent up to now is      853.3 secs

     total energy              =   -5268.18849113 Ry
     Harris-Foulkes estimate   =   -5268.18989387 Ry
     estimated scf accuracy    <       0.00981688 Ry

     total magnetization       =    32.54 Bohr mag/cell
     absolute magnetization    =    34.05 Bohr mag/cell

     iteration # 11     ecut=    71.00 Ry     beta= 0.10
     Davidson diagonalization with overlap
     ethr =  3.83E-06,  avg # of iterations =  2.5

     negative rho (up, down):  0.000E+00 2.565E-03

     total cpu time spent up to now is      931.7 secs

     total energy              =   -5268.18873748 Ry
     Harris-Foulkes estimate   =   -5268.18897957 Ry
     estimated scf accuracy    <       0.00179691 Ry

     total magnetization       =    32.65 Bohr mag/cell
     absolute magnetization    =    34.27 Bohr mag/cell

     iteration # 12     ecut=    71.00 Ry     beta= 0.10
     Davidson diagonalization with overlap
     ethr =  7.02E-07,  avg # of iterations =  2.0

     negative rho (up, down):  0.000E+00 2.568E-03

     total cpu time spent up to now is      999.6 secs

     total energy              =   -5268.18890660 Ry
     Harris-Foulkes estimate   =   -5268.18882102 Ry
     estimated scf accuracy    <       0.00075059 Ry

     total magnetization       =    32.70 Bohr mag/cell
     absolute magnetization    =    34.34 Bohr mag/cell

     iteration # 13     ecut=    71.00 Ry     beta= 0.10
     Davidson diagonalization with overlap
     ethr =  2.93E-07,  avg # of iterations =  2.6

     negative rho (up, down):  0.000E+00 2.543E-03

     total cpu time spent up to now is     1080.2 secs

     total energy              =   -5268.18893665 Ry
     Harris-Foulkes estimate   =   -5268.18900936 Ry
     estimated scf accuracy    <       0.00124390 Ry

     total magnetization       =    32.75 Bohr mag/cell
     absolute magnetization    =    34.44 Bohr mag/cell

     iteration # 14     ecut=    71.00 Ry     beta= 0.10
     Davidson diagonalization with overlap
     ethr =  2.93E-07,  avg # of iterations =  2.6

     negative rho (up, down):  0.000E+00 2.488E-03

     total cpu time spent up to now is     1164.8 secs

     total energy              =   -5268.18919832 Ry
     Harris-Foulkes estimate   =   -5268.18906352 Ry
     estimated scf accuracy    <       0.00064969 Ry

     total magnetization       =    32.78 Bohr mag/cell
     absolute magnetization    =    34.51 Bohr mag/cell

     iteration # 15     ecut=    71.00 Ry     beta= 0.10
     Davidson diagonalization with overlap
     ethr =  2.54E-07,  avg # of iterations =  1.5

     negative rho (up, down):  0.000E+00 2.475E-03

     total cpu time spent up to now is     1227.8 secs

     total energy              =   -5268.18929013 Ry
     Harris-Foulkes estimate   =   -5268.18923538 Ry
     estimated scf accuracy    <       0.00013702 Ry

     total magnetization       =    32.80 Bohr mag/cell
     absolute magnetization    =    34.53 Bohr mag/cell

     iteration # 16     ecut=    71.00 Ry     beta= 0.10
     Davidson diagonalization with overlap
     ethr =  5.35E-08,  avg # of iterations =  2.4

     negative rho (up, down):  0.000E+00 2.433E-03

     total cpu time spent up to now is     1302.3 secs

     total energy              =   -5268.18934791 Ry
     Harris-Foulkes estimate   =   -5268.18930106 Ry
     estimated scf accuracy    <       0.00009560 Ry

     total magnetization       =    32.82 Bohr mag/cell
     absolute magnetization    =    34.56 Bohr mag/cell

     iteration # 17     ecut=    71.00 Ry     beta= 0.10
     Davidson diagonalization with overlap
     ethr =  3.73E-08,  avg # of iterations =  2.7

     negative rho (up, down):  0.000E+00 2.391E-03

     total cpu time spent up to now is     1386.9 secs

     total energy              =   -5268.18937592 Ry
     Harris-Foulkes estimate   =   -5268.18936612 Ry
     estimated scf accuracy    <       0.00006563 Ry

     total magnetization       =    32.84 Bohr mag/cell
     absolute magnetization    =    34.59 Bohr mag/cell

     iteration # 18     ecut=    71.00 Ry     beta= 0.10
     Davidson diagonalization with overlap
     ethr =  2.56E-08,  avg # of iterations =  2.1

     negative rho (up, down):  0.000E+00 2.442E-03

     total cpu time spent up to now is     1459.5 secs

     total energy              =   -5268.18938621 Ry
     Harris-Foulkes estimate   =   -5268.18938527 Ry
     estimated scf accuracy    <       0.00005411 Ry

     total magnetization       =    32.85 Bohr mag/cell
     absolute magnetization    =    34.60 Bohr mag/cell

     iteration # 19     ecut=    71.00 Ry     beta= 0.10
     Davidson diagonalization with overlap
     ethr =  2.11E-08,  avg # of iterations =  2.5

     negative rho (up, down):  0.000E+00 2.459E-03

     total cpu time spent up to now is     1540.0 secs

     total energy              =   -5268.18939407 Ry
     Harris-Foulkes estimate   =   -5268.18939464 Ry
     estimated scf accuracy    <       0.00001713 Ry

     total magnetization       =    32.87 Bohr mag/cell
     absolute magnetization    =    34.64 Bohr mag/cell

     iteration # 20     ecut=    71.00 Ry     beta= 0.10
     Davidson diagonalization with overlap
     ethr =  6.69E-09,  avg # of iterations =  2.0

     negative rho (up, down):  0.000E+00 2.460E-03

     total cpu time spent up to now is     1610.5 secs

     total energy              =   -5268.18939898 Ry
     Harris-Foulkes estimate   =   -5268.18939522 Ry
     estimated scf accuracy    <       0.00001150 Ry

     total magnetization       =    32.88 Bohr mag/cell
     absolute magnetization    =    34.65 Bohr mag/cell

     iteration # 21     ecut=    71.00 Ry     beta= 0.10
     Davidson diagonalization with overlap
     ethr =  4.49E-09,  avg # of iterations =  1.0

     negative rho (up, down):  0.000E+00 2.459E-03

     total cpu time spent up to now is     1665.7 secs

     total energy              =   -5268.18940180 Ry
     Harris-Foulkes estimate   =   -5268.18939959 Ry
     estimated scf accuracy    <       0.00000779 Ry

     total magnetization       =    32.89 Bohr mag/cell
     absolute magnetization    =    34.65 Bohr mag/cell

     iteration # 22     ecut=    71.00 Ry     beta= 0.10
     Davidson diagonalization with overlap
     ethr =  3.04E-09,  avg # of iterations =  2.5

     negative rho (up, down):  0.000E+00 2.455E-03

     total cpu time spent up to now is     1742.4 secs

     total energy              =   -5268.18940470 Ry
     Harris-Foulkes estimate   =   -5268.18940315 Ry
     estimated scf accuracy    <       0.00000567 Ry

     total magnetization       =    32.90 Bohr mag/cell
     absolute magnetization    =    34.66 Bohr mag/cell

     iteration # 23     ecut=    71.00 Ry     beta= 0.10
     Davidson diagonalization with overlap
     ethr =  2.21E-09,  avg # of iterations =  2.1

     negative rho (up, down):  0.000E+00 2.454E-03

     total cpu time spent up to now is     1813.2 secs

     total energy              =   -5268.18940593 Ry
     Harris-Foulkes estimate   =   -5268.18940533 Ry
     estimated scf accuracy    <       0.00000175 Ry

     total magnetization       =    32.90 Bohr mag/cell
     absolute magnetization    =    34.67 Bohr mag/cell

     iteration # 24     ecut=    71.00 Ry     beta= 0.10
     Davidson diagonalization with overlap
     ethr =  6.84E-10,  avg # of iterations =  2.2

     negative rho (up, down):  0.000E+00 2.465E-03
 
     Magnetic moment per site:
     atom:    1    charge:   14.3663    magn:    2.0995    constr:    0.0000
     atom:    2    charge:   14.3664    magn:    2.1018    constr:    0.0000
     atom:    3    charge:   14.3665    magn:    2.1001    constr:    0.0000
     atom:    4    charge:   14.3664    magn:    2.1018    constr:    0.0000
     atom:    5    charge:   14.3664    magn:    2.1002    constr:    0.0000
     atom:    6    charge:   14.3664    magn:    2.1018    constr:    0.0000
     atom:    7    charge:   14.3667    magn:    2.1003    constr:    0.0000
     atom:    8    charge:   14.3664    magn:    2.1018    constr:    0.0000
     atom:    9    charge:   14.3666    magn:    2.0985    constr:    0.0000
     atom:   10    charge:   14.3664    magn:    2.1018    constr:    0.0000
     atom:   11    charge:   14.3665    magn:    2.0988    constr:    0.0000
     atom:   12    charge:   14.3664    magn:    2.1018    constr:    0.0000
     atom:   13    charge:   14.3664    magn:    2.0990    constr:    0.0000
     atom:   14    charge:   14.3664    magn:    2.1018    constr:    0.0000
     atom:   15    charge:   14.3665    magn:    2.0995    constr:    0.0000
     atom:   16    charge:   14.3664    magn:    2.1018    constr:    0.0000

     total cpu time spent up to now is     1883.5 secs

     End of self-consistent calculation

     Number of k-points >= 100: set verbosity='high' to print the bands.

     the Fermi energy is    18.9743 ev

!    total energy              =   -5268.18940796 Ry
     Harris-Foulkes estimate   =   -5268.18940603 Ry
     estimated scf accuracy    <       0.00000086 Ry

     total all-electron energy =    -40728.933937 Ry

     The total energy is the sum of the following terms:

     one-electron contribution =   -1707.43290088 Ry
     hartree contribution      =    1022.27990539 Ry
     xc contribution           =    -444.26040479 Ry
     ewald contribution        =   -2814.22902104 Ry
     one-center paw contrib.   =   -1324.67109307 Ry
     smearing contrib. (-TS)   =       0.12410642 Ry

     total magnetization       =    32.90 Bohr mag/cell
     absolute magnetization    =    34.67 Bohr mag/cell

     convergence has been achieved in  24 iterations

     negative rho (up, down):  0.000E+00 2.465E-03

     Forces acting on atoms (cartesian axes, Ry/au):

     atom    1 type  1   force =     0.00000000    0.00000000    0.00000000
     atom    2 type  2   force =    -0.00001365    0.00018466    0.00002415
     atom    3 type  1   force =     0.00000000    0.00000000    0.00000000
     atom    4 type  2   force =    -0.00001365    0.00018466   -0.00002415
     atom    5 type  1   force =     0.00000000    0.00000000    0.00000000
     atom    6 type  2   force =    -0.00001365   -0.00018466    0.00002415
     atom    7 type  1   force =     0.00000000    0.00000000    0.00000000
     atom    8 type  2   force =    -0.00001365   -0.00018466   -0.00002415
     atom    9 type  1   force =     0.00000000    0.00000000    0.00000000
     atom   10 type  2   force =     0.00001365    0.00018466    0.00002415
     atom   11 type  1   force =     0.00000000    0.00000000    0.00000000
     atom   12 type  2   force =     0.00001365    0.00018466   -0.00002415
     atom   13 type  1   force =     0.00000000    0.00000000    0.00000000
     atom   14 type  2   force =     0.00001365   -0.00018466    0.00002415
     atom   15 type  1   force =     0.00000000    0.00000000    0.00000000
     atom   16 type  2   force =     0.00001365   -0.00018466   -0.00002415

     Total force =     0.000528     Total SCF correction =     0.006326
     SCF correction compared to forces is large: reduce conv_thr to get better values


     Computing stress (Cartesian axis) and pressure


     negative rho (up, down):  0.000E+00 2.465E-03
          total   stress  (Ry/bohr**3)                   (kbar)     P=   -2.35
  -0.00001624   0.00000000   0.00000000         -2.39      0.00      0.00
   0.00000000  -0.00003814   0.00000000          0.00     -5.61      0.00
   0.00000000   0.00000000   0.00000647          0.00      0.00      0.95


     Writing output data file TRzKcEIAoQhyFfns.save/
 
     init_run     :     21.13s CPU     22.10s WALL (       1 calls)
     electrons    :   1803.58s CPU   1860.14s WALL (       1 calls)
     forces       :      7.75s CPU      8.42s WALL (       1 calls)
     stress       :     21.72s CPU     21.94s WALL (       1 calls)

     Called by init_run:
     wfcinit      :     20.71s CPU     21.58s WALL (       1 calls)
     potinit      :      0.20s CPU      0.22s WALL (       1 calls)
     hinit0       :      0.13s CPU      0.16s WALL (       1 calls)

     Called by electrons:
     c_bands      :   1624.94s CPU   1672.05s WALL (      25 calls)
     sum_band     :    173.46s CPU    182.39s WALL (      25 calls)
     v_of_rho     :      0.47s CPU      0.47s WALL (      25 calls)
     newd         :      0.83s CPU      1.02s WALL (      25 calls)
     PAW_pot      :      3.80s CPU      4.02s WALL (      25 calls)
     mix_rho      :      0.16s CPU      0.17s WALL (      25 calls)

     Called by c_bands:
     init_us_2    :      9.14s CPU      9.28s WALL (   13250 calls)
     cegterg      :   1579.58s CPU   1626.09s WALL (    6250 calls)

     Called by sum_band:
     sum_band:bec :      2.60s CPU      2.64s WALL (    6250 calls)
     addusdens    :      1.22s CPU      1.41s WALL (      25 calls)

     Called by *egterg:
     h_psi        :    680.01s CPU    708.79s WALL (   20200 calls)
     s_psi        :     37.41s CPU     37.63s WALL (   20200 calls)
     g_psi        :      1.52s CPU      1.54s WALL (   13700 calls)
     cdiaghg      :    701.27s CPU    703.48s WALL (   19700 calls)

     Called by h_psi:
     h_psi:pot    :    676.16s CPU    704.90s WALL (   20200 calls)
     h_psi:calbec :     56.53s CPU     65.60s WALL (   20200 calls)
     vloc_psi     :    582.03s CPU    601.48s WALL (   20200 calls)
     add_vuspsi   :     37.44s CPU     37.70s WALL (   20200 calls)

     General routines
     calbec       :     85.89s CPU     99.98s WALL (   27700 calls)
     fft          :      0.49s CPU      0.51s WALL (     667 calls)
     ffts         :      0.05s CPU      0.24s WALL (     100 calls)
     fftw         :    679.17s CPU    701.54s WALL ( 5171474 calls)
     interpolate  :      0.07s CPU      0.15s WALL (      50 calls)
 
     Parallel routines
     fft_scatt_xy :     45.39s CPU     46.83s WALL ( 5172241 calls)
     fft_scatt_yz :    452.60s CPU    467.97s WALL ( 5172241 calls)
 
     PWSCF        : 31m 9.42s CPU    32m56.58s WALL

 
   This run was terminated on:  10:20: 0  10Sep2020            

=------------------------------------------------------------------------------=
   JOB DONE.
=------------------------------------------------------------------------------=
