--------------------------------------------------------------------------
WARNING: No preset parameters were found for the device that Open MPI
detected:

  Local host:            bear-pg0206u39a
  Device name:           mlx5_0
  Device vendor ID:      0x02c9
  Device vendor part ID: 4123

Default device parameters will be used, which may result in lower
performance.  You can edit any of the files specified by the
btl_openib_device_param_files MCA parameter to set values for your
device.

NOTE: You can turn off this warning by setting the MCA parameter
      btl_openib_warn_no_device_params_found to 0.
--------------------------------------------------------------------------
--------------------------------------------------------------------------
WARNING: There was an error initializing an OpenFabrics device.

  Local host:   bear-pg0206u39a
  Local device: mlx5_0
--------------------------------------------------------------------------

     Program PWSCF v.6.3 starts on 10Sep2020 at 10:53: 9 

     This program is part of the open-source Quantum ESPRESSO suite
     for quantum simulation of materials; please cite
         "P. Giannozzi et al., J. Phys.:Condens. Matter 21 395502 (2009);
         "P. Giannozzi et al., J. Phys.:Condens. Matter 29 465901 (2017);
          URL http://www.quantum-espresso.org", 
     in publications or presentations arising from this work. More details at
     http://www.quantum-espresso.org/quote

     Parallel version (MPI & OpenMP), running on      40 processor cores
     Number of MPI processes:                40
     Threads/MPI process:                     1

     MPI processes distributed on     1 nodes
     R & G space division:  proc/nbgrp/npool/nimage =      40
     Reading input from wd/ec/ec_9_006.in
Warning: card &IONS ignored
Warning: card ION_DYNAMICS = 'BFGS', ignored
Warning: card / ignored
Warning: card &CELL ignored
Warning: card CELL_DYNAMICS = 'BFGS', ignored
Warning: card CELL_FACTOR = 2.0, ignored
Warning: card PRESS = 0.0, ignored
Warning: card / ignored

     Current dimensions of program PWSCF are:
     Max number of different atomic species (ntypx) = 10
     Max number of k-points (npk) =  40000
     Max angular momentum in pseudopotentials (lmaxx) =  3
               file Fe.pbe-spn-kjpaw_psl.1.0.0.UPF: wavefunction(s)  3P 3D renormalized
               file Fe.pbe-spn-kjpaw_psl.1.0.0.UPF: wavefunction(s)  3P 3D renormalized

     Subspace diagonalization in iterative solution of the eigenvalue problem:
     a serial algorithm will be used

     Found symmetry operation: I + (  0.0000  0.0000 -0.5000)
     This is a supercell, fractional translations are disabled
 
     Parallelization info
     --------------------
     sticks:   dense  smooth     PW     G-vecs:    dense   smooth      PW
     Min          96      63     18                 4474     2401     356
     Max          98      64     19                 4475     2406     360
     Sum        3859    2553    721               178975    96133   14307
 


     bravais-lattice index     =            0
     lattice parameter (alat)  =      10.5935  a.u.
     unit-cell volume          =    1188.8329 (a.u.)^3
     number of atoms/cell      =           16
     number of atomic types    =            2
     number of electrons       =       256.00
     number of Kohn-Sham states=          154
     kinetic-energy cutoff     =      71.0000  Ry
     charge density cutoff     =     430.0000  Ry
     convergence threshold     =      1.0E-06
     mixing beta               =       0.1000
     number of iterations used =           10  plain     mixing
     Exchange-correlation      = SLA PW PBX PBC ( 1  4  3  4 0 0)

     celldm(1)=  10.593520  celldm(2)=   0.000000  celldm(3)=   0.000000
     celldm(4)=   0.000000  celldm(5)=   0.000000  celldm(6)=   0.000000

     crystal axes: (cart. coord. in units of alat)
               a(1) = (   1.000006   0.000000   0.000000 )  
               a(2) = (   0.000000   1.004172   0.000000 )  
               a(3) = (   0.000000   0.000000   0.995839 )  

     reciprocal axes: (cart. coord. in units 2 pi/alat)
               b(1) = (  0.999994  0.000000  0.000000 )  
               b(2) = (  0.000000  0.995845  0.000000 )  
               b(3) = (  0.000000  0.000000  1.004178 )  


     PseudoPot. # 1 for Fe read from file:
     /rds/homes/b/bxp912/pp/Fe.pbe-spn-kjpaw_psl.1.0.0.UPF
     MD5 check sum: 42f43b795421b414b0dc916aa790dbcb
     Pseudo is Projector augmented-wave + core cor, Zval = 16.0
     Generated using "atomic" code by A. Dal Corso v.6.3
     Shape of augmentation charge: PSQ
     Using radial grid of 1191 points,  6 beta functions with: 
                l(1) =   0
                l(2) =   0
                l(3) =   1
                l(4) =   1
                l(5) =   2
                l(6) =   2
     Q(r) pseudized with 0 coefficients 


     PseudoPot. # 2 for Fe read from file:
     /rds/homes/b/bxp912/pp/Fe.pbe-spn-kjpaw_psl.1.0.0.UPF
     MD5 check sum: 42f43b795421b414b0dc916aa790dbcb
     Pseudo is Projector augmented-wave + core cor, Zval = 16.0
     Generated using "atomic" code by A. Dal Corso v.6.3
     Shape of augmentation charge: PSQ
     Using radial grid of 1191 points,  6 beta functions with: 
                l(1) =   0
                l(2) =   0
                l(3) =   1
                l(4) =   1
                l(5) =   2
                l(6) =   2
     Q(r) pseudized with 0 coefficients 


     atomic species   valence    mass     pseudopotential
        Fe1           16.00    55.84500     Fe( 1.00)
        Fe2           16.00    55.84500     Fe( 1.00)

     Starting magnetic structure 
     atomic species   magnetization
        Fe1          0.100
        Fe2          0.100

      8 Sym. Ops., with inversion, found



   Cartesian axes

     site n.     atom                  positions (alat units)
         1           Fe1 tau(   1) = (   0.0000000   0.0000000   0.0000000  )
         2           Fe2 tau(   2) = (   0.2500019   0.2510436   0.2489602  )
         3           Fe1 tau(   3) = (   0.0000000   0.0000000   0.4979195  )
         4           Fe2 tau(   4) = (   0.2500019   0.2510436   0.7468789  )
         5           Fe1 tau(   5) = (   0.0000000   0.5020862   0.0000000  )
         6           Fe2 tau(   6) = (   0.2500019   0.7531289   0.2489602  )
         7           Fe1 tau(   7) = (   0.0000000   0.5020862   0.4979195  )
         8           Fe2 tau(   8) = (   0.2500019   0.7531289   0.7468789  )
         9           Fe1 tau(   9) = (   0.5000029   0.0000000   0.0000000  )
        10           Fe2 tau(  10) = (   0.7500039   0.2510436   0.2489602  )
        11           Fe1 tau(  11) = (   0.5000029   0.0000000   0.4979195  )
        12           Fe2 tau(  12) = (   0.7500039   0.2510436   0.7468789  )
        13           Fe1 tau(  13) = (   0.5000029   0.5020862   0.0000000  )
        14           Fe2 tau(  14) = (   0.7500039   0.7531289   0.2489602  )
        15           Fe1 tau(  15) = (   0.5000029   0.5020862   0.4979195  )
        16           Fe2 tau(  16) = (   0.7500039   0.7531289   0.7468789  )

     number of k points=   125  Marzari-Vanderbilt smearing, width (Ry)=  0.0400

     Number of k-points >= 100: set verbosity='high' to print them.

     Dense  grid:   178975 G-vectors     FFT dimensions: (  72,  72,  72)

     Smooth grid:    96133 G-vectors     FFT dimensions: (  60,  60,  60)

     Estimated max dynamical RAM per process >     215.38 MB

     Estimated total dynamical RAM >       8.41 GB
     Generating pointlists ...
     new r_m :   0.1786 (alat units)  1.8922 (a.u.) for type    1
     new r_m :   0.1786 (alat units)  1.8922 (a.u.) for type    2

     Check: negative/imaginary core charge=   -0.000006    0.000000

     Initial potential from superposition of free atoms

     starting charge  255.99300, renormalised to  256.00000
     Starting wfcs are  160 randomized atomic wfcs
     Checking if some PAW data can be deallocated... 

     total cpu time spent up to now is       23.9 secs

     Self-consistent Calculation

     iteration #  1     ecut=    71.00 Ry     beta= 0.10
     Davidson diagonalization with overlap
     ethr =  1.00E-02,  avg # of iterations =  3.3

     Threshold (ethr) on eigenvalues was too large:
     Diagonalizing with lowered threshold

     Davidson diagonalization with overlap
     ethr =  2.83E-04,  avg # of iterations =  3.4

     total cpu time spent up to now is      210.5 secs

     total energy              =   -5268.17610371 Ry
     Harris-Foulkes estimate   =   -5268.32781778 Ry
     estimated scf accuracy    <       0.82042998 Ry

     total magnetization       =    28.04 Bohr mag/cell
     absolute magnetization    =    28.40 Bohr mag/cell

     iteration #  2     ecut=    71.00 Ry     beta= 0.10
     Davidson diagonalization with overlap
     ethr =  3.20E-04,  avg # of iterations =  1.0

     total cpu time spent up to now is      266.4 secs

     total energy              =   -5268.07028032 Ry
     Harris-Foulkes estimate   =   -5268.19491155 Ry
     estimated scf accuracy    <       0.49812727 Ry

     total magnetization       =    28.66 Bohr mag/cell
     absolute magnetization    =    28.95 Bohr mag/cell

     iteration #  3     ecut=    71.00 Ry     beta= 0.10
     Davidson diagonalization with overlap
     ethr =  1.95E-04,  avg # of iterations =  2.5

     total cpu time spent up to now is      342.9 secs

     total energy              =   -5268.03686166 Ry
     Harris-Foulkes estimate   =   -5268.11704837 Ry
     estimated scf accuracy    <       0.58308397 Ry

     total magnetization       =    29.36 Bohr mag/cell
     absolute magnetization    =    29.70 Bohr mag/cell

     iteration #  4     ecut=    71.00 Ry     beta= 0.10
     Davidson diagonalization with overlap
     ethr =  1.95E-04,  avg # of iterations =  2.1

     total cpu time spent up to now is      412.5 secs

     total energy              =   -5268.06904378 Ry
     Harris-Foulkes estimate   =   -5268.07317285 Ry
     estimated scf accuracy    <       0.18397988 Ry

     total magnetization       =    30.20 Bohr mag/cell
     absolute magnetization    =    30.58 Bohr mag/cell

     iteration #  5     ecut=    71.00 Ry     beta= 0.10
     Davidson diagonalization with overlap
     ethr =  7.19E-05,  avg # of iterations =  1.4

     total cpu time spent up to now is      472.7 secs

     total energy              =   -5268.08788900 Ry
     Harris-Foulkes estimate   =   -5268.07342456 Ry
     estimated scf accuracy    <       0.11157213 Ry

     total magnetization       =    30.29 Bohr mag/cell
     absolute magnetization    =    30.69 Bohr mag/cell

     iteration #  6     ecut=    71.00 Ry     beta= 0.10
     Davidson diagonalization with overlap
     ethr =  4.36E-05,  avg # of iterations =  3.2

     total cpu time spent up to now is      580.5 secs

     total energy              =   -5268.14420064 Ry
     Harris-Foulkes estimate   =   -5268.12610103 Ry
     estimated scf accuracy    <       0.13228679 Ry

     total magnetization       =    30.91 Bohr mag/cell
     absolute magnetization    =    31.61 Bohr mag/cell

     iteration #  7     ecut=    71.00 Ry     beta= 0.10
     Davidson diagonalization with overlap
     ethr =  4.36E-05,  avg # of iterations =  2.0

     total cpu time spent up to now is      652.4 secs

     total energy              =   -5268.15342857 Ry
     Harris-Foulkes estimate   =   -5268.15235911 Ry
     estimated scf accuracy    <       0.09921986 Ry

     total magnetization       =    31.45 Bohr mag/cell
     absolute magnetization    =    32.36 Bohr mag/cell

     iteration #  8     ecut=    71.00 Ry     beta= 0.10
     Davidson diagonalization with overlap
     ethr =  3.88E-05,  avg # of iterations =  1.0

     negative rho (up, down):  0.000E+00 1.899E-03

     total cpu time spent up to now is      708.3 secs

     total energy              =   -5268.16952712 Ry
     Harris-Foulkes estimate   =   -5268.15481299 Ry
     estimated scf accuracy    <       0.07708875 Ry

     total magnetization       =    31.60 Bohr mag/cell
     absolute magnetization    =    32.58 Bohr mag/cell

     iteration #  9     ecut=    71.00 Ry     beta= 0.10
     Davidson diagonalization with overlap
     ethr =  3.01E-05,  avg # of iterations =  2.8

     negative rho (up, down):  0.000E+00 2.172E-03

     total cpu time spent up to now is      803.2 secs

     total energy              =   -5268.18946675 Ry
     Harris-Foulkes estimate   =   -5268.18858569 Ry
     estimated scf accuracy    <       0.02710514 Ry

     total magnetization       =    32.39 Bohr mag/cell
     absolute magnetization    =    33.81 Bohr mag/cell

     iteration # 10     ecut=    71.00 Ry     beta= 0.10
     Davidson diagonalization with overlap
     ethr =  1.06E-05,  avg # of iterations =  1.1

     negative rho (up, down):  0.000E+00 2.503E-03

     total cpu time spent up to now is      861.1 secs

     total energy              =   -5268.18802420 Ry
     Harris-Foulkes estimate   =   -5268.18992293 Ry
     estimated scf accuracy    <       0.01482014 Ry

     total magnetization       =    32.49 Bohr mag/cell
     absolute magnetization    =    33.96 Bohr mag/cell

     iteration # 11     ecut=    71.00 Ry     beta= 0.10
     Davidson diagonalization with overlap
     ethr =  5.79E-06,  avg # of iterations =  2.4

     negative rho (up, down):  0.000E+00 2.559E-03

     total cpu time spent up to now is      937.2 secs

     total energy              =   -5268.18862068 Ry
     Harris-Foulkes estimate   =   -5268.18884525 Ry
     estimated scf accuracy    <       0.00187882 Ry

     total magnetization       =    32.65 Bohr mag/cell
     absolute magnetization    =    34.26 Bohr mag/cell

     iteration # 12     ecut=    71.00 Ry     beta= 0.10
     Davidson diagonalization with overlap
     ethr =  7.34E-07,  avg # of iterations =  2.6

     negative rho (up, down):  0.000E+00 2.572E-03

     total cpu time spent up to now is     1012.5 secs

     total energy              =   -5268.18879676 Ry
     Harris-Foulkes estimate   =   -5268.18872268 Ry
     estimated scf accuracy    <       0.00079081 Ry

     total magnetization       =    32.69 Bohr mag/cell
     absolute magnetization    =    34.34 Bohr mag/cell

     iteration # 13     ecut=    71.00 Ry     beta= 0.10
     Davidson diagonalization with overlap
     ethr =  3.09E-07,  avg # of iterations =  2.6

     negative rho (up, down):  0.000E+00 2.547E-03

     total cpu time spent up to now is     1093.5 secs

     total energy              =   -5268.18882324 Ry
     Harris-Foulkes estimate   =   -5268.18890895 Ry
     estimated scf accuracy    <       0.00126226 Ry

     total magnetization       =    32.75 Bohr mag/cell
     absolute magnetization    =    34.43 Bohr mag/cell

     iteration # 14     ecut=    71.00 Ry     beta= 0.10
     Davidson diagonalization with overlap
     ethr =  3.09E-07,  avg # of iterations =  2.6

     negative rho (up, down):  0.000E+00 2.491E-03

     total cpu time spent up to now is     1175.9 secs

     total energy              =   -5268.18906631 Ry
     Harris-Foulkes estimate   =   -5268.18894121 Ry
     estimated scf accuracy    <       0.00071075 Ry

     total magnetization       =    32.78 Bohr mag/cell
     absolute magnetization    =    34.51 Bohr mag/cell

     iteration # 15     ecut=    71.00 Ry     beta= 0.10
     Davidson diagonalization with overlap
     ethr =  2.78E-07,  avg # of iterations =  1.2

     negative rho (up, down):  0.000E+00 2.478E-03

     total cpu time spent up to now is     1234.4 secs

     total energy              =   -5268.18915945 Ry
     Harris-Foulkes estimate   =   -5268.18910416 Ry
     estimated scf accuracy    <       0.00020000 Ry

     total magnetization       =    32.78 Bohr mag/cell
     absolute magnetization    =    34.51 Bohr mag/cell

     iteration # 16     ecut=    71.00 Ry     beta= 0.10
     Davidson diagonalization with overlap
     ethr =  7.81E-08,  avg # of iterations =  2.4

     negative rho (up, down):  0.000E+00 2.457E-03

     total cpu time spent up to now is     1319.1 secs

     total energy              =   -5268.18922707 Ry
     Harris-Foulkes estimate   =   -5268.18918294 Ry
     estimated scf accuracy    <       0.00010725 Ry

     total magnetization       =    32.82 Bohr mag/cell
     absolute magnetization    =    34.55 Bohr mag/cell

     iteration # 17     ecut=    71.00 Ry     beta= 0.10
     Davidson diagonalization with overlap
     ethr =  4.19E-08,  avg # of iterations =  2.2

     negative rho (up, down):  0.000E+00 2.385E-03

     total cpu time spent up to now is     1393.6 secs

     total energy              =   -5268.18925964 Ry
     Harris-Foulkes estimate   =   -5268.18923740 Ry
     estimated scf accuracy    <       0.00006966 Ry

     total magnetization       =    32.84 Bohr mag/cell
     absolute magnetization    =    34.58 Bohr mag/cell

     iteration # 18     ecut=    71.00 Ry     beta= 0.10
     Davidson diagonalization with overlap
     ethr =  2.72E-08,  avg # of iterations =  2.6

     negative rho (up, down):  0.000E+00 2.442E-03

     total cpu time spent up to now is     1481.8 secs

     total energy              =   -5268.18928142 Ry
     Harris-Foulkes estimate   =   -5268.18928117 Ry
     estimated scf accuracy    <       0.00004294 Ry

     total magnetization       =    32.85 Bohr mag/cell
     absolute magnetization    =    34.60 Bohr mag/cell

     iteration # 19     ecut=    71.00 Ry     beta= 0.10
     Davidson diagonalization with overlap
     ethr =  1.68E-08,  avg # of iterations =  2.8

     negative rho (up, down):  0.000E+00 2.457E-03

     total cpu time spent up to now is     1568.7 secs

     total energy              =   -5268.18929139 Ry
     Harris-Foulkes estimate   =   -5268.18929185 Ry
     estimated scf accuracy    <       0.00001613 Ry

     total magnetization       =    32.88 Bohr mag/cell
     absolute magnetization    =    34.64 Bohr mag/cell

     iteration # 20     ecut=    71.00 Ry     beta= 0.10
     Davidson diagonalization with overlap
     ethr =  6.30E-09,  avg # of iterations =  2.0

     negative rho (up, down):  0.000E+00 2.455E-03

     total cpu time spent up to now is     1638.0 secs

     total energy              =   -5268.18929539 Ry
     Harris-Foulkes estimate   =   -5268.18929231 Ry
     estimated scf accuracy    <       0.00001138 Ry

     total magnetization       =    32.88 Bohr mag/cell
     absolute magnetization    =    34.65 Bohr mag/cell

     iteration # 21     ecut=    71.00 Ry     beta= 0.10
     Davidson diagonalization with overlap
     ethr =  4.45E-09,  avg # of iterations =  1.1

     negative rho (up, down):  0.000E+00 2.459E-03

     total cpu time spent up to now is     1695.0 secs

     total energy              =   -5268.18929861 Ry
     Harris-Foulkes estimate   =   -5268.18929589 Ry
     estimated scf accuracy    <       0.00000810 Ry

     total magnetization       =    32.89 Bohr mag/cell
     absolute magnetization    =    34.65 Bohr mag/cell

     iteration # 22     ecut=    71.00 Ry     beta= 0.10
     Davidson diagonalization with overlap
     ethr =  3.16E-09,  avg # of iterations =  2.2

     negative rho (up, down):  0.000E+00 2.453E-03

     total cpu time spent up to now is     1765.2 secs

     total energy              =   -5268.18930122 Ry
     Harris-Foulkes estimate   =   -5268.18929979 Ry
     estimated scf accuracy    <       0.00000463 Ry

     total magnetization       =    32.89 Bohr mag/cell
     absolute magnetization    =    34.66 Bohr mag/cell

     iteration # 23     ecut=    71.00 Ry     beta= 0.10
     Davidson diagonalization with overlap
     ethr =  1.81E-09,  avg # of iterations =  2.6

     negative rho (up, down):  0.000E+00 2.450E-03

     total cpu time spent up to now is     1844.1 secs

     total energy              =   -5268.18930269 Ry
     Harris-Foulkes estimate   =   -5268.18930196 Ry
     estimated scf accuracy    <       0.00000132 Ry

     total magnetization       =    32.90 Bohr mag/cell
     absolute magnetization    =    34.67 Bohr mag/cell

     iteration # 24     ecut=    71.00 Ry     beta= 0.10
     Davidson diagonalization with overlap
     ethr =  5.16E-10,  avg # of iterations =  2.0

     negative rho (up, down):  0.000E+00 2.463E-03
 
     Magnetic moment per site:
     atom:    1    charge:   14.3666    magn:    2.0994    constr:    0.0000
     atom:    2    charge:   14.3664    magn:    2.1017    constr:    0.0000
     atom:    3    charge:   14.3665    magn:    2.1000    constr:    0.0000
     atom:    4    charge:   14.3664    magn:    2.1017    constr:    0.0000
     atom:    5    charge:   14.3665    magn:    2.1002    constr:    0.0000
     atom:    6    charge:   14.3664    magn:    2.1017    constr:    0.0000
     atom:    7    charge:   14.3665    magn:    2.1003    constr:    0.0000
     atom:    8    charge:   14.3664    magn:    2.1017    constr:    0.0000
     atom:    9    charge:   14.3666    magn:    2.0986    constr:    0.0000
     atom:   10    charge:   14.3664    magn:    2.1017    constr:    0.0000
     atom:   11    charge:   14.3665    magn:    2.0988    constr:    0.0000
     atom:   12    charge:   14.3664    magn:    2.1017    constr:    0.0000
     atom:   13    charge:   14.3664    magn:    2.0991    constr:    0.0000
     atom:   14    charge:   14.3664    magn:    2.1017    constr:    0.0000
     atom:   15    charge:   14.3664    magn:    2.0995    constr:    0.0000
     atom:   16    charge:   14.3664    magn:    2.1017    constr:    0.0000

     total cpu time spent up to now is     1911.1 secs

     End of self-consistent calculation

     Number of k-points >= 100: set verbosity='high' to print the bands.

     the Fermi energy is    18.9746 ev

!    total energy              =   -5268.18930454 Ry
     Harris-Foulkes estimate   =   -5268.18930276 Ry
     estimated scf accuracy    <       0.00000074 Ry

     total all-electron energy =    -40728.933834 Ry

     The total energy is the sum of the following terms:

     one-electron contribution =   -1707.43262946 Ry
     hartree contribution      =    1022.27737362 Ry
     xc contribution           =    -444.25966711 Ry
     ewald contribution        =   -2814.22731055 Ry
     one-center paw contrib.   =   -1324.67104701 Ry
     smearing contrib. (-TS)   =       0.12397596 Ry

     total magnetization       =    32.90 Bohr mag/cell
     absolute magnetization    =    34.67 Bohr mag/cell

     convergence has been achieved in  24 iterations

     negative rho (up, down):  0.000E+00 2.463E-03

     Forces acting on atoms (cartesian axes, Ry/au):

     atom    1 type  1   force =     0.00000000    0.00000000    0.00000000
     atom    2 type  2   force =    -0.00000015    0.00024022    0.00003629
     atom    3 type  1   force =     0.00000000    0.00000000    0.00000000
     atom    4 type  2   force =    -0.00000015    0.00024022   -0.00003629
     atom    5 type  1   force =     0.00000000    0.00000000    0.00000000
     atom    6 type  2   force =    -0.00000015   -0.00024022    0.00003629
     atom    7 type  1   force =     0.00000000    0.00000000    0.00000000
     atom    8 type  2   force =    -0.00000015   -0.00024022   -0.00003629
     atom    9 type  1   force =     0.00000000    0.00000000    0.00000000
     atom   10 type  2   force =     0.00000015    0.00024022    0.00003629
     atom   11 type  1   force =     0.00000000    0.00000000    0.00000000
     atom   12 type  2   force =     0.00000015    0.00024022   -0.00003629
     atom   13 type  1   force =     0.00000000    0.00000000    0.00000000
     atom   14 type  2   force =     0.00000015   -0.00024022    0.00003629
     atom   15 type  1   force =     0.00000000    0.00000000    0.00000000
     atom   16 type  2   force =     0.00000015   -0.00024022   -0.00003629

     Total force =     0.000687     Total SCF correction =     0.005582
     SCF correction compared to forces is large: reduce conv_thr to get better values


     Computing stress (Cartesian axis) and pressure


     negative rho (up, down):  0.000E+00 2.463E-03
          total   stress  (Ry/bohr**3)                   (kbar)     P=   -3.15
  -0.00002199   0.00000000   0.00000000         -3.24      0.00      0.00
   0.00000000  -0.00005822   0.00000000          0.00     -8.57      0.00
   0.00000000   0.00000000   0.00001603          0.00      0.00      2.36


     Writing output data file HIJgNucenNVOaqKx.save/
 
     init_run     :     21.46s CPU     22.46s WALL (       1 calls)
     electrons    :   1829.16s CPU   1887.31s WALL (       1 calls)
     forces       :      7.68s CPU      8.38s WALL (       1 calls)
     stress       :     21.56s CPU     21.81s WALL (       1 calls)

     Called by init_run:
     wfcinit      :     21.01s CPU     21.89s WALL (       1 calls)
     potinit      :      0.21s CPU      0.23s WALL (       1 calls)
     hinit0       :      0.10s CPU      0.11s WALL (       1 calls)

     Called by electrons:
     c_bands      :   1647.43s CPU   1696.12s WALL (      25 calls)
     sum_band     :    176.51s CPU    185.40s WALL (      25 calls)
     v_of_rho     :      0.42s CPU      0.42s WALL (      25 calls)
     newd         :      0.91s CPU      1.13s WALL (      25 calls)
     PAW_pot      :      3.83s CPU      4.10s WALL (      25 calls)
     mix_rho      :      0.15s CPU      0.16s WALL (      25 calls)

     Called by c_bands:
     init_us_2    :      9.44s CPU      9.54s WALL (   13250 calls)
     cegterg      :   1601.39s CPU   1649.64s WALL (    6250 calls)

     Called by sum_band:
     sum_band:bec :      2.60s CPU      2.64s WALL (    6250 calls)
     addusdens    :      1.35s CPU      1.56s WALL (      25 calls)

     Called by *egterg:
     h_psi        :    695.52s CPU    725.44s WALL (   20223 calls)
     s_psi        :     37.45s CPU     37.72s WALL (   20223 calls)
     g_psi        :      1.53s CPU      1.55s WALL (   13723 calls)
     cdiaghg      :    706.42s CPU    708.82s WALL (   19723 calls)

     Called by h_psi:
     h_psi:pot    :    691.68s CPU    721.56s WALL (   20223 calls)
     h_psi:calbec :     56.31s CPU     65.50s WALL (   20223 calls)
     vloc_psi     :    598.13s CPU    618.55s WALL (   20223 calls)
     add_vuspsi   :     37.08s CPU     37.38s WALL (   20223 calls)

     General routines
     calbec       :     85.48s CPU     99.80s WALL (   27723 calls)
     fft          :      0.55s CPU      0.57s WALL (     667 calls)
     ffts         :      0.07s CPU      0.26s WALL (     100 calls)
     fftw         :    697.98s CPU    721.29s WALL ( 5183058 calls)
     interpolate  :      0.08s CPU      0.17s WALL (      50 calls)
 
     Parallel routines
     fft_scatt_xy :     45.41s CPU     46.87s WALL ( 5183825 calls)
     fft_scatt_yz :    471.08s CPU    487.22s WALL ( 5183825 calls)
 
     PWSCF        : 31m34.88s CPU    33m23.86s WALL

 
   This run was terminated on:  11:26:33  10Sep2020            

=------------------------------------------------------------------------------=
   JOB DONE.
=------------------------------------------------------------------------------=
